MODEL 1
REMARK VINA RESULT:      -7.1      0.000      0.000
REMARK  Name = ./1214.pdb
REMARK  51 active torsions:
REMARK  status: ('A' for Active; 'I' for Inactive)
REMARK    1  A    between atoms: C_85  and  S_87
REMARK    2  A    between atoms: C_86  and  S_87
REMARK    3  A    between atoms: S_87  and  C_88
REMARK    4  A    between atoms: C_88  and  C_89
REMARK    5  A    between atoms: C_89  and  C_90
REMARK    6  A    between atoms: C_90  and  N_91
REMARK    7  A    between atoms: C_93  and  C_96
REMARK    8  A    between atoms: C_98  and  C_101
REMARK    9  A    between atoms: C_103  and  C_104
REMARK   10  A    between atoms: C_104  and  C_105
REMARK   11  A    between atoms: C_105  and  N_106
REMARK   12  A    between atoms: C_108  and  C_177
REMARK   13  A    between atoms: C_113  and  C_140
REMARK   14  A    between atoms: O_114  and  C_115
REMARK   15  A    between atoms: C_118  and  O_119
REMARK   16  A    between atoms: O_119  and  C_120
REMARK   17  A    between atoms: O_121  and  C_122
REMARK   18  A    between atoms: O_123  and  C_124
REMARK   19  A    between atoms: C_124  and  C_125
REMARK   20  A    between atoms: C_127  and  O_128
REMARK   21  A    between atoms: O_128  and  C_129
REMARK   22  A    between atoms: O_130  and  C_131
REMARK   23  A    between atoms: O_132  and  C_133
REMARK   24  A    between atoms: O_134  and  C_135
REMARK   25  A    between atoms: C_135  and  C_136
REMARK   26  A    between atoms: C_138  and  O_139
REMARK   27  A    between atoms: O_139  and  C_140
REMARK   28  A    between atoms: C_140  and  C_164
REMARK   29  A    between atoms: C_144  and  C_146
REMARK   30  A    between atoms: N_145  and  C_146
REMARK   31  A    between atoms: C_146  and  C_147
REMARK   32  A    between atoms: C_147  and  N_148
REMARK   33  A    between atoms: N_148  and  C_153
REMARK   34  A    between atoms: C_151  and  C_152
REMARK   35  A    between atoms: C_152  and  C_153
REMARK   36  A    between atoms: C_153  and  C_155
REMARK   37  A    between atoms: C_158  and  C_159
REMARK   38  A    between atoms: C_160  and  C_162
REMARK   39  A    between atoms: N_163  and  C_164
REMARK   40  A    between atoms: C_164  and  C_166
REMARK   41  A    between atoms: N_167  and  C_169
REMARK   42  A    between atoms: C_168  and  C_169
REMARK   43  A    between atoms: C_169  and  C_171
REMARK   44  A    between atoms: O_170  and  C_171
REMARK   45  A    between atoms: C_171  and  C_173
REMARK   46  A    between atoms: C_172  and  C_173
REMARK   47  A    between atoms: C_173  and  C_175
REMARK   48  A    between atoms: N_176  and  C_177
REMARK   49  A    between atoms: C_177  and  C_179
REMARK   50  A    between atoms: O_178  and  C_179
REMARK   51  A    between atoms: C_179  and  C_180
REMARK                            x       y       z     vdW  Elec       q    Type
REMARK                         _______ _______ _______ _____ _____    ______ ____
ROOT
ATOM      1  C   UNK     1      74.316  60.148 102.389  0.00  0.00    +0.000 C 
ENDROOT
BRANCH   1   4
ATOM      2  H   UNK     1      75.383  58.549  99.562  0.00  0.00    +0.000 HD
ATOM      3  O   UNK     1      76.419  59.396 101.580  0.00  0.00    +0.000 OA
ATOM      4  C   UNK     1      75.240  59.492 101.350  0.00  0.00    +0.000 C 
ATOM      5  N   UNK     1      74.711  59.008 100.182  0.00  0.00    +0.000 N 
BRANCH   5   7
ATOM      6  C   UNK     1      73.467  59.892  98.257  0.00  0.00    +0.000 C 
ATOM      7  C   UNK     1      73.360  59.244  99.649  0.00  0.00    +0.000 C 
BRANCH   7   8
ATOM      8  C   UNK     1      72.594  57.912  99.577  0.00  0.00    +0.000 C 
BRANCH   8  10
ATOM      9  H   UNK     1      71.492  58.824 100.924  0.00  0.00    +0.000 HD
ATOM     10  O   UNK     1      71.466  58.012 100.414  0.00  0.00    +0.000 OA
ENDBRANCH   8  10
BRANCH   8  12
ATOM     11  C   UNK     1      72.690  56.109  97.805  0.00  0.00    +0.000 C 
ATOM     12  C   UNK     1      72.121  57.492  98.176  0.00  0.00    +0.000 C 
BRANCH  12  15
ATOM     13  H   UNK     1      70.671  59.548  98.031  0.00  0.00    +0.000 HD
ATOM     14  O   UNK     1      69.932  56.498  98.081  0.00  0.00    +0.000 OA
ATOM     15  C   UNK     1      70.598  57.500  98.087  0.00  0.00    +0.000 C 
ATOM     16  N   UNK     1      70.044  58.747  98.064  0.00  0.00    +0.000 N 
BRANCH  16  17
ATOM     17  C   UNK     1      68.600  59.016  98.082  0.00  0.00    +0.000 C 
BRANCH  17  21
ATOM     18  H   UNK     1      66.368  57.950  98.610  0.00  0.00    +0.000 HD
ATOM     19  N   UNK     1      66.785  58.242  99.495  0.00  0.00    +0.000 N 
ATOM     20  O   UNK     1      68.652  59.067 100.479  0.00  0.00    +0.000 OA
ATOM     21  C   UNK     1      68.041  58.780  99.479  0.00  0.00    +0.000 C 
BRANCH  19  22
ATOM     22  C   UNK     1      66.059  57.993 100.742  0.00  0.00    +0.000 C 
BRANCH  22  23
ATOM     23  C   UNK     1      64.555  58.270 100.571  0.00  0.00    +0.000 C 
BRANCH  23  28
ATOM     24  S   UNK     1      63.338  60.334 101.673  0.00  0.00    +0.000 S 
ATOM     25  C   UNK     1      62.900  60.304 103.070  0.00  0.00    +0.000 A 
ATOM     26  C   UNK     1      63.241  59.158 103.686  0.00  0.00    +0.000 A 
ATOM     27  N   UNK     1      63.852  58.416 102.864  0.00  0.00    +0.000 NA
ATOM     28  C   UNK     1      63.927  58.992 101.741  0.00  0.00    +0.000 A 
BRANCH  26  33
ATOM     29  S   UNK     1      61.801  58.049 105.387  0.00  0.00    +0.000 S 
ATOM     30  C   UNK     1      62.101  58.131 106.817  0.00  0.00    +0.000 A 
ATOM     31  C   UNK     1      63.216  58.849 107.032  0.00  0.00    +0.000 A 
ATOM     32  N   UNK     1      63.690  59.240 105.928  0.00  0.00    +0.000 NA
ATOM     33  C   UNK     1      62.963  58.846 104.968  0.00  0.00    +0.000 A 
BRANCH  31  37
ATOM     34  H   UNK     1      62.308  57.964 109.156  0.00  0.00    +0.000 HD
ATOM     35  N   UNK     1      63.135  58.536 109.319  0.00  0.00    +0.000 N 
ATOM     36  O   UNK     1      64.706  59.853 108.412  0.00  0.00    +0.000 OA
ATOM     37  C   UNK     1      63.755  59.125 108.251  0.00  0.00    +0.000 C 
BRANCH  35  38
ATOM     38  C   UNK     1      63.607  58.728 110.694  0.00  0.00    +0.000 C 
BRANCH  38  39
ATOM     39  C   UNK     1      62.736  59.743 111.455  0.00  0.00    +0.000 C 
BRANCH  39  40
ATOM     40  C   UNK     1      63.119  59.828 112.940  0.00  0.00    +0.000 C 
BRANCH  40  43
ATOM     41  C   UNK     1      60.931  58.206 113.521  0.00  0.00    +0.000 C 
ATOM     42  C   UNK     1      60.591  60.905 113.146  0.00  0.00    +0.000 C 
ATOM     43  S   UNK     1      61.678  59.769 114.044  0.00  0.00    +0.000 S 
ENDBRANCH  40  43
ENDBRANCH  39  40
ENDBRANCH  38  39
ENDBRANCH  35  38
ENDBRANCH  31  37
ENDBRANCH  26  33
ENDBRANCH  23  28
ENDBRANCH  22  23
ENDBRANCH  19  22
ENDBRANCH  17  21
BRANCH  17  44
ATOM     44  C   UNK     1      68.187  60.379  97.508  0.00  0.00    +0.000 C 
ATOM     45  C   UNK     1      69.372  61.167  96.956  0.00  0.00    +0.000 C 
BRANCH  44  47
ATOM     46  H   UNK     1      67.821  60.766  99.375  0.00  0.00    +0.000 HD
ATOM     47  O   UNK     1      67.555  61.130  98.521  0.00  0.00    +0.000 OA
ENDBRANCH  44  47
ENDBRANCH  17  44
ENDBRANCH  16  17
ENDBRANCH  12  15
ENDBRANCH   8  12
ENDBRANCH   7   8
ENDBRANCH   5   7
ENDBRANCH   1   4
BRANCH   1  51
ATOM     48  H   UNK     1      75.447  61.928 102.152  0.00  0.00    +0.000 HD
ATOM     49  O   UNK     1      74.036  63.681 101.887  0.00  0.00    +0.000 OA
ATOM     50  C   UNK     1      73.544  62.603 102.122  0.00  0.00    +0.000 C 
ATOM     51  N   UNK     1      74.480  61.596 102.172  0.00  0.00    +0.000 N 
BRANCH  50  61
ATOM     52  H   UNK     1      69.095  61.982  99.937  0.00  0.00    +0.000 HD
ATOM     53  H   UNK     1      68.023  61.878 101.361  0.00  0.00    +0.000 HD
ATOM     54  N   UNK     1      68.994  61.989 100.977  0.00  0.00    +0.000 N 
ATOM     55  N   UNK     1      71.801  62.410 103.541  0.00  0.00    +0.000 NA
ATOM     56  C   UNK     1      70.591  62.260 103.852  0.00  0.00    +0.000 A 
ATOM     57  N   UNK     1      69.663  62.123 103.013  0.00  0.00    +0.000 NA
ATOM     58  C   UNK     1      69.966  62.134 101.783  0.00  0.00    +0.000 A 
ATOM     59  C   UNK     1      71.581  62.279  99.893  0.00  0.00    +0.000 C 
ATOM     60  C   UNK     1      71.250  62.283 101.377  0.00  0.00    +0.000 A 
ATOM     61  C   UNK     1      72.198  62.428 102.342  0.00  0.00    +0.000 A 
BRANCH  56  62
ATOM     62  C   UNK     1      70.281  62.233 105.328  0.00  0.00    +0.000 C 
BRANCH  62  64
ATOM     63  H   UNK     1      69.735  64.181 104.933  0.00  0.00    +0.000 HD
ATOM     64  N   UNK     1      69.964  63.593 105.773  0.00  0.00    +0.000 NA
BRANCH  64  65
ATOM     65  C   UNK     1      71.038  64.229 106.538  0.00  0.00    +0.000 C 
BRANCH  65  66
ATOM     66  C   UNK     1      70.536  64.696 107.911  0.00  0.00    +0.000 C 
BRANCH  66  71
ATOM     67  H   UNK     1      70.794  66.336 105.975  0.00  0.00    +0.000 HD
ATOM     68  H   UNK     1      70.525  67.863 106.816  0.00  0.00    +0.000 HD
ATOM     69  O   UNK     1      70.143  66.825 108.998  0.00  0.00    +0.000 OA
ATOM     70  N   UNK     1      70.600  66.855 106.819  0.00  0.00    +0.000 N 
ATOM     71  C   UNK     1      70.406  66.207 107.999  0.00  0.00    +0.000 C 
ENDBRANCH  66  71
BRANCH  66  74
ATOM     72  H   UNK     1      72.004  65.044 109.330  0.00  0.00    +0.000 HD
ATOM     73  H   UNK     1      72.204  63.620 108.541  0.00  0.00    +0.000 HD
ATOM     74  N   UNK     1      71.480  64.239 108.945  0.00  0.00    +0.000 NA
ENDBRANCH  66  74
ENDBRANCH  65  66
ENDBRANCH  64  65
ENDBRANCH  62  64
BRANCH  62  75
ATOM     75  C   UNK     1      71.374  61.574 106.180  0.00  0.00    +0.000 C 
BRANCH  75  80
ATOM     76  H   UNK     1      72.845  59.963 107.658  0.00  0.00    +0.000 HD
ATOM     77  H   UNK     1      71.989  58.479 107.349  0.00  0.00    +0.000 HD
ATOM     78  O   UNK     1      70.320  59.438 105.849  0.00  0.00    +0.000 OA
ATOM     79  N   UNK     1      72.108  59.468 107.172  0.00  0.00    +0.000 N 
ATOM     80  C   UNK     1      71.196  60.076 106.368  0.00  0.00    +0.000 C 
ENDBRANCH  75  80
ENDBRANCH  62  75
ENDBRANCH  56  62
ENDBRANCH  50  61
ENDBRANCH   1  51
BRANCH   1  81
ATOM     81  C   UNK     1      74.791  59.760 103.815  0.00  0.00    +0.000 C 
BRANCH  81  87
ATOM     82  H   UNK     1      74.077  55.908 106.080  0.00  0.00    +0.000 HD
ATOM     83  N   UNK     1      73.035  58.086 104.138  0.00  0.00    +0.000 NA
ATOM     84  C   UNK     1      72.901  57.016 104.797  0.00  0.00    +0.000 A 
ATOM     85  N   UNK     1      73.943  56.738 105.460  0.00  0.00    +0.000 N 
ATOM     86  C   UNK     1      74.798  57.644 105.237  0.00  0.00    +0.000 A 
ATOM     87  C   UNK     1      74.203  58.497 104.390  0.00  0.00    +0.000 A 
ENDBRANCH  81  87
BRANCH  81  88
ATOM     88  O   UNK     1      74.534  60.817 104.718  0.00  0.00    +0.000 OA
BRANCH  88  94
ATOM     89  C   UNK     1      75.376  62.935 105.447  0.00  0.00    +0.000 C 
ATOM     90  C   UNK     1      76.683  63.601 105.867  0.00  0.00    +0.000 C 
ATOM     91  C   UNK     1      77.728  63.364 104.790  0.00  0.00    +0.000 C 
ATOM     92  C   UNK     1      77.890  61.881 104.500  0.00  0.00    +0.000 C 
ATOM     93  O   UNK     1      76.644  61.332 104.179  0.00  0.00    +0.000 OA
ATOM     94  C   UNK     1      75.691  61.467 105.207  0.00  0.00    +0.000 C 
BRANCH  90  96
ATOM     95  H   UNK     1      77.304  65.384 105.515  0.00  0.00    +0.000 HD
ATOM     96  O   UNK     1      76.594  64.999 106.039  0.00  0.00    +0.000 OA
ENDBRANCH  90  96
BRANCH  91  98
ATOM     97  H   UNK     1      79.141  63.596 106.132  0.00  0.00    +0.000 HD
ATOM     98  O   UNK     1      78.934  63.921 105.255  0.00  0.00    +0.000 OA
ENDBRANCH  91  98
BRANCH  89  99
ATOM     99  O   UNK     1      74.396  62.984 106.449  0.00  0.00    +0.000 OA
BRANCH  99 105
ATOM    100  C   UNK     1      74.580  62.052 108.657  0.00  0.00    +0.000 C 
ATOM    101  C   UNK     1      75.303  62.303 109.980  0.00  0.00    +0.000 C 
ATOM    102  C   UNK     1      74.902  63.686 110.498  0.00  0.00    +0.000 C 
ATOM    103  C   UNK     1      74.912  64.797 109.444  0.00  0.00    +0.000 C 
ATOM    104  O   UNK     1      74.330  64.373 108.240  0.00  0.00    +0.000 OA
ATOM    105  C   UNK     1      74.919  63.201 107.737  0.00  0.00    +0.000 C 
BRANCH 100 107
ATOM    106  H   UNK     1      72.948  61.377 109.538  0.00  0.00    +0.000 HD
ATOM    107  O   UNK     1      73.182  61.995 108.838  0.00  0.00    +0.000 OA
ENDBRANCH 100 107
BRANCH 102 109
ATOM    108  H   UNK     1      73.331  64.381 111.501  0.00  0.00    +0.000 HD
ATOM    109  O   UNK     1      73.609  63.576 111.061  0.00  0.00    +0.000 OA
ENDBRANCH 102 109
BRANCH 101 110
ATOM    110  O   UNK     1      76.689  62.294 109.777  0.00  0.00    +0.000 OA
BRANCH 110 115
ATOM    111  H   UNK     1      79.178  62.531 109.780  0.00  0.00    +0.000 HD
ATOM    112  H   UNK     1      79.433  62.076 111.470  0.00  0.00    +0.000 HD
ATOM    113  O   UNK     1      77.099  61.583 111.885  0.00  0.00    +0.000 OA
ATOM    114  N   UNK     1      78.823  62.280 110.693  0.00  0.00    +0.000 N 
ATOM    115  C   UNK     1      77.492  62.065 110.851  0.00  0.00    +0.000 C 
ENDBRANCH 110 115
ENDBRANCH 101 110
BRANCH 103 116
ATOM    116  C   UNK     1      76.280  65.437 109.230  0.00  0.00    +0.000 C 
BRANCH 116 118
ATOM    117  H   UNK     1      76.593  67.221 108.476  0.00  0.00    +0.000 HD
ATOM    118  O   UNK     1      76.151  66.843 109.239  0.00  0.00    +0.000 OA
ENDBRANCH 116 118
ENDBRANCH 103 116
ENDBRANCH  99 105
ENDBRANCH  89  99
BRANCH  92 119
ATOM    119  C   UNK     1      78.805  61.614 103.313  0.00  0.00    +0.000 C 
BRANCH 119 121
ATOM    120  H   UNK     1      79.534  59.797 103.316  0.00  0.00    +0.000 HD
ATOM    121  O   UNK     1      78.762  60.245 102.968  0.00  0.00    +0.000 OA
ENDBRANCH 119 121
ENDBRANCH  92 119
ENDBRANCH  88  94
ENDBRANCH  81  88
ENDBRANCH   1  81
TORSDOF 45
ENDMDL
MODEL 2
REMARK VINA RESULT:      -7.0      6.026     13.867
REMARK  Name = ./1214.pdb
REMARK  51 active torsions:
REMARK  status: ('A' for Active; 'I' for Inactive)
REMARK    1  A    between atoms: C_85  and  S_87
REMARK    2  A    between atoms: C_86  and  S_87
REMARK    3  A    between atoms: S_87  and  C_88
REMARK    4  A    between atoms: C_88  and  C_89
REMARK    5  A    between atoms: C_89  and  C_90
REMARK    6  A    between atoms: C_90  and  N_91
REMARK    7  A    between atoms: C_93  and  C_96
REMARK    8  A    between atoms: C_98  and  C_101
REMARK    9  A    between atoms: C_103  and  C_104
REMARK   10  A    between atoms: C_104  and  C_105
REMARK   11  A    between atoms: C_105  and  N_106
REMARK   12  A    between atoms: C_108  and  C_177
REMARK   13  A    between atoms: C_113  and  C_140
REMARK   14  A    between atoms: O_114  and  C_115
REMARK   15  A    between atoms: C_118  and  O_119
REMARK   16  A    between atoms: O_119  and  C_120
REMARK   17  A    between atoms: O_121  and  C_122
REMARK   18  A    between atoms: O_123  and  C_124
REMARK   19  A    between atoms: C_124  and  C_125
REMARK   20  A    between atoms: C_127  and  O_128
REMARK   21  A    between atoms: O_128  and  C_129
REMARK   22  A    between atoms: O_130  and  C_131
REMARK   23  A    between atoms: O_132  and  C_133
REMARK   24  A    between atoms: O_134  and  C_135
REMARK   25  A    between atoms: C_135  and  C_136
REMARK   26  A    between atoms: C_138  and  O_139
REMARK   27  A    between atoms: O_139  and  C_140
REMARK   28  A    between atoms: C_140  and  C_164
REMARK   29  A    between atoms: C_144  and  C_146
REMARK   30  A    between atoms: N_145  and  C_146
REMARK   31  A    between atoms: C_146  and  C_147
REMARK   32  A    between atoms: C_147  and  N_148
REMARK   33  A    between atoms: N_148  and  C_153
REMARK   34  A    between atoms: C_151  and  C_152
REMARK   35  A    between atoms: C_152  and  C_153
REMARK   36  A    between atoms: C_153  and  C_155
REMARK   37  A    between atoms: C_158  and  C_159
REMARK   38  A    between atoms: C_160  and  C_162
REMARK   39  A    between atoms: N_163  and  C_164
REMARK   40  A    between atoms: C_164  and  C_166
REMARK   41  A    between atoms: N_167  and  C_169
REMARK   42  A    between atoms: C_168  and  C_169
REMARK   43  A    between atoms: C_169  and  C_171
REMARK   44  A    between atoms: O_170  and  C_171
REMARK   45  A    between atoms: C_171  and  C_173
REMARK   46  A    between atoms: C_172  and  C_173
REMARK   47  A    between atoms: C_173  and  C_175
REMARK   48  A    between atoms: N_176  and  C_177
REMARK   49  A    between atoms: C_177  and  C_179
REMARK   50  A    between atoms: O_178  and  C_179
REMARK   51  A    between atoms: C_179  and  C_180
REMARK                            x       y       z     vdW  Elec       q    Type
REMARK                         _______ _______ _______ _____ _____    ______ ____
ROOT
ATOM      1  C   UNK     1      74.751  62.746 105.423  0.00  0.00    +0.000 C 
ENDROOT
BRANCH   1   4
ATOM      2  H   UNK     1      74.420  62.504 108.817  0.00  0.00    +0.000 HD
ATOM      3  O   UNK     1      73.255  61.623 106.886  0.00  0.00    +0.000 OA
ATOM      4  C   UNK     1      74.206  62.359 106.807  0.00  0.00    +0.000 C 
ATOM      5  N   UNK     1      74.815  62.841 107.935  0.00  0.00    +0.000 N 
BRANCH   5   7
ATOM      6  C   UNK     1      75.133  65.274 107.811  0.00  0.00    +0.000 C 
ATOM      7  C   UNK     1      75.821  63.913 108.018  0.00  0.00    +0.000 C 
BRANCH   7   8
ATOM      8  C   UNK     1      76.524  63.855 109.385  0.00  0.00    +0.000 C 
BRANCH   8  10
ATOM      9  H   UNK     1      76.970  65.175 110.771  0.00  0.00    +0.000 HD
ATOM     10  O   UNK     1      76.648  65.172 109.867  0.00  0.00    +0.000 OA
ENDBRANCH   8  10
BRANCH   8  12
ATOM     11  C   UNK     1      76.490  61.629 110.587  0.00  0.00    +0.000 C 
ATOM     12  C   UNK     1      75.820  63.010 110.460  0.00  0.00    +0.000 C 
BRANCH  12  15
ATOM     13  H   UNK     1      74.031  64.607 111.239  0.00  0.00    +0.000 HD
ATOM     14  O   UNK     1      76.664  63.613 112.631  0.00  0.00    +0.000 OA
ATOM     15  C   UNK     1      75.801  63.737 111.801  0.00  0.00    +0.000 C 
ATOM     16  N   UNK     1      74.743  64.583 111.966  0.00  0.00    +0.000 N 
BRANCH  16  17
ATOM     17  C   UNK     1      74.558  65.467 113.125  0.00  0.00    +0.000 C 
BRANCH  17  21
ATOM     18  H   UNK     1      74.291  66.366 110.777  0.00  0.00    +0.000 HD
ATOM     19  N   UNK     1      74.597  67.140 111.369  0.00  0.00    +0.000 N 
ATOM     20  O   UNK     1      75.003  67.793 113.500  0.00  0.00    +0.000 OA
ATOM     21  C   UNK     1      74.738  66.921 112.710  0.00  0.00    +0.000 C 
BRANCH  19  22
ATOM     22  C   UNK     1      74.787  68.464 110.770  0.00  0.00    +0.000 C 
BRANCH  22  23
ATOM     23  C   UNK     1      75.825  68.415 109.636  0.00  0.00    +0.000 C 
BRANCH  23  28
ATOM     24  S   UNK     1      75.945  70.997 109.114  0.00  0.00    +0.000 S 
ATOM     25  C   UNK     1      77.216  71.725 109.156  0.00  0.00    +0.000 A 
ATOM     26  C   UNK     1      78.257  70.917 109.428  0.00  0.00    +0.000 A 
ATOM     27  N   UNK     1      77.831  69.735 109.577  0.00  0.00    +0.000 NA
ATOM     28  C   UNK     1      76.575  69.711 109.434  0.00  0.00    +0.000 A 
BRANCH  26  33
ATOM     29  S   UNK     1      80.082  72.539 108.944  0.00  0.00    +0.000 S 
ATOM     30  C   UNK     1      81.451  72.314 109.411  0.00  0.00    +0.000 A 
ATOM     31  C   UNK     1      81.538  71.168 110.105  0.00  0.00    +0.000 A 
ATOM     32  N   UNK     1      80.402  70.617 110.161  0.00  0.00    +0.000 NA
ATOM     33  C   UNK     1      79.543  71.308 109.538  0.00  0.00    +0.000 A 
BRANCH  31  37
ATOM     34  H   UNK     1      83.804  71.626 109.224  0.00  0.00    +0.000 HD
ATOM     35  N   UNK     1      83.843  71.035 110.053  0.00  0.00    +0.000 N 
ATOM     36  O   UNK     1      82.681  69.921 111.613  0.00  0.00    +0.000 OA
ATOM     37  C   UNK     1      82.675  70.664 110.660  0.00  0.00    +0.000 C 
BRANCH  35  38
ATOM     38  C   UNK     1      85.150  70.584 110.542  0.00  0.00    +0.000 C 
BRANCH  38  39
ATOM     39  C   UNK     1      86.227  70.679 109.447  0.00  0.00    +0.000 C 
BRANCH  39  40
ATOM     40  C   UNK     1      85.682  71.315 108.160  0.00  0.00    +0.000 C 
BRANCH  40  43
ATOM     41  C   UNK     1      85.035  73.575 106.668  0.00  0.00    +0.000 C 
ATOM     42  C   UNK     1      87.657  72.811 106.952  0.00  0.00    +0.000 C 
ATOM     43  S   UNK     1      86.179  73.052 107.968  0.00  0.00    +0.000 S 
ENDBRANCH  40  43
ENDBRANCH  39  40
ENDBRANCH  38  39
ENDBRANCH  35  38
ENDBRANCH  31  37
ENDBRANCH  26  33
ENDBRANCH  23  28
ENDBRANCH  22  23
ENDBRANCH  19  22
ENDBRANCH  17  21
BRANCH  17  44
ATOM     44  C   UNK     1      73.260  65.239 113.912  0.00  0.00    +0.000 C 
ATOM     45  C   UNK     1      72.959  63.759 114.136  0.00  0.00    +0.000 C 
BRANCH  44  47
ATOM     46  H   UNK     1      72.293  65.631 112.275  0.00  0.00    +0.000 HD
ATOM     47  O   UNK     1      72.189  65.835 113.213  0.00  0.00    +0.000 OA
ENDBRANCH  44  47
ENDBRANCH  17  44
ENDBRANCH  16  17
ENDBRANCH  12  15
ENDBRANCH   8  12
ENDBRANCH   7   8
ENDBRANCH   5   7
ENDBRANCH   1   4
BRANCH   1  51
ATOM     48  H   UNK     1      73.252  62.024 104.105  0.00  0.00    +0.000 HD
ATOM     49  O   UNK     1      71.885  63.732 103.519  0.00  0.00    +0.000 OA
ATOM     50  C   UNK     1      72.846  64.000 104.201  0.00  0.00    +0.000 C 
ATOM     51  N   UNK     1      73.554  62.881 104.574  0.00  0.00    +0.000 N 
BRANCH  50  61
ATOM     52  H   UNK     1      76.172  67.649 103.448  0.00  0.00    +0.000 HD
ATOM     53  H   UNK     1      75.526  68.929 104.512  0.00  0.00    +0.000 HD
ATOM     54  N   UNK     1      75.436  67.958 104.123  0.00  0.00    +0.000 N 
ATOM     55  N   UNK     1      72.459  65.898 105.356  0.00  0.00    +0.000 NA
ATOM     56  C   UNK     1      72.691  67.077 105.728  0.00  0.00    +0.000 A 
ATOM     57  N   UNK     1      73.669  67.760 105.327  0.00  0.00    +0.000 NA
ATOM     58  C   UNK     1      74.467  67.228 104.499  0.00  0.00    +0.000 A 
ATOM     59  C   UNK     1      75.242  65.359 103.047  0.00  0.00    +0.000 C 
ATOM     60  C   UNK     1      74.273  65.964 104.050  0.00  0.00    +0.000 A 
ATOM     61  C   UNK     1      73.194  65.288 104.530  0.00  0.00    +0.000 A 
BRANCH  56  62
ATOM     62  C   UNK     1      71.703  67.677 106.698  0.00  0.00    +0.000 C 
BRANCH  62  64
ATOM     63  H   UNK     1      69.757  67.032 106.480  0.00  0.00    +0.000 HD
ATOM     64  N   UNK     1      70.636  66.704 106.952  0.00  0.00    +0.000 NA
BRANCH  64  65
ATOM     65  C   UNK     1      70.372  66.475 108.373  0.00  0.00    +0.000 C 
BRANCH  65  66
ATOM     66  C   UNK     1      71.645  66.033 109.108  0.00  0.00    +0.000 C 
BRANCH  66  71
ATOM     67  H   UNK     1      71.018  64.550 107.129  0.00  0.00    +0.000 HD
ATOM     68  H   UNK     1      71.580  62.985 107.717  0.00  0.00    +0.000 HD
ATOM     69  O   UNK     1      72.425  63.859 109.839  0.00  0.00    +0.000 OA
ATOM     70  N   UNK     1      71.447  63.978 107.843  0.00  0.00    +0.000 N 
ATOM     71  C   UNK     1      71.886  64.536 109.003  0.00  0.00    +0.000 C 
ENDBRANCH  66  71
BRANCH  66  74
ATOM     72  H   UNK     1      71.020  65.658 111.046  0.00  0.00    +0.000 HD
ATOM     73  H   UNK     1      70.951  67.249 110.649  0.00  0.00    +0.000 HD
ATOM     74  N   UNK     1      71.527  66.397 110.530  0.00  0.00    +0.000 NA
ENDBRANCH  66  74
ENDBRANCH  65  66
ENDBRANCH  64  65
ENDBRANCH  62  64
BRANCH  62  75
ATOM     75  C   UNK     1      71.163  69.047 106.268  0.00  0.00    +0.000 C 
BRANCH  75  80
ATOM     76  H   UNK     1      73.561  70.132 106.162  0.00  0.00    +0.000 HD
ATOM     77  H   UNK     1      73.339  71.365 107.370  0.00  0.00    +0.000 HD
ATOM     78  O   UNK     1      71.032  70.791 107.918  0.00  0.00    +0.000 OA
ATOM     79  N   UNK     1      72.977  70.568 106.863  0.00  0.00    +0.000 N 
ATOM     80  C   UNK     1      71.686  70.208 107.097  0.00  0.00    +0.000 C 
ENDBRANCH  75  80
ENDBRANCH  62  75
ENDBRANCH  56  62
ENDBRANCH  50  61
ENDBRANCH   1  51
BRANCH   1  81
ATOM     81  C   UNK     1      75.661  61.606 104.893  0.00  0.00    +0.000 C 
BRANCH  81  87
ATOM     82  H   UNK     1      79.820  63.390 104.889  0.00  0.00    +0.000 HD
ATOM     83  N   UNK     1      77.711  61.550 103.558  0.00  0.00    +0.000 NA
ATOM     84  C   UNK     1      78.856  62.082 103.616  0.00  0.00    +0.000 A 
ATOM     85  N   UNK     1      78.972  62.840 104.624  0.00  0.00    +0.000 N 
ATOM     86  C   UNK     1      77.875  62.816 105.256  0.00  0.00    +0.000 A 
ATOM     87  C   UNK     1      77.081  61.988 104.561  0.00  0.00    +0.000 A 
ENDBRANCH  81  87
BRANCH  81  88
ATOM     88  O   UNK     1      75.083  61.016 103.744  0.00  0.00    +0.000 OA
BRANCH  88  94
ATOM     89  C   UNK     1      73.845  59.178 102.843  0.00  0.00    +0.000 C 
ATOM     90  C   UNK     1      73.646  57.678 103.048  0.00  0.00    +0.000 C 
ATOM     91  C   UNK     1      73.297  57.420 104.504  0.00  0.00    +0.000 C 
ATOM     92  C   UNK     1      74.349  58.007 105.432  0.00  0.00    +0.000 C 
ATOM     93  O   UNK     1      74.515  59.365 105.145  0.00  0.00    +0.000 OA
ATOM     94  C   UNK     1      74.926  59.613 103.821  0.00  0.00    +0.000 C 
BRANCH  90  96
ATOM     95  H   UNK     1      73.009  56.753 101.491  0.00  0.00    +0.000 HD
ATOM     96  O   UNK     1      72.601  57.121 102.281  0.00  0.00    +0.000 OA
ENDBRANCH  90  96
BRANCH  91  98
ATOM     97  H   UNK     1      73.999  55.595 104.348  0.00  0.00    +0.000 HD
ATOM     98  O   UNK     1      73.205  56.025 104.665  0.00  0.00    +0.000 OA
ENDBRANCH  91  98
BRANCH  89  99
ATOM     99  O   UNK     1      74.308  59.492 101.556  0.00  0.00    +0.000 OA
BRANCH  99 105
ATOM    100  C   UNK     1      73.733  61.481 100.336  0.00  0.00    +0.000 C 
ATOM    101  C   UNK     1      72.691  61.986  99.339  0.00  0.00    +0.000 C 
ATOM    102  C   UNK     1      71.307  61.871  99.983  0.00  0.00    +0.000 C 
ATOM    103  C   UNK     1      71.039  60.546 100.704  0.00  0.00    +0.000 C 
ATOM    104  O   UNK     1      72.140  60.147 101.478  0.00  0.00    +0.000 OA
ATOM    105  C   UNK     1      73.330  60.081 100.735  0.00  0.00    +0.000 C 
BRANCH 100 107
ATOM    106  H   UNK     1      72.942  62.740 101.634  0.00  0.00    +0.000 HD
ATOM    107  O   UNK     1      73.784  62.298 101.486  0.00  0.00    +0.000 OA
ENDBRANCH 100 107
BRANCH 102 109
ATOM    108  H   UNK     1      72.009  63.271 101.208  0.00  0.00    +0.000 HD
ATOM    109  O   UNK     1      71.165  62.943 100.893  0.00  0.00    +0.000 OA
ENDBRANCH 102 109
BRANCH 101 110
ATOM    110  O   UNK     1      72.707  61.190  98.186  0.00  0.00    +0.000 OA
BRANCH 110 115
ATOM    111  H   UNK     1      72.751  63.519  97.278  0.00  0.00    +0.000 HD
ATOM    112  H   UNK     1      71.625  63.247  95.942  0.00  0.00    +0.000 HD
ATOM    113  O   UNK     1      71.166  60.949  96.548  0.00  0.00    +0.000 OA
ATOM    114  N   UNK     1      72.172  62.908  96.718  0.00  0.00    +0.000 N 
ATOM    115  C   UNK     1      72.003  61.618  97.103  0.00  0.00    +0.000 C 
ENDBRANCH 110 115
ENDBRANCH 101 110
BRANCH 103 116
ATOM    116  C   UNK     1      70.544  59.430  99.789  0.00  0.00    +0.000 C 
BRANCH 116 118
ATOM    117  H   UNK     1      68.715  59.498  99.085  0.00  0.00    +0.000 HD
ATOM    118  O   UNK     1      69.552  59.936  98.921  0.00  0.00    +0.000 OA
ENDBRANCH 116 118
ENDBRANCH 103 116
ENDBRANCH  99 105
ENDBRANCH  89  99
BRANCH  92 119
ATOM    119  C   UNK     1      73.952  57.914 106.899  0.00  0.00    +0.000 C 
BRANCH 119 121
ATOM    120  H   UNK     1      75.540  58.943 107.402  0.00  0.00    +0.000 HD
ATOM    121  O   UNK     1      74.613  58.916 107.642  0.00  0.00    +0.000 OA
ENDBRANCH 119 121
ENDBRANCH  92 119
ENDBRANCH  88  94
ENDBRANCH  81  88
ENDBRANCH   1  81
TORSDOF 45
ENDMDL
MODEL 3
REMARK VINA RESULT:      -6.9      5.725     11.986
REMARK  Name = ./1214.pdb
REMARK  51 active torsions:
REMARK  status: ('A' for Active; 'I' for Inactive)
REMARK    1  A    between atoms: C_85  and  S_87
REMARK    2  A    between atoms: C_86  and  S_87
REMARK    3  A    between atoms: S_87  and  C_88
REMARK    4  A    between atoms: C_88  and  C_89
REMARK    5  A    between atoms: C_89  and  C_90
REMARK    6  A    between atoms: C_90  and  N_91
REMARK    7  A    between atoms: C_93  and  C_96
REMARK    8  A    between atoms: C_98  and  C_101
REMARK    9  A    between atoms: C_103  and  C_104
REMARK   10  A    between atoms: C_104  and  C_105
REMARK   11  A    between atoms: C_105  and  N_106
REMARK   12  A    between atoms: C_108  and  C_177
REMARK   13  A    between atoms: C_113  and  C_140
REMARK   14  A    between atoms: O_114  and  C_115
REMARK   15  A    between atoms: C_118  and  O_119
REMARK   16  A    between atoms: O_119  and  C_120
REMARK   17  A    between atoms: O_121  and  C_122
REMARK   18  A    between atoms: O_123  and  C_124
REMARK   19  A    between atoms: C_124  and  C_125
REMARK   20  A    between atoms: C_127  and  O_128
REMARK   21  A    between atoms: O_128  and  C_129
REMARK   22  A    between atoms: O_130  and  C_131
REMARK   23  A    between atoms: O_132  and  C_133
REMARK   24  A    between atoms: O_134  and  C_135
REMARK   25  A    between atoms: C_135  and  C_136
REMARK   26  A    between atoms: C_138  and  O_139
REMARK   27  A    between atoms: O_139  and  C_140
REMARK   28  A    between atoms: C_140  and  C_164
REMARK   29  A    between atoms: C_144  and  C_146
REMARK   30  A    between atoms: N_145  and  C_146
REMARK   31  A    between atoms: C_146  and  C_147
REMARK   32  A    between atoms: C_147  and  N_148
REMARK   33  A    between atoms: N_148  and  C_153
REMARK   34  A    between atoms: C_151  and  C_152
REMARK   35  A    between atoms: C_152  and  C_153
REMARK   36  A    between atoms: C_153  and  C_155
REMARK   37  A    between atoms: C_158  and  C_159
REMARK   38  A    between atoms: C_160  and  C_162
REMARK   39  A    between atoms: N_163  and  C_164
REMARK   40  A    between atoms: C_164  and  C_166
REMARK   41  A    between atoms: N_167  and  C_169
REMARK   42  A    between atoms: C_168  and  C_169
REMARK   43  A    between atoms: C_169  and  C_171
REMARK   44  A    between atoms: O_170  and  C_171
REMARK   45  A    between atoms: C_171  and  C_173
REMARK   46  A    between atoms: C_172  and  C_173
REMARK   47  A    between atoms: C_173  and  C_175
REMARK   48  A    between atoms: N_176  and  C_177
REMARK   49  A    between atoms: C_177  and  C_179
REMARK   50  A    between atoms: O_178  and  C_179
REMARK   51  A    between atoms: C_179  and  C_180
REMARK                            x       y       z     vdW  Elec       q    Type
REMARK                         _______ _______ _______ _____ _____    ______ ____
ROOT
ATOM      1  C   UNK     1      75.900  65.204 106.713  0.00  0.00    +0.000 C 
ENDROOT
BRANCH   1   4
ATOM      2  H   UNK     1      75.832  62.101 108.146  0.00  0.00    +0.000 HD
ATOM      3  O   UNK     1      76.215  62.986 105.925  0.00  0.00    +0.000 OA
ATOM      4  C   UNK     1      75.958  63.677 106.879  0.00  0.00    +0.000 C 
ATOM      5  N   UNK     1      75.734  63.119 108.110  0.00  0.00    +0.000 N 
BRANCH   5   7
ATOM      6  C   UNK     1      73.743  64.226 109.028  0.00  0.00    +0.000 C 
ATOM      7  C   UNK     1      75.190  63.784 109.305  0.00  0.00    +0.000 C 
BRANCH   7   8
ATOM      8  C   UNK     1      75.251  62.820 110.503  0.00  0.00    +0.000 C 
BRANCH   8  10
ATOM      9  H   UNK     1      76.792  61.777 111.133  0.00  0.00    +0.000 HD
ATOM     10  O   UNK     1      76.339  61.948 110.305  0.00  0.00    +0.000 OA
ENDBRANCH   8  10
BRANCH   8  12
ATOM     11  C   UNK     1      74.229  63.102 112.799  0.00  0.00    +0.000 C 
ATOM     12  C   UNK     1      75.406  63.482 111.882  0.00  0.00    +0.000 C 
BRANCH  12  15
ATOM     13  H   UNK     1      75.705  62.021 113.914  0.00  0.00    +0.000 HD
ATOM     14  O   UNK     1      77.802  63.494 112.102  0.00  0.00    +0.000 OA
ATOM     15  C   UNK     1      76.741  63.110 112.520  0.00  0.00    +0.000 C 
ATOM     16  N   UNK     1      76.632  62.341 113.642  0.00  0.00    +0.000 N 
BRANCH  16  17
ATOM     17  C   UNK     1      77.764  61.940 114.488  0.00  0.00    +0.000 C 
BRANCH  17  21
ATOM     18  H   UNK     1      75.820  61.305 115.974  0.00  0.00    +0.000 HD
ATOM     19  N   UNK     1      76.387  61.983 116.485  0.00  0.00    +0.000 N 
ATOM     20  O   UNK     1      78.330  63.149 116.480  0.00  0.00    +0.000 OA
ATOM     21  C   UNK     1      77.549  62.423 115.916  0.00  0.00    +0.000 C 
BRANCH  19  22
ATOM     22  C   UNK     1      75.978  62.384 117.833  0.00  0.00    +0.000 C 
BRANCH  22  23
ATOM     23  C   UNK     1      74.465  62.653 117.895  0.00  0.00    +0.000 C 
BRANCH  23  28
ATOM     24  S   UNK     1      73.183  64.952 118.046  0.00  0.00    +0.000 S 
ATOM     25  C   UNK     1      73.320  65.972 117.003  0.00  0.00    +0.000 A 
ATOM     26  C   UNK     1      74.104  65.562 115.990  0.00  0.00    +0.000 A 
ATOM     27  N   UNK     1      74.512  64.389 116.235  0.00  0.00    +0.000 NA
ATOM     28  C   UNK     1      74.058  64.003 117.350  0.00  0.00    +0.000 A 
BRANCH  26  33
ATOM     29  S   UNK     1      75.462  67.321 114.870  0.00  0.00    +0.000 S 
ATOM     30  C   UNK     1      75.241  67.686 113.470  0.00  0.00    +0.000 A 
ATOM     31  C   UNK     1      74.254  66.950 112.934  0.00  0.00    +0.000 A 
ATOM     32  N   UNK     1      73.807  66.143 113.798  0.00  0.00    +0.000 NA
ATOM     33  C   UNK     1      74.417  66.289 114.898  0.00  0.00    +0.000 A 
BRANCH  31  37
ATOM     34  H   UNK     1      75.482  68.121 111.134  0.00  0.00    +0.000 HD
ATOM     35  N   UNK     1      74.611  67.723 110.787  0.00  0.00    +0.000 N 
ATOM     36  O   UNK     1      72.727  66.616 111.293  0.00  0.00    +0.000 OA
ATOM     37  C   UNK     1      73.793  67.056 111.657  0.00  0.00    +0.000 C 
BRANCH  35  38
ATOM     38  C   UNK     1      74.258  67.907 109.376  0.00  0.00    +0.000 C 
BRANCH  38  39
ATOM     39  C   UNK     1      74.085  69.396 109.025  0.00  0.00    +0.000 C 
BRANCH  39  40
ATOM     40  C   UNK     1      74.828  70.307 110.014  0.00  0.00    +0.000 C 
BRANCH  40  43
ATOM     41  C   UNK     1      73.200  71.964 108.477  0.00  0.00    +0.000 C 
ATOM     42  C   UNK     1      75.904  72.422 108.613  0.00  0.00    +0.000 C 
ATOM     43  S   UNK     1      74.513  72.071 109.717  0.00  0.00    +0.000 S 
ENDBRANCH  40  43
ENDBRANCH  39  40
ENDBRANCH  38  39
ENDBRANCH  35  38
ENDBRANCH  31  37
ENDBRANCH  26  33
ENDBRANCH  23  28
ENDBRANCH  22  23
ENDBRANCH  19  22
ENDBRANCH  17  21
BRANCH  17  44
ATOM     44  C   UNK     1      78.124  60.448 114.423  0.00  0.00    +0.000 C 
ATOM     45  C   UNK     1      79.262  60.077 115.371  0.00  0.00    +0.000 C 
BRANCH  44  47
ATOM     46  H   UNK     1      78.802  60.927 112.668  0.00  0.00    +0.000 HD
ATOM     47  O   UNK     1      78.491  60.122 113.100  0.00  0.00    +0.000 OA
ENDBRANCH  44  47
ENDBRANCH  17  44
ENDBRANCH  16  17
ENDBRANCH  12  15
ENDBRANCH   8  12
ENDBRANCH   7   8
ENDBRANCH   5   7
ENDBRANCH   1   4
BRANCH   1  51
ATOM     48  H   UNK     1      76.196  65.784 104.694  0.00  0.00    +0.000 HD
ATOM     49  O   UNK     1      74.259  65.521 103.548  0.00  0.00    +0.000 OA
ATOM     50  C   UNK     1      74.232  65.315 104.738  0.00  0.00    +0.000 C 
ATOM     51  N   UNK     1      75.476  65.413 105.318  0.00  0.00    +0.000 N 
BRANCH  50  61
ATOM     52  H   UNK     1      70.491  67.311 107.377  0.00  0.00    +0.000 HD
ATOM     53  H   UNK     1      69.537  65.856 107.778  0.00  0.00    +0.000 HD
ATOM     54  N   UNK     1      70.374  66.275 107.302  0.00  0.00    +0.000 N 
ATOM     55  N   UNK     1      72.704  63.839 105.496  0.00  0.00    +0.000 NA
ATOM     56  C   UNK     1      71.661  63.484 106.103  0.00  0.00    +0.000 A 
ATOM     57  N   UNK     1      70.891  64.280 106.700  0.00  0.00    +0.000 NA
ATOM     58  C   UNK     1      71.183  65.513 106.688  0.00  0.00    +0.000 A 
ATOM     59  C   UNK     1      72.602  67.454 106.039  0.00  0.00    +0.000 C 
ATOM     60  C   UNK     1      72.288  65.966 106.046  0.00  0.00    +0.000 A 
ATOM     61  C   UNK     1      73.072  65.045 105.424  0.00  0.00    +0.000 A 
BRANCH  56  62
ATOM     62  C   UNK     1      71.343  62.009 106.073  0.00  0.00    +0.000 C 
BRANCH  62  64
ATOM     63  H   UNK     1      72.613  61.334 104.597  0.00  0.00    +0.000 HD
ATOM     64  N   UNK     1      72.535  61.274 105.642  0.00  0.00    +0.000 NA
BRANCH  64  65
ATOM     65  C   UNK     1      72.543  59.869 106.054  0.00  0.00    +0.000 C 
BRANCH  65  66
ATOM     66  C   UNK     1      73.862  59.504 106.748  0.00  0.00    +0.000 C 
BRANCH  66  71
ATOM     67  H   UNK     1      75.807  59.180 108.368  0.00  0.00    +0.000 HD
ATOM     68  H   UNK     1      75.169  60.000 109.793  0.00  0.00    +0.000 HD
ATOM     69  O   UNK     1      73.062  60.644 108.731  0.00  0.00    +0.000 OA
ATOM     70  N   UNK     1      75.072  59.691 108.836  0.00  0.00    +0.000 N 
ATOM     71  C   UNK     1      73.924  60.007 108.181  0.00  0.00    +0.000 C 
ENDBRANCH  66  71
BRANCH  66  74
ATOM     72  H   UNK     1      74.826  59.966 104.974  0.00  0.00    +0.000 HD
ATOM     73  H   UNK     1      75.866  59.592 106.187  0.00  0.00    +0.000 HD
ATOM     74  N   UNK     1      74.980  60.090 105.990  0.00  0.00    +0.000 NA
ENDBRANCH  66  74
ENDBRANCH  65  66
ENDBRANCH  64  65
ENDBRANCH  62  64
BRANCH  62  75
ATOM     75  C   UNK     1      70.101  61.658 105.243  0.00  0.00    +0.000 C 
BRANCH  75  80
ATOM     76  H   UNK     1      69.271  63.551 103.609  0.00  0.00    +0.000 HD
ATOM     77  H   UNK     1      69.927  62.917 102.127  0.00  0.00    +0.000 HD
ATOM     78  O   UNK     1      70.924  60.918 103.108  0.00  0.00    +0.000 OA
ATOM     79  N   UNK     1      69.764  62.816 103.120  0.00  0.00    +0.000 N 
ATOM     80  C   UNK     1      70.316  61.738 103.740  0.00  0.00    +0.000 C 
ENDBRANCH  75  80
ENDBRANCH  62  75
ENDBRANCH  56  62
ENDBRANCH  50  61
ENDBRANCH   1  51
BRANCH   1  81
ATOM     81  C   UNK     1      77.316  65.799 106.940  0.00  0.00    +0.000 C 
BRANCH  81  87
ATOM     82  H   UNK     1      77.120  70.312 106.670  0.00  0.00    +0.000 HD
ATOM     83  N   UNK     1      77.724  67.769 108.334  0.00  0.00    +0.000 NA
ATOM     84  C   UNK     1      77.647  69.022 108.191  0.00  0.00    +0.000 A 
ATOM     85  N   UNK     1      77.261  69.341 107.029  0.00  0.00    +0.000 N 
ATOM     86  C   UNK     1      77.075  68.273 106.375  0.00  0.00    +0.000 A 
ATOM     87  C   UNK     1      77.377  67.278 107.222  0.00  0.00    +0.000 A 
ENDBRANCH  81  87
BRANCH  81  88
ATOM     88  O   UNK     1      78.143  65.528 105.825  0.00  0.00    +0.000 OA
BRANCH  88  94
ATOM     89  C   UNK     1      79.524  63.671 105.220  0.00  0.00    +0.000 C 
ATOM     90  C   UNK     1      80.787  62.944 105.676  0.00  0.00    +0.000 C 
ATOM     91  C   UNK     1      80.645  62.580 107.144  0.00  0.00    +0.000 C 
ATOM     92  C   UNK     1      80.335  63.807 107.986  0.00  0.00    +0.000 C 
ATOM     93  O   UNK     1      79.203  64.448 107.474  0.00  0.00    +0.000 OA
ATOM     94  C   UNK     1      79.355  64.871 106.139  0.00  0.00    +0.000 C 
BRANCH  90  96
ATOM     95  H   UNK     1      81.136  61.056 105.659  0.00  0.00    +0.000 HD
ATOM     96  O   UNK     1      81.045  61.740 104.988  0.00  0.00    +0.000 OA
ENDBRANCH  90  96
BRANCH  91  98
ATOM     97  H   UNK     1      81.712  61.345 108.233  0.00  0.00    +0.000 HD
ATOM     98  O   UNK     1      81.860  61.990 107.542  0.00  0.00    +0.000 OA
ENDBRANCH  91  98
BRANCH  89  99
ATOM     99  O   UNK     1      79.627  64.168 103.913  0.00  0.00    +0.000 OA
BRANCH  99 105
ATOM    100  C   UNK     1      78.327  62.325 103.085  0.00  0.00    +0.000 C 
ATOM    101  C   UNK     1      77.051  62.052 102.290  0.00  0.00    +0.000 C 
ATOM    102  C   UNK     1      77.195  62.691 100.906  0.00  0.00    +0.000 C 
ATOM    103  C   UNK     1      77.758  64.115 100.909  0.00  0.00    +0.000 C 
ATOM    104  O   UNK     1      78.846  64.239 101.787  0.00  0.00    +0.000 OA
ATOM    105  C   UNK     1      78.540  63.820 103.091  0.00  0.00    +0.000 C 
BRANCH 100 107
ATOM    106  H   UNK     1      80.233  62.241 102.578  0.00  0.00    +0.000 HD
ATOM    107  O   UNK     1      79.444  61.695 102.495  0.00  0.00    +0.000 OA
ENDBRANCH 100 107
BRANCH 102 109
ATOM    108  H   UNK     1      78.405  61.135 100.641  0.00  0.00    +0.000 HD
ATOM    109  O   UNK     1      78.027  61.852 100.130  0.00  0.00    +0.000 OA
ENDBRANCH 102 109
BRANCH 101 110
ATOM    110  O   UNK     1      75.952  62.638 102.932  0.00  0.00    +0.000 OA
BRANCH 110 115
ATOM    111  H   UNK     1      73.705  63.667 102.553  0.00  0.00    +0.000 HD
ATOM    112  H   UNK     1      72.761  62.180 102.710  0.00  0.00    +0.000 HD
ATOM    113  O   UNK     1      74.674  60.802 103.263  0.00  0.00    +0.000 OA
ATOM    114  N   UNK     1      73.644  62.665 102.672  0.00  0.00    +0.000 N 
ATOM    115  C   UNK     1      74.773  61.959 102.934  0.00  0.00    +0.000 C 
ENDBRANCH 110 115
ENDBRANCH 101 110
BRANCH 103 116
ATOM    116  C   UNK     1      76.708  65.198 101.137  0.00  0.00    +0.000 C 
BRANCH 116 118
ATOM    117  H   UNK     1      75.109  64.950 100.026  0.00  0.00    +0.000 HD
ATOM    118  O   UNK     1      75.422  64.669 100.888  0.00  0.00    +0.000 OA
ENDBRANCH 116 118
ENDBRANCH 103 116
ENDBRANCH  99 105
ENDBRANCH  89  99
BRANCH  92 119
ATOM    119  C   UNK     1      80.024  63.459 109.436  0.00  0.00    +0.000 C 
BRANCH 119 121
ATOM    120  H   UNK     1      78.446  62.384 108.999  0.00  0.00    +0.000 HD
ATOM    121  O   UNK     1      78.659  63.125 109.569  0.00  0.00    +0.000 OA
ENDBRANCH 119 121
ENDBRANCH  92 119
ENDBRANCH  88  94
ENDBRANCH  81  88
ENDBRANCH   1  81
TORSDOF 45
ENDMDL
MODEL 4
REMARK VINA RESULT:      -6.9      5.016     11.269
REMARK  Name = ./1214.pdb
REMARK  51 active torsions:
REMARK  status: ('A' for Active; 'I' for Inactive)
REMARK    1  A    between atoms: C_85  and  S_87
REMARK    2  A    between atoms: C_86  and  S_87
REMARK    3  A    between atoms: S_87  and  C_88
REMARK    4  A    between atoms: C_88  and  C_89
REMARK    5  A    between atoms: C_89  and  C_90
REMARK    6  A    between atoms: C_90  and  N_91
REMARK    7  A    between atoms: C_93  and  C_96
REMARK    8  A    between atoms: C_98  and  C_101
REMARK    9  A    between atoms: C_103  and  C_104
REMARK   10  A    between atoms: C_104  and  C_105
REMARK   11  A    between atoms: C_105  and  N_106
REMARK   12  A    between atoms: C_108  and  C_177
REMARK   13  A    between atoms: C_113  and  C_140
REMARK   14  A    between atoms: O_114  and  C_115
REMARK   15  A    between atoms: C_118  and  O_119
REMARK   16  A    between atoms: O_119  and  C_120
REMARK   17  A    between atoms: O_121  and  C_122
REMARK   18  A    between atoms: O_123  and  C_124
REMARK   19  A    between atoms: C_124  and  C_125
REMARK   20  A    between atoms: C_127  and  O_128
REMARK   21  A    between atoms: O_128  and  C_129
REMARK   22  A    between atoms: O_130  and  C_131
REMARK   23  A    between atoms: O_132  and  C_133
REMARK   24  A    between atoms: O_134  and  C_135
REMARK   25  A    between atoms: C_135  and  C_136
REMARK   26  A    between atoms: C_138  and  O_139
REMARK   27  A    between atoms: O_139  and  C_140
REMARK   28  A    between atoms: C_140  and  C_164
REMARK   29  A    between atoms: C_144  and  C_146
REMARK   30  A    between atoms: N_145  and  C_146
REMARK   31  A    between atoms: C_146  and  C_147
REMARK   32  A    between atoms: C_147  and  N_148
REMARK   33  A    between atoms: N_148  and  C_153
REMARK   34  A    between atoms: C_151  and  C_152
REMARK   35  A    between atoms: C_152  and  C_153
REMARK   36  A    between atoms: C_153  and  C_155
REMARK   37  A    between atoms: C_158  and  C_159
REMARK   38  A    between atoms: C_160  and  C_162
REMARK   39  A    between atoms: N_163  and  C_164
REMARK   40  A    between atoms: C_164  and  C_166
REMARK   41  A    between atoms: N_167  and  C_169
REMARK   42  A    between atoms: C_168  and  C_169
REMARK   43  A    between atoms: C_169  and  C_171
REMARK   44  A    between atoms: O_170  and  C_171
REMARK   45  A    between atoms: C_171  and  C_173
REMARK   46  A    between atoms: C_172  and  C_173
REMARK   47  A    between atoms: C_173  and  C_175
REMARK   48  A    between atoms: N_176  and  C_177
REMARK   49  A    between atoms: C_177  and  C_179
REMARK   50  A    between atoms: O_178  and  C_179
REMARK   51  A    between atoms: C_179  and  C_180
REMARK                            x       y       z     vdW  Elec       q    Type
REMARK                         _______ _______ _______ _____ _____    ______ ____
ROOT
ATOM      1  C   UNK     1      73.883  59.231 103.629  0.00  0.00    +0.000 C 
ENDROOT
BRANCH   1   4
ATOM      2  H   UNK     1      76.755  59.867 105.371  0.00  0.00    +0.000 HD
ATOM      3  O   UNK     1      75.564  57.890 104.638  0.00  0.00    +0.000 OA
ATOM      4  C   UNK     1      75.177  59.013 104.430  0.00  0.00    +0.000 C 
ATOM      5  N   UNK     1      75.884  60.094 104.884  0.00  0.00    +0.000 N 
BRANCH   5   7
ATOM      6  C   UNK     1      75.830  62.120 106.272  0.00  0.00    +0.000 C 
ATOM      7  C   UNK     1      75.443  61.498 104.919  0.00  0.00    +0.000 C 
BRANCH   7   8
ATOM      8  C   UNK     1      76.088  62.270 103.755  0.00  0.00    +0.000 C 
BRANCH   8  10
ATOM      9  H   UNK     1      74.606  63.556 103.864  0.00  0.00    +0.000 HD
ATOM     10  O   UNK     1      75.558  63.575 103.752  0.00  0.00    +0.000 OA
ENDBRANCH   8  10
BRANCH   8  12
ATOM     11  C   UNK     1      78.241  61.638 102.588  0.00  0.00    +0.000 C 
ATOM     12  C   UNK     1      77.622  62.371 103.793  0.00  0.00    +0.000 C 
BRANCH  12  15
ATOM     13  H   UNK     1      77.856  63.767 105.879  0.00  0.00    +0.000 HD
ATOM     14  O   UNK     1      78.363  64.461 102.860  0.00  0.00    +0.000 OA
ATOM     15  C   UNK     1      78.073  63.827 103.841  0.00  0.00    +0.000 C 
ATOM     16  N   UNK     1      78.075  64.373 105.092  0.00  0.00    +0.000 N 
BRANCH  16  17
ATOM     17  C   UNK     1      78.373  65.782 105.383  0.00  0.00    +0.000 C 
BRANCH  17  21
ATOM     18  H   UNK     1      76.170  65.042 106.379  0.00  0.00    +0.000 HD
ATOM     19  N   UNK     1      76.017  65.950 105.938  0.00  0.00    +0.000 N 
ATOM     20  O   UNK     1      77.024  67.713 104.932  0.00  0.00    +0.000 OA
ATOM     21  C   UNK     1      77.087  66.598 105.391  0.00  0.00    +0.000 C 
BRANCH  19  22
ATOM     22  C   UNK     1      74.682  66.550 105.987  0.00  0.00    +0.000 C 
BRANCH  22  23
ATOM     23  C   UNK     1      74.553  67.519 107.174  0.00  0.00    +0.000 C 
BRANCH  23  28
ATOM     24  S   UNK     1      73.650  67.252 109.637  0.00  0.00    +0.000 S 
ATOM     25  C   UNK     1      74.081  66.142 110.491  0.00  0.00    +0.000 A 
ATOM     26  C   UNK     1      74.994  65.360 109.888  0.00  0.00    +0.000 A 
ATOM     27  N   UNK     1      75.221  65.814 108.728  0.00  0.00    +0.000 NA
ATOM     28  C   UNK     1      74.509  66.837 108.522  0.00  0.00    +0.000 A 
BRANCH  26  33
ATOM     29  S   UNK     1      76.762  63.609 109.884  0.00  0.00    +0.000 S 
ATOM     30  C   UNK     1      76.786  62.541 110.886  0.00  0.00    +0.000 A 
ATOM     31  C   UNK     1      75.766  62.672 111.750  0.00  0.00    +0.000 A 
ATOM     32  N   UNK     1      75.082  63.691 111.449  0.00  0.00    +0.000 NA
ATOM     33  C   UNK     1      75.562  64.262 110.426  0.00  0.00    +0.000 A 
BRANCH  31  37
ATOM     34  H   UNK     1      77.383  62.173 113.554  0.00  0.00    +0.000 HD
ATOM     35  N   UNK     1      76.501  61.687 113.705  0.00  0.00    +0.000 N 
ATOM     36  O   UNK     1      74.456  61.229 112.907  0.00  0.00    +0.000 OA
ATOM     37  C   UNK     1      75.497  61.833 112.787  0.00  0.00    +0.000 C 
BRANCH  35  38
ATOM     38  C   UNK     1      76.356  60.828 114.885  0.00  0.00    +0.000 C 
BRANCH  38  39
ATOM     39  C   UNK     1      77.404  59.700 114.895  0.00  0.00    +0.000 C 
BRANCH  39  40
ATOM     40  C   UNK     1      78.833  60.244 114.747  0.00  0.00    +0.000 C 
BRANCH  40  43
ATOM     41  C   UNK     1      81.028  58.809 115.683  0.00  0.00    +0.000 C 
ATOM     42  C   UNK     1      78.721  58.931 117.167  0.00  0.00    +0.000 C 
ATOM     43  S   UNK     1      79.826  60.035 116.253  0.00  0.00    +0.000 S 
ENDBRANCH  40  43
ENDBRANCH  39  40
ENDBRANCH  38  39
ENDBRANCH  35  38
ENDBRANCH  31  37
ENDBRANCH  26  33
ENDBRANCH  23  28
ENDBRANCH  22  23
ENDBRANCH  19  22
ENDBRANCH  17  21
BRANCH  17  44
ATOM     44  C   UNK     1      79.223  66.018 106.640  0.00  0.00    +0.000 C 
ATOM     45  C   UNK     1      79.560  64.722 107.374  0.00  0.00    +0.000 C 
BRANCH  44  47
ATOM     46  H   UNK     1      77.922  66.348 108.043  0.00  0.00    +0.000 HD
ATOM     47  O   UNK     1      78.526  66.881 107.511  0.00  0.00    +0.000 OA
ENDBRANCH  44  47
ENDBRANCH  17  44
ENDBRANCH  16  17
ENDBRANCH  12  15
ENDBRANCH   8  12
ENDBRANCH   7   8
ENDBRANCH   5   7
ENDBRANCH   1   4
BRANCH   1  51
ATOM     48  H   UNK     1      72.517  57.611 103.746  0.00  0.00    +0.000 HD
ATOM     49  O   UNK     1      71.503  57.630 105.771  0.00  0.00    +0.000 OA
ATOM     50  C   UNK     1      72.250  58.545 105.516  0.00  0.00    +0.000 C 
ATOM     51  N   UNK     1      72.880  58.387 104.303  0.00  0.00    +0.000 N 
BRANCH  50  61
ATOM     52  H   UNK     1      74.559  60.250 109.604  0.00  0.00    +0.000 HD
ATOM     53  H   UNK     1      73.917  61.914 109.693  0.00  0.00    +0.000 HD
ATOM     54  N   UNK     1      73.945  60.991 109.194  0.00  0.00    +0.000 N 
ATOM     55  N   UNK     1      71.759  60.676 106.072  0.00  0.00    +0.000 NA
ATOM     56  C   UNK     1      71.833  61.721 106.766  0.00  0.00    +0.000 A 
ATOM     57  N   UNK     1      72.549  61.831 107.795  0.00  0.00    +0.000 NA
ATOM     58  C   UNK     1      73.238  60.829 108.151  0.00  0.00    +0.000 A 
ATOM     59  C   UNK     1      74.061  58.493 107.890  0.00  0.00    +0.000 C 
ATOM     60  C   UNK     1      73.213  59.673 107.444  0.00  0.00    +0.000 A 
ATOM     61  C   UNK     1      72.413  59.630 106.344  0.00  0.00    +0.000 A 
BRANCH  56  62
ATOM     62  C   UNK     1      71.011  62.895 106.293  0.00  0.00    +0.000 C 
BRANCH  62  64
ATOM     63  H   UNK     1      70.404  61.636 104.778  0.00  0.00    +0.000 HD
ATOM     64  N   UNK     1      70.601  62.660 104.906  0.00  0.00    +0.000 NA
BRANCH  64  65
ATOM     65  C   UNK     1      71.588  63.097 103.917  0.00  0.00    +0.000 C 
BRANCH  65  66
ATOM     66  C   UNK     1      71.535  62.220 102.658  0.00  0.00    +0.000 C 
BRANCH  66  71
ATOM     67  H   UNK     1      69.070  62.789 102.988  0.00  0.00    +0.000 HD
ATOM     68  H   UNK     1      68.658  63.358 101.371  0.00  0.00    +0.000 HD
ATOM     69  O   UNK     1      70.910  63.046 100.468  0.00  0.00    +0.000 OA
ATOM     70  N   UNK     1      69.326  62.986 102.031  0.00  0.00    +0.000 N 
ATOM     71  C   UNK     1      70.599  62.780 101.600  0.00  0.00    +0.000 C 
ENDBRANCH  66  71
BRANCH  66  74
ATOM     72  H   UNK     1      71.515  60.163 102.419  0.00  0.00    +0.000 HD
ATOM     73  H   UNK     1      70.060  60.767 102.877  0.00  0.00    +0.000 HD
ATOM     74  N   UNK     1      71.077  60.872 103.033  0.00  0.00    +0.000 NA
ENDBRANCH  66  74
ENDBRANCH  65  66
ENDBRANCH  64  65
ENDBRANCH  62  64
BRANCH  62  75
ATOM     75  C   UNK     1      71.701  64.252 106.482  0.00  0.00    +0.000 C 
BRANCH  75  80
ATOM     76  H   UNK     1      70.276  66.455 106.239  0.00  0.00    +0.000 HD
ATOM     77  H   UNK     1      69.992  66.765 107.928  0.00  0.00    +0.000 HD
ATOM     78  O   UNK     1      71.229  64.837 108.766  0.00  0.00    +0.000 OA
ATOM     79  N   UNK     1      70.430  66.207 107.207  0.00  0.00    +0.000 N 
ATOM     80  C   UNK     1      71.113  65.098 107.600  0.00  0.00    +0.000 C 
ENDBRANCH  75  80
ENDBRANCH  62  75
ENDBRANCH  56  62
ENDBRANCH  50  61
ENDBRANCH   1  51
BRANCH   1  81
ATOM     81  C   UNK     1      74.096  58.751 102.169  0.00  0.00    +0.000 C 
BRANCH  81  87
ATOM     82  H   UNK     1      76.736  60.931  99.210  0.00  0.00    +0.000 HD
ATOM     83  N   UNK     1      74.174  60.873 100.952  0.00  0.00    +0.000 NA
ATOM     84  C   UNK     1      74.955  61.426 100.126  0.00  0.00    +0.000 A 
ATOM     85  N   UNK     1      75.954  60.696  99.861  0.00  0.00    +0.000 N 
ATOM     86  C   UNK     1      75.840  59.626 100.528  0.00  0.00    +0.000 A 
ATOM     87  C   UNK     1      74.699  59.755 101.220  0.00  0.00    +0.000 A 
ENDBRANCH  81  87
BRANCH  81  88
ATOM     88  O   UNK     1      72.871  58.305 101.619  0.00  0.00    +0.000 OA
BRANCH  88  94
ATOM     89  C   UNK     1      71.763  56.746 100.182  0.00  0.00    +0.000 C 
ATOM     90  C   UNK     1      71.742  55.254  99.856  0.00  0.00    +0.000 C 
ATOM     91  C   UNK     1      71.549  54.469 101.141  0.00  0.00    +0.000 C 
ATOM     92  C   UNK     1      72.607  54.832 102.170  0.00  0.00    +0.000 C 
ATOM     93  O   UNK     1      72.603  56.215 102.373  0.00  0.00    +0.000 OA
ATOM     94  C   UNK     1      72.871  56.953 101.203  0.00  0.00    +0.000 C 
BRANCH  90  96
ATOM     95  H   UNK     1      70.132  54.274  99.491  0.00  0.00    +0.000 HD
ATOM     96  O   UNK     1      70.701  54.865  98.987  0.00  0.00    +0.000 OA
ENDBRANCH  90  96
BRANCH  91  98
ATOM     97  H   UNK     1      72.041  52.605 101.505  0.00  0.00    +0.000 HD
ATOM     98  O   UNK     1      71.620  53.104 100.805  0.00  0.00    +0.000 OA
ENDBRANCH  91  98
BRANCH  89  99
ATOM     99  O   UNK     1      72.079  57.539  99.070  0.00  0.00    +0.000 OA
BRANCH  99 105
ATOM    100  C   UNK     1      71.276  59.753  98.588  0.00  0.00    +0.000 C 
ATOM    101  C   UNK     1      70.102  60.452  97.905  0.00  0.00    +0.000 C 
ATOM    102  C   UNK     1      68.810  60.040  98.616  0.00  0.00    +0.000 C 
ATOM    103  C   UNK     1      68.689  58.543  98.915  0.00  0.00    +0.000 C 
ATOM    104  O   UNK     1      69.890  58.016  99.415  0.00  0.00    +0.000 OA
ATOM    105  C   UNK     1      70.985  58.271  98.573  0.00  0.00    +0.000 C 
BRANCH 100 107
ATOM    106  H   UNK     1      71.952  59.561 100.432  0.00  0.00    +0.000 HD
ATOM    107  O   UNK     1      71.427  60.186  99.922  0.00  0.00    +0.000 OA
ENDBRANCH 100 107
BRANCH 102 109
ATOM    108  H   UNK     1      69.536  61.258 100.011  0.00  0.00    +0.000 HD
ATOM    109  O   UNK     1      68.731  60.773  99.822  0.00  0.00    +0.000 OA
ENDBRANCH 102 109
BRANCH 101 110
ATOM    110  O   UNK     1      70.015  60.046  96.566  0.00  0.00    +0.000 OA
BRANCH 110 115
ATOM    111  H   UNK     1      71.686  59.490  94.793  0.00  0.00    +0.000 HD
ATOM    112  H   UNK     1      71.690  61.071  94.001  0.00  0.00    +0.000 HD
ATOM    113  O   UNK     1      70.175  62.083  95.596  0.00  0.00    +0.000 OA
ATOM    114  N   UNK     1      71.332  60.431  94.692  0.00  0.00    +0.000 N 
ATOM    115  C   UNK     1      70.448  60.908  95.607  0.00  0.00    +0.000 C 
ENDBRANCH 110 115
ENDBRANCH 101 110
BRANCH 103 116
ATOM    116  C   UNK     1      68.138  57.721  97.754  0.00  0.00    +0.000 C 
BRANCH 116 118
ATOM    117  H   UNK     1      68.112  59.234  96.506  0.00  0.00    +0.000 HD
ATOM    118  O   UNK     1      67.496  58.575  96.832  0.00  0.00    +0.000 OA
ENDBRANCH 116 118
ENDBRANCH 103 116
ENDBRANCH  99 105
ENDBRANCH  89  99
BRANCH  92 119
ATOM    119  C   UNK     1      72.349  54.189 103.527  0.00  0.00    +0.000 C 
BRANCH 119 121
ATOM    120  H   UNK     1      72.891  55.830 104.448  0.00  0.00    +0.000 HD
ATOM    121  O   UNK     1      72.182  55.188 104.510  0.00  0.00    +0.000 OA
ENDBRANCH 119 121
ENDBRANCH  92 119
ENDBRANCH  88  94
ENDBRANCH  81  88
ENDBRANCH   1  81
TORSDOF 45
ENDMDL
MODEL 5
REMARK VINA RESULT:      -6.9      5.261     10.245
REMARK  Name = ./1214.pdb
REMARK  51 active torsions:
REMARK  status: ('A' for Active; 'I' for Inactive)
REMARK    1  A    between atoms: C_85  and  S_87
REMARK    2  A    between atoms: C_86  and  S_87
REMARK    3  A    between atoms: S_87  and  C_88
REMARK    4  A    between atoms: C_88  and  C_89
REMARK    5  A    between atoms: C_89  and  C_90
REMARK    6  A    between atoms: C_90  and  N_91
REMARK    7  A    between atoms: C_93  and  C_96
REMARK    8  A    between atoms: C_98  and  C_101
REMARK    9  A    between atoms: C_103  and  C_104
REMARK   10  A    between atoms: C_104  and  C_105
REMARK   11  A    between atoms: C_105  and  N_106
REMARK   12  A    between atoms: C_108  and  C_177
REMARK   13  A    between atoms: C_113  and  C_140
REMARK   14  A    between atoms: O_114  and  C_115
REMARK   15  A    between atoms: C_118  and  O_119
REMARK   16  A    between atoms: O_119  and  C_120
REMARK   17  A    between atoms: O_121  and  C_122
REMARK   18  A    between atoms: O_123  and  C_124
REMARK   19  A    between atoms: C_124  and  C_125
REMARK   20  A    between atoms: C_127  and  O_128
REMARK   21  A    between atoms: O_128  and  C_129
REMARK   22  A    between atoms: O_130  and  C_131
REMARK   23  A    between atoms: O_132  and  C_133
REMARK   24  A    between atoms: O_134  and  C_135
REMARK   25  A    between atoms: C_135  and  C_136
REMARK   26  A    between atoms: C_138  and  O_139
REMARK   27  A    between atoms: O_139  and  C_140
REMARK   28  A    between atoms: C_140  and  C_164
REMARK   29  A    between atoms: C_144  and  C_146
REMARK   30  A    between atoms: N_145  and  C_146
REMARK   31  A    between atoms: C_146  and  C_147
REMARK   32  A    between atoms: C_147  and  N_148
REMARK   33  A    between atoms: N_148  and  C_153
REMARK   34  A    between atoms: C_151  and  C_152
REMARK   35  A    between atoms: C_152  and  C_153
REMARK   36  A    between atoms: C_153  and  C_155
REMARK   37  A    between atoms: C_158  and  C_159
REMARK   38  A    between atoms: C_160  and  C_162
REMARK   39  A    between atoms: N_163  and  C_164
REMARK   40  A    between atoms: C_164  and  C_166
REMARK   41  A    between atoms: N_167  and  C_169
REMARK   42  A    between atoms: C_168  and  C_169
REMARK   43  A    between atoms: C_169  and  C_171
REMARK   44  A    between atoms: O_170  and  C_171
REMARK   45  A    between atoms: C_171  and  C_173
REMARK   46  A    between atoms: C_172  and  C_173
REMARK   47  A    between atoms: C_173  and  C_175
REMARK   48  A    between atoms: N_176  and  C_177
REMARK   49  A    between atoms: C_177  and  C_179
REMARK   50  A    between atoms: O_178  and  C_179
REMARK   51  A    between atoms: C_179  and  C_180
REMARK                            x       y       z     vdW  Elec       q    Type
REMARK                         _______ _______ _______ _____ _____    ______ ____
ROOT
ATOM      1  C   UNK     1      73.052  62.411 106.165  0.00  0.00    +0.000 C 
ENDROOT
BRANCH   1   4
ATOM      2  H   UNK     1      72.011  64.090 108.955  0.00  0.00    +0.000 HD
ATOM      3  O   UNK     1      72.869  61.878 108.472  0.00  0.00    +0.000 OA
ATOM      4  C   UNK     1      72.691  62.718 107.627  0.00  0.00    +0.000 C 
ATOM      5  N   UNK     1      72.187  63.949 107.956  0.00  0.00    +0.000 N 
BRANCH   5   7
ATOM      6  C   UNK     1      70.188  64.802 106.811  0.00  0.00    +0.000 C 
ATOM      7  C   UNK     1      71.699  64.989 107.036  0.00  0.00    +0.000 C 
BRANCH   7   8
ATOM      8  C   UNK     1      71.998  66.379 107.624  0.00  0.00    +0.000 C 
BRANCH   8  10
ATOM      9  H   UNK     1      72.048  67.459 105.984  0.00  0.00    +0.000 HD
ATOM     10  O   UNK     1      72.666  67.133 106.641  0.00  0.00    +0.000 OA
ENDBRANCH   8  10
BRANCH   8  12
ATOM     11  C   UNK     1      70.645  67.114 109.631  0.00  0.00    +0.000 C 
ATOM     12  C   UNK     1      70.773  67.178 108.098  0.00  0.00    +0.000 C 
BRANCH  12  15
ATOM     13  H   UNK     1      69.770  68.058 105.959  0.00  0.00    +0.000 HD
ATOM     14  O   UNK     1      71.400  69.498 108.223  0.00  0.00    +0.000 OA
ATOM     15  C   UNK     1      70.842  68.623 107.613  0.00  0.00    +0.000 C 
ATOM     16  N   UNK     1      70.257  68.836 106.398  0.00  0.00    +0.000 N 
BRANCH  16  17
ATOM     17  C   UNK     1      70.282  70.116 105.677  0.00  0.00    +0.000 C 
BRANCH  17  21
ATOM     18  H   UNK     1      72.562  69.035 105.503  0.00  0.00    +0.000 HD
ATOM     19  N   UNK     1      72.330  69.412 104.582  0.00  0.00    +0.000 N 
ATOM     20  O   UNK     1      70.703  70.368 103.329  0.00  0.00    +0.000 OA
ATOM     21  C   UNK     1      71.102  69.982 104.400  0.00  0.00    +0.000 C 
BRANCH  19  22
ATOM     22  C   UNK     1      73.285  69.247 103.484  0.00  0.00    +0.000 C 
BRANCH  22  23
ATOM     23  C   UNK     1      74.670  69.795 103.867  0.00  0.00    +0.000 C 
BRANCH  23  28
ATOM     24  S   UNK     1      74.854  71.594 105.785  0.00  0.00    +0.000 S 
ATOM     25  C   UNK     1      74.874  71.205 107.197  0.00  0.00    +0.000 A 
ATOM     26  C   UNK     1      74.844  69.869 107.357  0.00  0.00    +0.000 A 
ATOM     27  N   UNK     1      74.801  69.320 106.218  0.00  0.00    +0.000 NA
ATOM     28  C   UNK     1      74.790  70.206 105.316  0.00  0.00    +0.000 A 
BRANCH  26  33
ATOM     29  S   UNK     1      74.866  69.897 109.846  0.00  0.00    +0.000 S 
ATOM     30  C   UNK     1      74.881  68.659 110.626  0.00  0.00    +0.000 A 
ATOM     31  C   UNK     1      74.870  67.584 109.821  0.00  0.00    +0.000 A 
ATOM     32  N   UNK     1      74.841  67.958 108.614  0.00  0.00    +0.000 NA
ATOM     33  C   UNK     1      74.843  69.223 108.540  0.00  0.00    +0.000 A 
BRANCH  31  37
ATOM     34  H   UNK     1      72.965  66.471 110.940  0.00  0.00    +0.000 HD
ATOM     35  N   UNK     1      73.747  65.830 110.817  0.00  0.00    +0.000 N 
ATOM     36  O   UNK     1      75.862  65.569 110.119  0.00  0.00    +0.000 OA
ATOM     37  C   UNK     1      74.896  66.287 110.233  0.00  0.00    +0.000 C 
BRANCH  35  38
ATOM     38  C   UNK     1      73.616  64.451 111.300  0.00  0.00    +0.000 C 
BRANCH  38  39
ATOM     39  C   UNK     1      73.695  64.380 112.835  0.00  0.00    +0.000 C 
BRANCH  39  40
ATOM     40  C   UNK     1      74.455  63.132 113.313  0.00  0.00    +0.000 C 
BRANCH  40  43
ATOM     41  C   UNK     1      74.361  63.542 116.066  0.00  0.00    +0.000 C 
ATOM     42  C   UNK     1      74.912  61.049 115.058  0.00  0.00    +0.000 C 
ATOM     43  S   UNK     1      73.734  62.400 114.811  0.00  0.00    +0.000 S 
ENDBRANCH  40  43
ENDBRANCH  39  40
ENDBRANCH  38  39
ENDBRANCH  35  38
ENDBRANCH  31  37
ENDBRANCH  26  33
ENDBRANCH  23  28
ENDBRANCH  22  23
ENDBRANCH  19  22
ENDBRANCH  17  21
BRANCH  17  44
ATOM     44  C   UNK     1      68.904  70.743 105.424  0.00  0.00    +0.000 C 
ATOM     45  C   UNK     1      68.895  72.253 105.651  0.00  0.00    +0.000 C 
BRANCH  44  47
ATOM     46  H   UNK     1      67.164  70.682 106.283  0.00  0.00    +0.000 HD
ATOM     47  O   UNK     1      67.960  70.135 106.278  0.00  0.00    +0.000 OA
ENDBRANCH  44  47
ENDBRANCH  17  44
ENDBRANCH  16  17
ENDBRANCH  12  15
ENDBRANCH   8  12
ENDBRANCH   7   8
ENDBRANCH   5   7
ENDBRANCH   1   4
BRANCH   1  51
ATOM     48  H   UNK     1      73.128  60.363 106.718  0.00  0.00    +0.000 HD
ATOM     49  O   UNK     1      72.013  59.130 105.179  0.00  0.00    +0.000 OA
ATOM     50  C   UNK     1      72.136  60.312 104.960  0.00  0.00    +0.000 C 
ATOM     51  N   UNK     1      72.745  60.979 105.997  0.00  0.00    +0.000 N 
BRANCH  50  61
ATOM     52  H   UNK     1      68.782  63.360 102.860  0.00  0.00    +0.000 HD
ATOM     53  H   UNK     1      69.318  63.341 101.157  0.00  0.00    +0.000 HD
ATOM     54  N   UNK     1      69.459  63.012 102.144  0.00  0.00    +0.000 N 
ATOM     55  N   UNK     1      72.391  60.630 102.742  0.00  0.00    +0.000 NA
ATOM     56  C   UNK     1      72.104  61.111 101.616  0.00  0.00    +0.000 A 
ATOM     57  N   UNK     1      71.140  61.894 101.412  0.00  0.00    +0.000 NA
ATOM     58  C   UNK     1      70.417  62.218 102.401  0.00  0.00    +0.000 A 
ATOM     59  C   UNK     1      69.796  62.162 104.812  0.00  0.00    +0.000 C 
ATOM     60  C   UNK     1      70.674  61.743 103.644  0.00  0.00    +0.000 A 
ATOM     61  C   UNK     1      71.733  60.900 103.785  0.00  0.00    +0.000 A 
BRANCH  56  62
ATOM     62  C   UNK     1      73.004  60.713 100.472  0.00  0.00    +0.000 C 
BRANCH  62  64
ATOM     63  H   UNK     1      74.358  60.597 102.022  0.00  0.00    +0.000 HD
ATOM     64  N   UNK     1      74.374  60.570 100.973  0.00  0.00    +0.000 NA
BRANCH  64  65
ATOM     65  C   UNK     1      75.295  61.590 100.470  0.00  0.00    +0.000 C 
BRANCH  65  66
ATOM     66  C   UNK     1      76.487  60.951  99.744  0.00  0.00    +0.000 C 
BRANCH  66  71
ATOM     67  H   UNK     1      77.355  59.211 101.395  0.00  0.00    +0.000 HD
ATOM     68  H   UNK     1      76.842  57.728 100.589  0.00  0.00    +0.000 HD
ATOM     69  O   UNK     1      75.782  58.878  98.708  0.00  0.00    +0.000 OA
ATOM     70  N   UNK     1      76.906  58.736 100.625  0.00  0.00    +0.000 N 
ATOM     71  C   UNK     1      76.344  59.444  99.610  0.00  0.00    +0.000 C 
ENDBRANCH  66  71
BRANCH  66  74
ATOM     72  H   UNK     1      77.651  60.869 101.455  0.00  0.00    +0.000 HD
ATOM     73  H   UNK     1      77.842  62.268 100.619  0.00  0.00    +0.000 HD
ATOM     74  N   UNK     1      77.719  61.248 100.495  0.00  0.00    +0.000 NA
ENDBRANCH  66  74
ENDBRANCH  65  66
ENDBRANCH  64  65
ENDBRANCH  62  64
BRANCH  62  75
ATOM     75  C   UNK     1      72.914  61.646  99.257  0.00  0.00    +0.000 C 
BRANCH  75  80
ATOM     76  H   UNK     1      73.606  59.182  98.630  0.00  0.00    +0.000 HD
ATOM     77  H   UNK     1      72.967  59.140  97.011  0.00  0.00    +0.000 HD
ATOM     78  O   UNK     1      72.106  61.422  97.003  0.00  0.00    +0.000 OA
ATOM     79  N   UNK     1      73.151  59.656  97.862  0.00  0.00    +0.000 N 
ATOM     80  C   UNK     1      72.673  60.928  97.939  0.00  0.00    +0.000 C 
ENDBRANCH  75  80
ENDBRANCH  62  75
ENDBRANCH  56  62
ENDBRANCH  50  61
ENDBRANCH   1  51
BRANCH   1  81
ATOM     81  C   UNK     1      74.568  62.665 105.946  0.00  0.00    +0.000 C 
BRANCH  81  87
ATOM     82  H   UNK     1      75.287  66.958 104.709  0.00  0.00    +0.000 HD
ATOM     83  N   UNK     1      75.650  64.691 106.791  0.00  0.00    +0.000 NA
ATOM     84  C   UNK     1      75.815  65.877 106.385  0.00  0.00    +0.000 A 
ATOM     85  N   UNK     1      75.286  66.065 105.251  0.00  0.00    +0.000 N 
ATOM     86  C   UNK     1      74.754  64.976 104.886  0.00  0.00    +0.000 A 
ATOM     87  C   UNK     1      74.996  64.109 105.880  0.00  0.00    +0.000 A 
ENDBRANCH  81  87
BRANCH  81  88
ATOM     88  O   UNK     1      75.005  62.020 104.766  0.00  0.00    +0.000 OA
BRANCH  88  94
ATOM     89  C   UNK     1      76.878  60.987 103.695  0.00  0.00    +0.000 C 
ATOM     90  C   UNK     1      77.904  59.880 103.926  0.00  0.00    +0.000 C 
ATOM     91  C   UNK     1      77.174  58.594 104.272  0.00  0.00    +0.000 C 
ATOM     92  C   UNK     1      76.244  58.792 105.458  0.00  0.00    +0.000 C 
ATOM     93  O   UNK     1      75.376  59.855 105.194  0.00  0.00    +0.000 OA
ATOM     94  C   UNK     1      76.039  61.076 104.960  0.00  0.00    +0.000 C 
BRANCH  90  96
ATOM     95  H   UNK     1      78.872  60.433 102.363  0.00  0.00    +0.000 HD
ATOM     96  O   UNK     1      78.712  59.594 102.806  0.00  0.00    +0.000 OA
ENDBRANCH  90  96
BRANCH  91  98
ATOM     97  H   UNK     1      78.913  58.029 104.983  0.00  0.00    +0.000 HD
ATOM     98  O   UNK     1      78.156  57.626 104.557  0.00  0.00    +0.000 OA
ENDBRANCH  91  98
BRANCH  89  99
ATOM     99  O   UNK     1      77.470  62.244 103.508  0.00  0.00    +0.000 OA
BRANCH  99 105
ATOM    100  C   UNK     1      78.504  63.923 104.883  0.00  0.00    +0.000 C 
ATOM    101  C   UNK     1      79.608  64.066 105.929  0.00  0.00    +0.000 C 
ATOM    102  C   UNK     1      80.935  63.635 105.299  0.00  0.00    +0.000 C 
ATOM    103  C   UNK     1      80.871  62.340 104.484  0.00  0.00    +0.000 C 
ATOM    104  O   UNK     1      79.731  62.299 103.666  0.00  0.00    +0.000 OA
ATOM    105  C   UNK     1      78.541  62.497 104.385  0.00  0.00    +0.000 C 
BRANCH 100 107
ATOM    106  H   UNK     1      79.642  65.005 103.687  0.00  0.00    +0.000 HD
ATOM    107  O   UNK     1      78.707  64.802 103.798  0.00  0.00    +0.000 OA
ENDBRANCH 100 107
BRANCH 102 109
ATOM    108  H   UNK     1      81.088  65.550 104.785  0.00  0.00    +0.000 HD
ATOM    109  O   UNK     1      81.382  64.693 104.475  0.00  0.00    +0.000 OA
ENDBRANCH 102 109
BRANCH 101 110
ATOM    110  O   UNK     1      79.346  63.225 107.020  0.00  0.00    +0.000 OA
BRANCH 110 115
ATOM    111  H   UNK     1      77.363  64.327 108.070  0.00  0.00    +0.000 HD
ATOM    112  H   UNK     1      78.140  64.746 109.602  0.00  0.00    +0.000 HD
ATOM    113  O   UNK     1      80.317  63.918 108.941  0.00  0.00    +0.000 OA
ATOM    114  N   UNK     1      78.155  64.300 108.698  0.00  0.00    +0.000 N 
ATOM    115  C   UNK     1      79.329  63.776 108.263  0.00  0.00    +0.000 C 
ENDBRANCH 110 115
ENDBRANCH 101 110
BRANCH 103 116
ATOM    116  C   UNK     1      81.026  61.073 105.320  0.00  0.00    +0.000 C 
BRANCH 116 118
ATOM    117  H   UNK     1      81.005  61.273 107.271  0.00  0.00    +0.000 HD
ATOM    118  O   UNK     1      81.631  61.392 106.555  0.00  0.00    +0.000 OA
ENDBRANCH 116 118
ENDBRANCH 103 116
ENDBRANCH  99 105
ENDBRANCH  89  99
BRANCH  92 119
ATOM    119  C   UNK     1      75.374  57.572 105.730  0.00  0.00    +0.000 C 
BRANCH 119 121
ATOM    120  H   UNK     1      73.567  57.950 106.381  0.00  0.00    +0.000 HD
ATOM    121  O   UNK     1      74.445  57.860 106.754  0.00  0.00    +0.000 OA
ENDBRANCH 119 121
ENDBRANCH  92 119
ENDBRANCH  88  94
ENDBRANCH  81  88
ENDBRANCH   1  81
TORSDOF 45
ENDMDL
MODEL 6
REMARK VINA RESULT:      -6.9      5.509     11.651
REMARK  Name = ./1214.pdb
REMARK  51 active torsions:
REMARK  status: ('A' for Active; 'I' for Inactive)
REMARK    1  A    between atoms: C_85  and  S_87
REMARK    2  A    between atoms: C_86  and  S_87
REMARK    3  A    between atoms: S_87  and  C_88
REMARK    4  A    between atoms: C_88  and  C_89
REMARK    5  A    between atoms: C_89  and  C_90
REMARK    6  A    between atoms: C_90  and  N_91
REMARK    7  A    between atoms: C_93  and  C_96
REMARK    8  A    between atoms: C_98  and  C_101
REMARK    9  A    between atoms: C_103  and  C_104
REMARK   10  A    between atoms: C_104  and  C_105
REMARK   11  A    between atoms: C_105  and  N_106
REMARK   12  A    between atoms: C_108  and  C_177
REMARK   13  A    between atoms: C_113  and  C_140
REMARK   14  A    between atoms: O_114  and  C_115
REMARK   15  A    between atoms: C_118  and  O_119
REMARK   16  A    between atoms: O_119  and  C_120
REMARK   17  A    between atoms: O_121  and  C_122
REMARK   18  A    between atoms: O_123  and  C_124
REMARK   19  A    between atoms: C_124  and  C_125
REMARK   20  A    between atoms: C_127  and  O_128
REMARK   21  A    between atoms: O_128  and  C_129
REMARK   22  A    between atoms: O_130  and  C_131
REMARK   23  A    between atoms: O_132  and  C_133
REMARK   24  A    between atoms: O_134  and  C_135
REMARK   25  A    between atoms: C_135  and  C_136
REMARK   26  A    between atoms: C_138  and  O_139
REMARK   27  A    between atoms: O_139  and  C_140
REMARK   28  A    between atoms: C_140  and  C_164
REMARK   29  A    between atoms: C_144  and  C_146
REMARK   30  A    between atoms: N_145  and  C_146
REMARK   31  A    between atoms: C_146  and  C_147
REMARK   32  A    between atoms: C_147  and  N_148
REMARK   33  A    between atoms: N_148  and  C_153
REMARK   34  A    between atoms: C_151  and  C_152
REMARK   35  A    between atoms: C_152  and  C_153
REMARK   36  A    between atoms: C_153  and  C_155
REMARK   37  A    between atoms: C_158  and  C_159
REMARK   38  A    between atoms: C_160  and  C_162
REMARK   39  A    between atoms: N_163  and  C_164
REMARK   40  A    between atoms: C_164  and  C_166
REMARK   41  A    between atoms: N_167  and  C_169
REMARK   42  A    between atoms: C_168  and  C_169
REMARK   43  A    between atoms: C_169  and  C_171
REMARK   44  A    between atoms: O_170  and  C_171
REMARK   45  A    between atoms: C_171  and  C_173
REMARK   46  A    between atoms: C_172  and  C_173
REMARK   47  A    between atoms: C_173  and  C_175
REMARK   48  A    between atoms: N_176  and  C_177
REMARK   49  A    between atoms: C_177  and  C_179
REMARK   50  A    between atoms: O_178  and  C_179
REMARK   51  A    between atoms: C_179  and  C_180
REMARK                            x       y       z     vdW  Elec       q    Type
REMARK                         _______ _______ _______ _____ _____    ______ ____
ROOT
ATOM      1  C   UNK     1      73.072  62.869 104.813  0.00  0.00    +0.000 C 
ENDROOT
BRANCH   1   4
ATOM      2  H   UNK     1      72.997  66.023 103.498  0.00  0.00    +0.000 HD
ATOM      3  O   UNK     1      72.447  63.797 102.719  0.00  0.00    +0.000 OA
ATOM      4  C   UNK     1      72.881  64.025 103.819  0.00  0.00    +0.000 C 
ATOM      5  N   UNK     1      73.191  65.304 104.200  0.00  0.00    +0.000 N 
BRANCH   5   7
ATOM      6  C   UNK     1      74.613  67.078 105.131  0.00  0.00    +0.000 C 
ATOM      7  C   UNK     1      73.935  65.723 105.400  0.00  0.00    +0.000 C 
BRANCH   7   8
ATOM      8  C   UNK     1      72.972  65.819 106.595  0.00  0.00    +0.000 C 
BRANCH   8  10
ATOM      9  H   UNK     1      72.966  67.675 107.239  0.00  0.00    +0.000 HD
ATOM     10  O   UNK     1      73.422  66.855 107.436  0.00  0.00    +0.000 OA
ENDBRANCH   8  10
BRANCH   8  12
ATOM     11  C   UNK     1      70.606  64.931 106.730  0.00  0.00    +0.000 C 
ATOM     12  C   UNK     1      71.499  66.088 106.243  0.00  0.00    +0.000 C 
BRANCH  12  15
ATOM     13  H   UNK     1      71.918  68.356 105.224  0.00  0.00    +0.000 HD
ATOM     14  O   UNK     1      70.410  67.514 107.846  0.00  0.00    +0.000 OA
ATOM     15  C   UNK     1      71.034  67.421 106.821  0.00  0.00    +0.000 C 
ATOM     16  N   UNK     1      71.426  68.513 106.101  0.00  0.00    +0.000 N 
BRANCH  16  17
ATOM     17  C   UNK     1      71.189  69.904 106.506  0.00  0.00    +0.000 C 
BRANCH  17  21
ATOM     18  H   UNK     1      73.644  69.400 106.178  0.00  0.00    +0.000 HD
ATOM     19  N   UNK     1      73.554  69.928 107.047  0.00  0.00    +0.000 N 
ATOM     20  O   UNK     1      72.128  71.100 108.361  0.00  0.00    +0.000 OA
ATOM     21  C   UNK     1      72.319  70.389 107.406  0.00  0.00    +0.000 C 
BRANCH  19  22
ATOM     22  C   UNK     1      74.758  70.241 107.820  0.00  0.00    +0.000 C 
BRANCH  22  23
ATOM     23  C   UNK     1      75.926  70.625 106.896  0.00  0.00    +0.000 C 
BRANCH  23  28
ATOM     24  S   UNK     1      78.285  69.745 106.115  0.00  0.00    +0.000 S 
ATOM     25  C   UNK     1      78.738  68.389 106.436  0.00  0.00    +0.000 A 
ATOM     26  C   UNK     1      77.803  67.684 107.099  0.00  0.00    +0.000 A 
ATOM     27  N   UNK     1      76.780  68.411 107.263  0.00  0.00    +0.000 NA
ATOM     28  C   UNK     1      76.983  69.554 106.762  0.00  0.00    +0.000 A 
BRANCH  26  33
ATOM     29  S   UNK     1      76.822  65.571 107.975  0.00  0.00    +0.000 S 
ATOM     30  C   UNK     1      77.659  64.417 108.307  0.00  0.00    +0.000 A 
ATOM     31  C   UNK     1      78.953  64.678 108.064  0.00  0.00    +0.000 A 
ATOM     32  N   UNK     1      79.072  65.850 107.606  0.00  0.00    +0.000 NA
ATOM     33  C   UNK     1      77.941  66.414 107.532  0.00  0.00    +0.000 A 
BRANCH  31  37
ATOM     34  H   UNK     1      80.014  63.339 106.275  0.00  0.00    +0.000 HD
ATOM     35  N   UNK     1      80.463  63.174 107.174  0.00  0.00    +0.000 N 
ATOM     36  O   UNK     1      80.461  63.608 109.374  0.00  0.00    +0.000 OA
ATOM     37  C   UNK     1      79.987  63.820 108.282  0.00  0.00    +0.000 C 
BRANCH  35  38
ATOM     38  C   UNK     1      81.582  62.229 107.247  0.00  0.00    +0.000 C 
BRANCH  38  39
ATOM     39  C   UNK     1      82.303  62.100 105.893  0.00  0.00    +0.000 C 
BRANCH  39  40
ATOM     40  C   UNK     1      81.319  61.840 104.742  0.00  0.00    +0.000 C 
BRANCH  40  43
ATOM     41  C   UNK     1      83.253  63.592 103.772  0.00  0.00    +0.000 C 
ATOM     42  C   UNK     1      80.587  64.163 103.452  0.00  0.00    +0.000 C 
ATOM     43  S   UNK     1      81.729  62.775 103.240  0.00  0.00    +0.000 S 
ENDBRANCH  40  43
ENDBRANCH  39  40
ENDBRANCH  38  39
ENDBRANCH  35  38
ENDBRANCH  31  37
ENDBRANCH  26  33
ENDBRANCH  23  28
ENDBRANCH  22  23
ENDBRANCH  19  22
ENDBRANCH  17  21
BRANCH  17  44
ATOM     44  C   UNK     1      70.903  70.875 105.352  0.00  0.00    +0.000 C 
ATOM     45  C   UNK     1      71.221  70.273 103.985  0.00  0.00    +0.000 C 
BRANCH  44  47
ATOM     46  H   UNK     1      72.558  71.785 105.800  0.00  0.00    +0.000 HD
ATOM     47  O   UNK     1      71.666  72.047 105.537  0.00  0.00    +0.000 OA
ENDBRANCH  44  47
ENDBRANCH  17  44
ENDBRANCH  16  17
ENDBRANCH  12  15
ENDBRANCH   8  12
ENDBRANCH   7   8
ENDBRANCH   5   7
ENDBRANCH   1   4
BRANCH   1  51
ATOM     48  H   UNK     1      75.038  62.787 104.020  0.00  0.00    +0.000 HD
ATOM     49  O   UNK     1      76.495  62.284 105.680  0.00  0.00    +0.000 OA
ATOM     50  C   UNK     1      75.318  62.282 105.955  0.00  0.00    +0.000 C 
ATOM     51  N   UNK     1      74.532  62.689 104.902  0.00  0.00    +0.000 N 
BRANCH  50  61
ATOM     52  H   UNK     1      74.226  58.344 108.827  0.00  0.00    +0.000 HD
ATOM     53  H   UNK     1      73.613  59.149 110.297  0.00  0.00    +0.000 HD
ATOM     54  N   UNK     1      74.010  59.235 109.329  0.00  0.00    +0.000 N 
ATOM     55  N   UNK     1      74.484  62.785 107.989  0.00  0.00    +0.000 NA
ATOM     56  C   UNK     1      74.027  62.528 109.132  0.00  0.00    +0.000 A 
ATOM     57  N   UNK     1      73.867  61.363 109.579  0.00  0.00    +0.000 NA
ATOM     58  C   UNK     1      74.188  60.390 108.832  0.00  0.00    +0.000 A 
ATOM     59  C   UNK     1      75.082  59.406 106.727  0.00  0.00    +0.000 C 
ATOM     60  C   UNK     1      74.695  60.595 107.592  0.00  0.00    +0.000 A 
ATOM     61  C   UNK     1      74.837  61.883 107.179  0.00  0.00    +0.000 A 
BRANCH  56  62
ATOM     62  C   UNK     1      73.678  63.718 109.993  0.00  0.00    +0.000 C 
BRANCH  62  64
ATOM     63  H   UNK     1      73.060  63.672 111.960  0.00  0.00    +0.000 HD
ATOM     64  N   UNK     1      73.894  63.366 111.400  0.00  0.00    +0.000 NA
BRANCH  64  65
ATOM     65  C   UNK     1      75.109  63.949 111.973  0.00  0.00    +0.000 C 
BRANCH  65  66
ATOM     66  C   UNK     1      74.818  64.616 113.324  0.00  0.00    +0.000 C 
BRANCH  66  71
ATOM     67  H   UNK     1      72.932  66.310 113.613  0.00  0.00    +0.000 HD
ATOM     68  H   UNK     1      71.658  65.259 114.232  0.00  0.00    +0.000 HD
ATOM     69  O   UNK     1      73.013  63.225 114.145  0.00  0.00    +0.000 OA
ATOM     70  N   UNK     1      72.602  65.399 113.902  0.00  0.00    +0.000 N 
ATOM     71  C   UNK     1      73.418  64.315 113.831  0.00  0.00    +0.000 C 
ENDBRANCH  66  71
BRANCH  66  74
ATOM     72  H   UNK     1      74.118  66.555 113.518  0.00  0.00    +0.000 HD
ATOM     73  H   UNK     1      75.047  66.342 112.182  0.00  0.00    +0.000 HD
ATOM     74  N   UNK     1      74.968  66.074 113.178  0.00  0.00    +0.000 NA
ENDBRANCH  66  74
ENDBRANCH  65  66
ENDBRANCH  64  65
ENDBRANCH  62  64
BRANCH  62  75
ATOM     75  C   UNK     1      72.274  64.281 109.735  0.00  0.00    +0.000 C 
BRANCH  75  80
ATOM     76  H   UNK     1      69.962  65.522 109.969  0.00  0.00    +0.000 HD
ATOM     77  H   UNK     1      70.512  66.927 110.837  0.00  0.00    +0.000 HD
ATOM     78  O   UNK     1      72.865  66.288 110.920  0.00  0.00    +0.000 OA
ATOM     79  N   UNK     1      70.723  66.057 110.367  0.00  0.00    +0.000 N 
ATOM     80  C   UNK     1      72.012  65.623 110.398  0.00  0.00    +0.000 C 
ENDBRANCH  75  80
ENDBRANCH  62  75
ENDBRANCH  56  62
ENDBRANCH  50  61
ENDBRANCH   1  51
BRANCH   1  81
ATOM     81  C   UNK     1      72.406  61.587 104.242  0.00  0.00    +0.000 C 
BRANCH  81  87
ATOM     82  H   UNK     1      70.653  59.543 107.880  0.00  0.00    +0.000 HD
ATOM     83  N   UNK     1      72.000  59.330 105.097  0.00  0.00    +0.000 NA
ATOM     84  C   UNK     1      71.497  58.824 106.140  0.00  0.00    +0.000 A 
ATOM     85  N   UNK     1      71.102  59.711 106.952  0.00  0.00    +0.000 N 
ATOM     86  C   UNK     1      71.349  60.842 106.440  0.00  0.00    +0.000 A 
ATOM     87  C   UNK     1      71.924  60.581 105.256  0.00  0.00    +0.000 A 
ENDBRANCH  81  87
BRANCH  81  88
ATOM     88  O   UNK     1      73.292  60.931 103.357  0.00  0.00    +0.000 OA
BRANCH  88  94
ATOM     89  C   UNK     1      73.644  60.710 101.001  0.00  0.00    +0.000 C 
ATOM     90  C   UNK     1      72.903  60.291  99.734  0.00  0.00    +0.000 C 
ATOM     91  C   UNK     1      71.604  61.072  99.640  0.00  0.00    +0.000 C 
ATOM     92  C   UNK     1      70.766  60.898 100.896  0.00  0.00    +0.000 C 
ATOM     93  O   UNK     1      71.530  61.246 102.015  0.00  0.00    +0.000 OA
ATOM     94  C   UNK     1      72.694  60.467 102.163  0.00  0.00    +0.000 C 
BRANCH  90  96
ATOM     95  H   UNK     1      74.344  59.921  98.520  0.00  0.00    +0.000 HD
ATOM     96  O   UNK     1      73.608  60.542  98.538  0.00  0.00    +0.000 OA
ENDBRANCH  90  96
BRANCH  91  98
ATOM     97  H   UNK     1      70.768  61.304  97.879  0.00  0.00    +0.000 HD
ATOM     98  O   UNK     1      70.917  60.596  98.507  0.00  0.00    +0.000 OA
ENDBRANCH  91  98
BRANCH  89  99
ATOM     99  O   UNK     1      74.788  59.935 101.240  0.00  0.00    +0.000 OA
BRANCH  99 105
ATOM    100  C   UNK     1      76.006  61.962 100.813  0.00  0.00    +0.000 C 
ATOM    101  C   UNK     1      77.159  62.782 101.391  0.00  0.00    +0.000 C 
ATOM    102  C   UNK     1      78.421  61.916 101.388  0.00  0.00    +0.000 C 
ATOM    103  C   UNK     1      78.222  60.486 101.898  0.00  0.00    +0.000 C 
ATOM    104  O   UNK     1      77.050  59.911 101.380  0.00  0.00    +0.000 OA
ATOM    105  C   UNK     1      75.910  60.693 101.625  0.00  0.00    +0.000 C 
BRANCH 100 107
ATOM    106  H   UNK     1      76.487  60.712  99.363  0.00  0.00    +0.000 HD
ATOM    107  O   UNK     1      76.235  61.636  99.459  0.00  0.00    +0.000 OA
ENDBRANCH 100 107
BRANCH 102 109
ATOM    108  H   UNK     1      79.871  61.789 100.033  0.00  0.00    +0.000 HD
ATOM    109  O   UNK     1      78.918  61.884 100.065  0.00  0.00    +0.000 OA
ENDBRANCH 102 109
BRANCH 101 110
ATOM    110  O   UNK     1      76.875  63.142 102.715  0.00  0.00    +0.000 OA
BRANCH 110 115
ATOM    111  H   UNK     1      77.780  64.361 104.700  0.00  0.00    +0.000 HD
ATOM    112  H   UNK     1      77.067  65.935 104.327  0.00  0.00    +0.000 HD
ATOM    113  O   UNK     1      75.875  65.141 102.374  0.00  0.00    +0.000 OA
ATOM    114  N   UNK     1      77.255  64.973 104.092  0.00  0.00    +0.000 N 
ATOM    115  C   UNK     1      76.654  64.456 102.989  0.00  0.00    +0.000 C 
ENDBRANCH 110 115
ENDBRANCH 101 110
BRANCH 103 116
ATOM    116  C   UNK     1      78.309  60.349 103.414  0.00  0.00    +0.000 C 
BRANCH 116 118
ATOM    117  H   UNK     1      78.708  58.917 104.695  0.00  0.00    +0.000 HD
ATOM    118  O   UNK     1      78.760  59.053 103.747  0.00  0.00    +0.000 OA
ENDBRANCH 116 118
ENDBRANCH 103 116
ENDBRANCH  99 105
ENDBRANCH  89  99
BRANCH  92 119
ATOM    119  C   UNK     1      69.536  61.795 100.909  0.00  0.00    +0.000 C 
BRANCH 119 121
ATOM    120  H   UNK     1      69.165  63.680 101.287  0.00  0.00    +0.000 HD
ATOM    121  O   UNK     1      69.856  63.045 101.482  0.00  0.00    +0.000 OA
ENDBRANCH 119 121
ENDBRANCH  92 119
ENDBRANCH  88  94
ENDBRANCH  81  88
ENDBRANCH   1  81
TORSDOF 45
ENDMDL
MODEL 7
REMARK VINA RESULT:      -6.8      5.492     11.904
REMARK  Name = ./1214.pdb
REMARK  51 active torsions:
REMARK  status: ('A' for Active; 'I' for Inactive)
REMARK    1  A    between atoms: C_85  and  S_87
REMARK    2  A    between atoms: C_86  and  S_87
REMARK    3  A    between atoms: S_87  and  C_88
REMARK    4  A    between atoms: C_88  and  C_89
REMARK    5  A    between atoms: C_89  and  C_90
REMARK    6  A    between atoms: C_90  and  N_91
REMARK    7  A    between atoms: C_93  and  C_96
REMARK    8  A    between atoms: C_98  and  C_101
REMARK    9  A    between atoms: C_103  and  C_104
REMARK   10  A    between atoms: C_104  and  C_105
REMARK   11  A    between atoms: C_105  and  N_106
REMARK   12  A    between atoms: C_108  and  C_177
REMARK   13  A    between atoms: C_113  and  C_140
REMARK   14  A    between atoms: O_114  and  C_115
REMARK   15  A    between atoms: C_118  and  O_119
REMARK   16  A    between atoms: O_119  and  C_120
REMARK   17  A    between atoms: O_121  and  C_122
REMARK   18  A    between atoms: O_123  and  C_124
REMARK   19  A    between atoms: C_124  and  C_125
REMARK   20  A    between atoms: C_127  and  O_128
REMARK   21  A    between atoms: O_128  and  C_129
REMARK   22  A    between atoms: O_130  and  C_131
REMARK   23  A    between atoms: O_132  and  C_133
REMARK   24  A    between atoms: O_134  and  C_135
REMARK   25  A    between atoms: C_135  and  C_136
REMARK   26  A    between atoms: C_138  and  O_139
REMARK   27  A    between atoms: O_139  and  C_140
REMARK   28  A    between atoms: C_140  and  C_164
REMARK   29  A    between atoms: C_144  and  C_146
REMARK   30  A    between atoms: N_145  and  C_146
REMARK   31  A    between atoms: C_146  and  C_147
REMARK   32  A    between atoms: C_147  and  N_148
REMARK   33  A    between atoms: N_148  and  C_153
REMARK   34  A    between atoms: C_151  and  C_152
REMARK   35  A    between atoms: C_152  and  C_153
REMARK   36  A    between atoms: C_153  and  C_155
REMARK   37  A    between atoms: C_158  and  C_159
REMARK   38  A    between atoms: C_160  and  C_162
REMARK   39  A    between atoms: N_163  and  C_164
REMARK   40  A    between atoms: C_164  and  C_166
REMARK   41  A    between atoms: N_167  and  C_169
REMARK   42  A    between atoms: C_168  and  C_169
REMARK   43  A    between atoms: C_169  and  C_171
REMARK   44  A    between atoms: O_170  and  C_171
REMARK   45  A    between atoms: C_171  and  C_173
REMARK   46  A    between atoms: C_172  and  C_173
REMARK   47  A    between atoms: C_173  and  C_175
REMARK   48  A    between atoms: N_176  and  C_177
REMARK   49  A    between atoms: C_177  and  C_179
REMARK   50  A    between atoms: O_178  and  C_179
REMARK   51  A    between atoms: C_179  and  C_180
REMARK                            x       y       z     vdW  Elec       q    Type
REMARK                         _______ _______ _______ _____ _____    ______ ____
ROOT
ATOM      1  C   UNK     1      74.307  61.266 101.067  0.00  0.00    +0.000 C 
ENDROOT
BRANCH   1   4
ATOM      2  H   UNK     1      75.244  64.148 102.648  0.00  0.00    +0.000 HD
ATOM      3  O   UNK     1      75.044  63.407 100.352  0.00  0.00    +0.000 OA
ATOM      4  C   UNK     1      74.803  62.702 101.299  0.00  0.00    +0.000 C 
ATOM      5  N   UNK     1      74.950  63.170 102.578  0.00  0.00    +0.000 N 
BRANCH   5   7
ATOM      6  C   UNK     1      76.363  62.186 104.329  0.00  0.00    +0.000 C 
ATOM      7  C   UNK     1      74.924  62.387 103.824  0.00  0.00    +0.000 C 
BRANCH   7   8
ATOM      8  C   UNK     1      74.070  63.118 104.874  0.00  0.00    +0.000 C 
BRANCH   8  10
ATOM      9  H   UNK     1      72.429  64.198 104.819  0.00  0.00    +0.000 HD
ATOM     10  O   UNK     1      73.054  63.821 104.197  0.00  0.00    +0.000 OA
ENDBRANCH   8  10
BRANCH   8  12
ATOM     11  C   UNK     1      74.396  61.938 107.088  0.00  0.00    +0.000 C 
ATOM     12  C   UNK     1      73.412  62.222 105.937  0.00  0.00    +0.000 C 
BRANCH  12  15
ATOM     13  H   UNK     1      73.267  64.185 107.512  0.00  0.00    +0.000 HD
ATOM     14  O   UNK     1      71.027  62.450 106.160  0.00  0.00    +0.000 OA
ATOM     15  C   UNK     1      72.123  62.849 106.458  0.00  0.00    +0.000 C 
ATOM     16  N   UNK     1      72.313  63.876 107.337  0.00  0.00    +0.000 N 
BRANCH  16  17
ATOM     17  C   UNK     1      71.233  64.570 108.050  0.00  0.00    +0.000 C 
BRANCH  17  21
ATOM     18  H   UNK     1      73.632  64.995 108.724  0.00  0.00    +0.000 HD
ATOM     19  N   UNK     1      73.058  65.089 109.563  0.00  0.00    +0.000 N 
ATOM     20  O   UNK     1      70.936  65.169 110.354  0.00  0.00    +0.000 OA
ATOM     21  C   UNK     1      71.701  64.980 109.440  0.00  0.00    +0.000 C 
BRANCH  19  22
ATOM     22  C   UNK     1      73.702  65.421 110.836  0.00  0.00    +0.000 C 
BRANCH  22  23
ATOM     23  C   UNK     1      74.184  64.152 111.560  0.00  0.00    +0.000 C 
BRANCH  23  28
ATOM     24  S   UNK     1      76.269  62.546 111.717  0.00  0.00    +0.000 S 
ATOM     25  C   UNK     1      77.369  62.626 110.752  0.00  0.00    +0.000 A 
ATOM     26  C   UNK     1      77.193  63.619 109.862  0.00  0.00    +0.000 A 
ATOM     27  N   UNK     1      76.103  64.210 110.116  0.00  0.00    +0.000 NA
ATOM     28  C   UNK     1      75.541  63.664 111.108  0.00  0.00    +0.000 A 
BRANCH  26  33
ATOM     29  S   UNK     1      79.480  63.657 108.880  0.00  0.00    +0.000 S 
ATOM     30  C   UNK     1      79.739  64.239 107.562  0.00  0.00    +0.000 A 
ATOM     31  C   UNK     1      78.605  64.705 107.013  0.00  0.00    +0.000 A 
ATOM     32  N   UNK     1      77.636  64.495 107.797  0.00  0.00    +0.000 NA
ATOM     33  C   UNK     1      78.035  63.925 108.855  0.00  0.00    +0.000 A 
BRANCH  31  37
ATOM     34  H   UNK     1      76.458  65.083 105.845  0.00  0.00    +0.000 HD
ATOM     35  N   UNK     1      77.239  65.460 105.311  0.00  0.00    +0.000 N 
ATOM     36  O   UNK     1      79.463  65.707 105.171  0.00  0.00    +0.000 OA
ATOM     37  C   UNK     1      78.508  65.319 105.802  0.00  0.00    +0.000 C 
BRANCH  35  38
ATOM     38  C   UNK     1      76.971  66.112 104.026  0.00  0.00    +0.000 C 
BRANCH  38  39
ATOM     39  C   UNK     1      75.481  66.462 103.868  0.00  0.00    +0.000 C 
BRANCH  39  40
ATOM     40  C   UNK     1      74.908  67.114 105.135  0.00  0.00    +0.000 C 
BRANCH  40  43
ATOM     41  C   UNK     1      74.460  69.322 106.773  0.00  0.00    +0.000 C 
ATOM     42  C   UNK     1      74.591  69.626 104.047  0.00  0.00    +0.000 C 
ATOM     43  S   UNK     1      75.501  68.813 105.383  0.00  0.00    +0.000 S 
ENDBRANCH  40  43
ENDBRANCH  39  40
ENDBRANCH  38  39
ENDBRANCH  35  38
ENDBRANCH  31  37
ENDBRANCH  26  33
ENDBRANCH  23  28
ENDBRANCH  22  23
ENDBRANCH  19  22
ENDBRANCH  17  21
BRANCH  17  44
ATOM     44  C   UNK     1      70.593  65.735 107.281  0.00  0.00    +0.000 C 
ATOM     45  C   UNK     1      71.629  66.665 106.653  0.00  0.00    +0.000 C 
BRANCH  44  47
ATOM     46  H   UNK     1      68.915  66.036 108.210  0.00  0.00    +0.000 HD
ATOM     47  O   UNK     1      69.775  66.472 108.163  0.00  0.00    +0.000 OA
ENDBRANCH  44  47
ENDBRANCH  17  44
ENDBRANCH  16  17
ENDBRANCH  12  15
ENDBRANCH   8  12
ENDBRANCH   7   8
ENDBRANCH   5   7
ENDBRANCH   1   4
BRANCH   1  51
ATOM     48  H   UNK     1      74.702  60.689  99.063  0.00  0.00    +0.000 HD
ATOM     49  O   UNK     1      76.827  59.919  98.911  0.00  0.00    +0.000 OA
ATOM     50  C   UNK     1      76.418  60.207 100.011  0.00  0.00    +0.000 C 
ATOM     51  N   UNK     1      75.154  60.748  99.978  0.00  0.00    +0.000 N 
BRANCH  50  61
ATOM     52  H   UNK     1      80.225  61.808 102.822  0.00  0.00    +0.000 HD
ATOM     53  H   UNK     1      80.201  60.612 104.147  0.00  0.00    +0.000 HD
ATOM     54  N   UNK     1      79.783  60.964 103.250  0.00  0.00    +0.000 N 
ATOM     55  N   UNK     1      76.811  58.991 101.870  0.00  0.00    +0.000 NA
ATOM     56  C   UNK     1      77.408  58.694 102.936  0.00  0.00    +0.000 A 
ATOM     57  N   UNK     1      78.387  59.338 103.395  0.00  0.00    +0.000 NA
ATOM     58  C   UNK     1      78.794  60.347 102.745  0.00  0.00    +0.000 A 
ATOM     59  C   UNK     1      78.696  61.951 100.843  0.00  0.00    +0.000 C 
ATOM     60  C   UNK     1      78.192  60.728 101.592  0.00  0.00    +0.000 A 
ATOM     61  C   UNK     1      77.140  59.982 101.159  0.00  0.00    +0.000 A 
BRANCH  56  62
ATOM     62  C   UNK     1      76.876  57.498 103.687  0.00  0.00    +0.000 C 
BRANCH  62  64
ATOM     63  H   UNK     1      75.356  56.351 102.898  0.00  0.00    +0.000 HD
ATOM     64  N   UNK     1      76.378  56.514 102.722  0.00  0.00    +0.000 NA
BRANCH  64  65
ATOM     65  C   UNK     1      77.092  55.237 102.760  0.00  0.00    +0.000 C 
BRANCH  65  66
ATOM     66  C   UNK     1      76.114  54.055 102.718  0.00  0.00    +0.000 C 
BRANCH  66  71
ATOM     67  H   UNK     1      76.984  54.877 104.971  0.00  0.00    +0.000 HD
ATOM     68  H   UNK     1      75.788  54.161 106.051  0.00  0.00    +0.000 HD
ATOM     69  O   UNK     1      74.486  53.130 104.256  0.00  0.00    +0.000 OA
ATOM     70  N   UNK     1      76.157  54.317 105.124  0.00  0.00    +0.000 N 
ATOM     71  C   UNK     1      75.490  53.770 104.074  0.00  0.00    +0.000 C 
ENDBRANCH  66  71
BRANCH  66  74
ATOM     72  H   UNK     1      77.017  52.911 101.247  0.00  0.00    +0.000 HD
ATOM     73  H   UNK     1      76.255  52.005 102.383  0.00  0.00    +0.000 HD
ATOM     74  N   UNK     1      76.834  52.854 102.264  0.00  0.00    +0.000 NA
ENDBRANCH  66  74
ENDBRANCH  65  66
ENDBRANCH  64  65
ENDBRANCH  62  64
BRANCH  62  75
ATOM     75  C   UNK     1      75.837  57.850 104.759  0.00  0.00    +0.000 C 
BRANCH  75  80
ATOM     76  H   UNK     1      74.286  59.006 102.971  0.00  0.00    +0.000 HD
ATOM     77  H   UNK     1      72.885  57.989 103.150  0.00  0.00    +0.000 HD
ATOM     78  O   UNK     1      73.816  56.554 104.891  0.00  0.00    +0.000 OA
ATOM     79  N   UNK     1      73.818  58.244 103.444  0.00  0.00    +0.000 N 
ATOM     80  C   UNK     1      74.412  57.470 104.392  0.00  0.00    +0.000 C 
ENDBRANCH  75  80
ENDBRANCH  62  75
ENDBRANCH  56  62
ENDBRANCH  50  61
ENDBRANCH   1  51
BRANCH   1  81
ATOM     81  C   UNK     1      72.821  61.302 100.621  0.00  0.00    +0.000 C 
BRANCH  81  87
ATOM     82  H   UNK     1      70.123  61.625 104.240  0.00  0.00    +0.000 HD
ATOM     83  N   UNK     1      71.207  62.854 101.609  0.00  0.00    +0.000 NA
ATOM     84  C   UNK     1      70.477  62.881 102.641  0.00  0.00    +0.000 A 
ATOM     85  N   UNK     1      70.616  61.837 103.343  0.00  0.00    +0.000 N 
ATOM     86  C   UNK     1      71.459  61.090 102.766  0.00  0.00    +0.000 A 
ATOM     87  C   UNK     1      71.826  61.753 101.659  0.00  0.00    +0.000 A 
ENDBRANCH  81  87
BRANCH  81  88
ATOM     88  O   UNK     1      72.421  60.029 100.151  0.00  0.00    +0.000 OA
BRANCH  88  94
ATOM     89  C   UNK     1      72.501  59.031  97.979  0.00  0.00    +0.000 C 
ATOM     90  C   UNK     1      71.865  59.165  96.597  0.00  0.00    +0.000 C 
ATOM     91  C   UNK     1      71.998  60.604  96.129  0.00  0.00    +0.000 C 
ATOM     92  C   UNK     1      71.407  61.568  97.144  0.00  0.00    +0.000 C 
ATOM     93  O   UNK     1      71.997  61.347  98.392  0.00  0.00    +0.000 OA
ATOM     94  C   UNK     1      71.804  60.039  98.879  0.00  0.00    +0.000 C 
BRANCH  90  96
ATOM     95  H   UNK     1      72.783  58.965  94.922  0.00  0.00    +0.000 HD
ATOM     96  O   UNK     1      72.463  58.363  95.602  0.00  0.00    +0.000 OA
ENDBRANCH  90  96
BRANCH  91  98
ATOM     97  H   UNK     1      71.340  59.859  94.437  0.00  0.00    +0.000 HD
ATOM     98  O   UNK     1      71.328  60.699  94.894  0.00  0.00    +0.000 OA
ENDBRANCH  91  98
BRANCH  89  99
ATOM     99  O   UNK     1      72.298  57.766  98.547  0.00  0.00    +0.000 OA
BRANCH  99 105
ATOM    100  C   UNK     1      73.859  56.444  99.810  0.00  0.00    +0.000 C 
ATOM    101  C   UNK     1      74.977  55.426  99.595  0.00  0.00    +0.000 C 
ATOM    102  C   UNK     1      76.075  56.081  98.752  0.00  0.00    +0.000 C 
ATOM    103  C   UNK     1      75.571  56.872  97.541  0.00  0.00    +0.000 C 
ATOM    104  O   UNK     1      74.458  57.662  97.867  0.00  0.00    +0.000 OA
ATOM    105  C   UNK     1      73.417  56.918  98.446  0.00  0.00    +0.000 C 
BRANCH 100 107
ATOM    106  H   UNK     1      74.994  58.032 100.100  0.00  0.00    +0.000 HD
ATOM    107  O   UNK     1      74.306  57.548 100.567  0.00  0.00    +0.000 OA
ENDBRANCH 100 107
BRANCH 102 109
ATOM    108  H   UNK     1      77.549  56.481 100.025  0.00  0.00    +0.000 HD
ATOM    109  O   UNK     1      76.818  56.932  99.600  0.00  0.00    +0.000 OA
ENDBRANCH 102 109
BRANCH 101 110
ATOM    110  O   UNK     1      74.487  54.316  98.894  0.00  0.00    +0.000 OA
BRANCH 110 115
ATOM    111  H   UNK     1      72.888  53.160 100.429  0.00  0.00    +0.000 HD
ATOM    112  H   UNK     1      73.838  51.686 100.654  0.00  0.00    +0.000 HD
ATOM    113  O   UNK     1      75.714  52.469  99.340  0.00  0.00    +0.000 OA
ATOM    114  N   UNK     1      73.690  52.582 100.217  0.00  0.00    +0.000 N 
ATOM    115  C   UNK     1      74.679  53.082  99.433  0.00  0.00    +0.000 C 
ENDBRANCH 110 115
ENDBRANCH 101 110
BRANCH 103 116
ATOM    116  C   UNK     1      75.330  56.020  96.299  0.00  0.00    +0.000 C 
BRANCH 116 118
ATOM    117  H   UNK     1      74.173  56.392  94.759  0.00  0.00    +0.000 HD
ATOM    118  O   UNK     1      74.868  56.839  95.246  0.00  0.00    +0.000 OA
ENDBRANCH 116 118
ENDBRANCH 103 116
ENDBRANCH  99 105
ENDBRANCH  89  99
BRANCH  92 119
ATOM    119  C   UNK     1      71.668  63.026  96.789  0.00  0.00    +0.000 C 
BRANCH 119 121
ATOM    120  H   UNK     1      72.385  63.899  98.388  0.00  0.00    +0.000 HD
ATOM    121  O   UNK     1      72.729  63.531  97.572  0.00  0.00    +0.000 OA
ENDBRANCH 119 121
ENDBRANCH  92 119
ENDBRANCH  88  94
ENDBRANCH  81  88
ENDBRANCH   1  81
TORSDOF 45
ENDMDL
MODEL 8
REMARK VINA RESULT:      -6.8      3.673      8.132
REMARK  Name = ./1214.pdb
REMARK  51 active torsions:
REMARK  status: ('A' for Active; 'I' for Inactive)
REMARK    1  A    between atoms: C_85  and  S_87
REMARK    2  A    between atoms: C_86  and  S_87
REMARK    3  A    between atoms: S_87  and  C_88
REMARK    4  A    between atoms: C_88  and  C_89
REMARK    5  A    between atoms: C_89  and  C_90
REMARK    6  A    between atoms: C_90  and  N_91
REMARK    7  A    between atoms: C_93  and  C_96
REMARK    8  A    between atoms: C_98  and  C_101
REMARK    9  A    between atoms: C_103  and  C_104
REMARK   10  A    between atoms: C_104  and  C_105
REMARK   11  A    between atoms: C_105  and  N_106
REMARK   12  A    between atoms: C_108  and  C_177
REMARK   13  A    between atoms: C_113  and  C_140
REMARK   14  A    between atoms: O_114  and  C_115
REMARK   15  A    between atoms: C_118  and  O_119
REMARK   16  A    between atoms: O_119  and  C_120
REMARK   17  A    between atoms: O_121  and  C_122
REMARK   18  A    between atoms: O_123  and  C_124
REMARK   19  A    between atoms: C_124  and  C_125
REMARK   20  A    between atoms: C_127  and  O_128
REMARK   21  A    between atoms: O_128  and  C_129
REMARK   22  A    between atoms: O_130  and  C_131
REMARK   23  A    between atoms: O_132  and  C_133
REMARK   24  A    between atoms: O_134  and  C_135
REMARK   25  A    between atoms: C_135  and  C_136
REMARK   26  A    between atoms: C_138  and  O_139
REMARK   27  A    between atoms: O_139  and  C_140
REMARK   28  A    between atoms: C_140  and  C_164
REMARK   29  A    between atoms: C_144  and  C_146
REMARK   30  A    between atoms: N_145  and  C_146
REMARK   31  A    between atoms: C_146  and  C_147
REMARK   32  A    between atoms: C_147  and  N_148
REMARK   33  A    between atoms: N_148  and  C_153
REMARK   34  A    between atoms: C_151  and  C_152
REMARK   35  A    between atoms: C_152  and  C_153
REMARK   36  A    between atoms: C_153  and  C_155
REMARK   37  A    between atoms: C_158  and  C_159
REMARK   38  A    between atoms: C_160  and  C_162
REMARK   39  A    between atoms: N_163  and  C_164
REMARK   40  A    between atoms: C_164  and  C_166
REMARK   41  A    between atoms: N_167  and  C_169
REMARK   42  A    between atoms: C_168  and  C_169
REMARK   43  A    between atoms: C_169  and  C_171
REMARK   44  A    between atoms: O_170  and  C_171
REMARK   45  A    between atoms: C_171  and  C_173
REMARK   46  A    between atoms: C_172  and  C_173
REMARK   47  A    between atoms: C_173  and  C_175
REMARK   48  A    between atoms: N_176  and  C_177
REMARK   49  A    between atoms: C_177  and  C_179
REMARK   50  A    between atoms: O_178  and  C_179
REMARK   51  A    between atoms: C_179  and  C_180
REMARK                            x       y       z     vdW  Elec       q    Type
REMARK                         _______ _______ _______ _____ _____    ______ ____
ROOT
ATOM      1  C   UNK     1      73.450  64.269 106.344  0.00  0.00    +0.000 C 
ENDROOT
BRANCH   1   4
ATOM      2  H   UNK     1      72.386  63.563 103.173  0.00  0.00    +0.000 HD
ATOM      3  O   UNK     1      73.767  65.260 104.210  0.00  0.00    +0.000 OA
ATOM      4  C   UNK     1      73.232  64.374 104.827  0.00  0.00    +0.000 C 
ATOM      5  N   UNK     1      72.447  63.450 104.188  0.00  0.00    +0.000 N 
BRANCH   5   7
ATOM      6  C   UNK     1      70.252  63.156 105.250  0.00  0.00    +0.000 C 
ATOM      7  C   UNK     1      71.551  62.460 104.808  0.00  0.00    +0.000 C 
BRANCH   7   8
ATOM      8  C   UNK     1      71.255  61.333 103.803  0.00  0.00    +0.000 C 
BRANCH   8  10
ATOM      9  H   UNK     1      69.884  61.980 102.553  0.00  0.00    +0.000 HD
ATOM     10  O   UNK     1      69.924  61.475 103.368  0.00  0.00    +0.000 OA
ENDBRANCH   8  10
BRANCH   8  12
ATOM     11  C   UNK     1      72.692  59.861 102.329  0.00  0.00    +0.000 C 
ATOM     12  C   UNK     1      72.167  61.290 102.565  0.00  0.00    +0.000 C 
BRANCH  12  15
ATOM     13  H   UNK     1      71.081  59.876 100.783  0.00  0.00    +0.000 HD
ATOM     14  O   UNK     1      71.318  62.991 101.090  0.00  0.00    +0.000 OA
ATOM     15  C   UNK     1      71.440  61.819 101.333  0.00  0.00    +0.000 C 
ATOM     16  N   UNK     1      70.977  60.846 100.494  0.00  0.00    +0.000 N 
BRANCH  16  17
ATOM     17  C   UNK     1      70.335  61.103  99.198  0.00  0.00    +0.000 C 
BRANCH  17  21
ATOM     18  H   UNK     1      70.596  61.845  96.795  0.00  0.00    +0.000 HD
ATOM     19  N   UNK     1      70.990  60.906  96.870  0.00  0.00    +0.000 N 
ATOM     20  O   UNK     1      71.568  59.250  98.304  0.00  0.00    +0.000 OA
ATOM     21  C   UNK     1      71.038  60.314  98.100  0.00  0.00    +0.000 C 
BRANCH  19  22
ATOM     22  C   UNK     1      71.562  60.276  95.678  0.00  0.00    +0.000 C 
BRANCH  22  23
ATOM     23  C   UNK     1      70.596  60.369  94.484  0.00  0.00    +0.000 C 
BRANCH  23  28
ATOM     24  S   UNK     1      68.691  58.962  93.326  0.00  0.00    +0.000 S 
ATOM     25  C   UNK     1      67.987  57.896  94.042  0.00  0.00    +0.000 A 
ATOM     26  C   UNK     1      68.393  57.786  95.320  0.00  0.00    +0.000 A 
ATOM     27  N   UNK     1      69.290  58.651  95.541  0.00  0.00    +0.000 NA
ATOM     28  C   UNK     1      69.511  59.317  94.489  0.00  0.00    +0.000 A 
BRANCH  26  33
ATOM     29  S   UNK     1      68.122  55.438  96.097  0.00  0.00    +0.000 S 
ATOM     30  C   UNK     1      67.383  55.115  97.318  0.00  0.00    +0.000 A 
ATOM     31  C   UNK     1      66.920  56.229  97.907  0.00  0.00    +0.000 A 
ATOM     32  N   UNK     1      67.268  57.241  97.235  0.00  0.00    +0.000 NA
ATOM     33  C   UNK     1      67.931  56.890  96.215  0.00  0.00    +0.000 A 
BRANCH  31  37
ATOM     34  H   UNK     1      67.600  57.484  99.927  0.00  0.00    +0.000 HD
ATOM     35  N   UNK     1      66.698  57.029 100.062  0.00  0.00    +0.000 N 
ATOM     36  O   UNK     1      65.138  55.673  99.193  0.00  0.00    +0.000 OA
ATOM     37  C   UNK     1      66.180  56.271  99.049  0.00  0.00    +0.000 C 
BRANCH  35  38
ATOM     38  C   UNK     1      66.011  57.182 101.348  0.00  0.00    +0.000 C 
BRANCH  38  39
ATOM     39  C   UNK     1      65.064  58.395 101.343  0.00  0.00    +0.000 C 
BRANCH  39  40
ATOM     40  C   UNK     1      63.978  58.279 102.424  0.00  0.00    +0.000 C 
BRANCH  40  43
ATOM     41  C   UNK     1      63.540  60.770 101.259  0.00  0.00    +0.000 C 
ATOM     42  C   UNK     1      62.809  60.315 103.867  0.00  0.00    +0.000 C 
ATOM     43  S   UNK     1      62.670  59.526 102.244  0.00  0.00    +0.000 S 
ENDBRANCH  40  43
ENDBRANCH  39  40
ENDBRANCH  38  39
ENDBRANCH  35  38
ENDBRANCH  31  37
ENDBRANCH  26  33
ENDBRANCH  23  28
ENDBRANCH  22  23
ENDBRANCH  19  22
ENDBRANCH  17  21
BRANCH  17  44
ATOM     44  C   UNK     1      68.813  60.905  99.178  0.00  0.00    +0.000 C 
ATOM     45  C   UNK     1      68.275  60.345 100.493  0.00  0.00    +0.000 C 
BRANCH  44  47
ATOM     46  H   UNK     1      69.267  59.523  97.892  0.00  0.00    +0.000 HD
ATOM     47  O   UNK     1      68.478  60.029  98.124  0.00  0.00    +0.000 OA
ENDBRANCH  44  47
ENDBRANCH  17  44
ENDBRANCH  16  17
ENDBRANCH  12  15
ENDBRANCH   8  12
ENDBRANCH   7   8
ENDBRANCH   5   7
ENDBRANCH   1   4
BRANCH   1  51
ATOM     48  H   UNK     1      74.511  66.085 106.066  0.00  0.00    +0.000 HD
ATOM     49  O   UNK     1      74.279  67.378 107.911  0.00  0.00    +0.000 OA
ATOM     50  C   UNK     1      73.803  66.268 107.948  0.00  0.00    +0.000 C 
ATOM     51  N   UNK     1      73.920  65.606 106.748  0.00  0.00    +0.000 N 
BRANCH  50  61
ATOM     52  H   UNK     1      69.508  65.324 110.318  0.00  0.00    +0.000 HD
ATOM     53  H   UNK     1      70.103  64.562 111.819  0.00  0.00    +0.000 HD
ATOM     54  N   UNK     1      70.321  65.000 110.889  0.00  0.00    +0.000 N 
ATOM     55  N   UNK     1      74.021  65.273 109.960  0.00  0.00    +0.000 NA
ATOM     56  C   UNK     1      73.609  64.766 111.035  0.00  0.00    +0.000 A 
ATOM     57  N   UNK     1      72.393  64.674 111.348  0.00  0.00    +0.000 NA
ATOM     58  C   UNK     1      71.533  65.117 110.529  0.00  0.00    +0.000 A 
ATOM     59  C   UNK     1      70.849  66.179 108.383  0.00  0.00    +0.000 C 
ATOM     60  C   UNK     1      71.907  65.669 109.348  0.00  0.00    +0.000 A 
ATOM     61  C   UNK     1      73.239  65.734 109.082  0.00  0.00    +0.000 A 
BRANCH  56  62
ATOM     62  C   UNK     1      74.668  64.233 111.969  0.00  0.00    +0.000 C 
BRANCH  62  64
ATOM     63  H   UNK     1      74.410  62.525 113.094  0.00  0.00    +0.000 HD
ATOM     64  N   UNK     1      74.515  62.779 112.081  0.00  0.00    +0.000 NA
BRANCH  64  65
ATOM     65  C   UNK     1      75.625  62.023 111.498  0.00  0.00    +0.000 C 
BRANCH  65  66
ATOM     66  C   UNK     1      76.959  62.401 112.158  0.00  0.00    +0.000 C 
BRANCH  66  71
ATOM     67  H   UNK     1      78.100  60.129 112.364  0.00  0.00    +0.000 HD
ATOM     68  H   UNK     1      79.377  60.307 111.161  0.00  0.00    +0.000 HD
ATOM     69  O   UNK     1      78.714  62.566 110.497  0.00  0.00    +0.000 OA
ATOM     70  N   UNK     1      78.582  60.675 111.664  0.00  0.00    +0.000 N 
ATOM     71  C   UNK     1      78.158  61.929 111.354  0.00  0.00    +0.000 C 
ENDBRANCH  66  71
BRANCH  66  74
ATOM     72  H   UNK     1      77.217  62.520 114.209  0.00  0.00    +0.000 HD
ATOM     73  H   UNK     1      77.802  61.126 113.572  0.00  0.00    +0.000 HD
ATOM     74  N   UNK     1      77.016  61.795 113.499  0.00  0.00    +0.000 NA
ENDBRANCH  66  74
ENDBRANCH  65  66
ENDBRANCH  64  65
ENDBRANCH  62  64
BRANCH  62  75
ATOM     75  C   UNK     1      74.698  64.930 113.335  0.00  0.00    +0.000 C 
BRANCH  75  80
ATOM     76  H   UNK     1      76.127  63.642 115.136  0.00  0.00    +0.000 HD
ATOM     77  H   UNK     1      74.819  62.955 116.058  0.00  0.00    +0.000 HD
ATOM     78  O   UNK     1      73.017  63.891 114.706  0.00  0.00    +0.000 OA
ATOM     79  N   UNK     1      75.134  63.496 115.263  0.00  0.00    +0.000 N 
ATOM     80  C   UNK     1      74.182  64.073 114.481  0.00  0.00    +0.000 C 
ENDBRANCH  75  80
ENDBRANCH  62  75
ENDBRANCH  56  62
ENDBRANCH  50  61
ENDBRANCH   1  51
BRANCH   1  81
ATOM     81  C   UNK     1      74.542  63.204 106.634  0.00  0.00    +0.000 C 
BRANCH  81  87
ATOM     82  H   UNK     1      78.417  64.275 108.713  0.00  0.00    +0.000 HD
ATOM     83  N   UNK     1      76.638  64.383 106.177  0.00  0.00    +0.000 NA
ATOM     84  C   UNK     1      77.696  64.648 106.816  0.00  0.00    +0.000 A 
ATOM     85  N   UNK     1      77.664  64.186 107.994  0.00  0.00    +0.000 N 
ATOM     86  C   UNK     1      76.554  63.598 108.150  0.00  0.00    +0.000 A 
ATOM     87  C   UNK     1      75.910  63.734 106.981  0.00  0.00    +0.000 A 
ENDBRANCH  81  87
BRANCH  81  88
ATOM     88  O   UNK     1      74.675  62.330 105.530  0.00  0.00    +0.000 OA
BRANCH  88  94
ATOM     89  C   UNK     1      75.921  60.497 104.630  0.00  0.00    +0.000 C 
ATOM     90  C   UNK     1      76.374  59.086 104.999  0.00  0.00    +0.000 C 
ATOM     91  C   UNK     1      75.165  58.275 105.430  0.00  0.00    +0.000 C 
ATOM     92  C   UNK     1      74.414  58.966 106.557  0.00  0.00    +0.000 C 
ATOM     93  O   UNK     1      74.084  60.267 106.166  0.00  0.00    +0.000 OA
ATOM     94  C   UNK     1      75.205  61.058 105.848  0.00  0.00    +0.000 C 
BRANCH  90  96
ATOM     95  H   UNK     1      77.843  58.773 103.802  0.00  0.00    +0.000 HD
ATOM     96  O   UNK     1      76.978  58.375 103.941  0.00  0.00    +0.000 OA
ENDBRANCH  90  96
BRANCH  91  98
ATOM     97  H   UNK     1      74.959  56.535 106.315  0.00  0.00    +0.000 HD
ATOM     98  O   UNK     1      75.638  57.014 105.840  0.00  0.00    +0.000 OA
ENDBRANCH  91  98
BRANCH  89  99
ATOM     99  O   UNK     1      76.994  61.356 104.354  0.00  0.00    +0.000 OA
BRANCH  99 105
ATOM    100  C   UNK     1      77.255  63.179 102.810  0.00  0.00    +0.000 C 
ATOM    101  C   UNK     1      77.521  63.431 101.327  0.00  0.00    +0.000 C 
ATOM    102  C   UNK     1      76.396  62.785 100.514  0.00  0.00    +0.000 C 
ATOM    103  C   UNK     1      76.018  61.366 100.953  0.00  0.00    +0.000 C 
ATOM    104  O   UNK     1      75.940  61.261 102.350  0.00  0.00    +0.000 OA
ATOM    105  C   UNK     1      77.114  61.686 102.992  0.00  0.00    +0.000 C 
BRANCH 100 107
ATOM    106  H   UNK     1      75.864  64.572 102.677  0.00  0.00    +0.000 HD
ATOM    107  O   UNK     1      76.070  63.816 103.236  0.00  0.00    +0.000 OA
ENDBRANCH 100 107
BRANCH 102 109
ATOM    108  H   UNK     1      75.304  64.360  99.985  0.00  0.00    +0.000 HD
ATOM    109  O   UNK     1      75.264  63.626 100.601  0.00  0.00    +0.000 OA
ENDBRANCH 102 109
BRANCH 101 110
ATOM    110  O   UNK     1      78.733  62.838 100.949  0.00  0.00    +0.000 OA
BRANCH 110 115
ATOM    111  H   UNK     1      79.424  64.803  99.568  0.00  0.00    +0.000 HD
ATOM    112  H   UNK     1      80.946  65.128 100.407  0.00  0.00    +0.000 HD
ATOM    113  O   UNK     1      80.757  63.219 101.884  0.00  0.00    +0.000 OA
ATOM    114  N   UNK     1      80.083  64.617 100.312  0.00  0.00    +0.000 N 
ATOM    115  C   UNK     1      79.878  63.550 101.127  0.00  0.00    +0.000 C 
ENDBRANCH 110 115
ENDBRANCH 101 110
BRANCH 103 116
ATOM    116  C   UNK     1      76.889  60.274 100.340  0.00  0.00    +0.000 C 
BRANCH 116 118
ATOM    117  H   UNK     1      75.735  59.075 101.380  0.00  0.00    +0.000 HD
ATOM    118  O   UNK     1      76.590  59.035 100.948  0.00  0.00    +0.000 OA
ENDBRANCH 116 118
ENDBRANCH 103 116
ENDBRANCH  99 105
ENDBRANCH  89  99
BRANCH  92 119
ATOM    119  C   UNK     1      73.106  58.267 106.904  0.00  0.00    +0.000 C 
BRANCH 119 121
ATOM    120  H   UNK     1      73.212  57.354 105.175  0.00  0.00    +0.000 HD
ATOM    121  O   UNK     1      72.920  57.148 106.065  0.00  0.00    +0.000 OA
ENDBRANCH 119 121
ENDBRANCH  92 119
ENDBRANCH  88  94
ENDBRANCH  81  88
ENDBRANCH   1  81
TORSDOF 45
ENDMDL
MODEL 9
REMARK VINA RESULT:      -6.8      5.584     10.503
REMARK  Name = ./1214.pdb
REMARK  51 active torsions:
REMARK  status: ('A' for Active; 'I' for Inactive)
REMARK    1  A    between atoms: C_85  and  S_87
REMARK    2  A    between atoms: C_86  and  S_87
REMARK    3  A    between atoms: S_87  and  C_88
REMARK    4  A    between atoms: C_88  and  C_89
REMARK    5  A    between atoms: C_89  and  C_90
REMARK    6  A    between atoms: C_90  and  N_91
REMARK    7  A    between atoms: C_93  and  C_96
REMARK    8  A    between atoms: C_98  and  C_101
REMARK    9  A    between atoms: C_103  and  C_104
REMARK   10  A    between atoms: C_104  and  C_105
REMARK   11  A    between atoms: C_105  and  N_106
REMARK   12  A    between atoms: C_108  and  C_177
REMARK   13  A    between atoms: C_113  and  C_140
REMARK   14  A    between atoms: O_114  and  C_115
REMARK   15  A    between atoms: C_118  and  O_119
REMARK   16  A    between atoms: O_119  and  C_120
REMARK   17  A    between atoms: O_121  and  C_122
REMARK   18  A    between atoms: O_123  and  C_124
REMARK   19  A    between atoms: C_124  and  C_125
REMARK   20  A    between atoms: C_127  and  O_128
REMARK   21  A    between atoms: O_128  and  C_129
REMARK   22  A    between atoms: O_130  and  C_131
REMARK   23  A    between atoms: O_132  and  C_133
REMARK   24  A    between atoms: O_134  and  C_135
REMARK   25  A    between atoms: C_135  and  C_136
REMARK   26  A    between atoms: C_138  and  O_139
REMARK   27  A    between atoms: O_139  and  C_140
REMARK   28  A    between atoms: C_140  and  C_164
REMARK   29  A    between atoms: C_144  and  C_146
REMARK   30  A    between atoms: N_145  and  C_146
REMARK   31  A    between atoms: C_146  and  C_147
REMARK   32  A    between atoms: C_147  and  N_148
REMARK   33  A    between atoms: N_148  and  C_153
REMARK   34  A    between atoms: C_151  and  C_152
REMARK   35  A    between atoms: C_152  and  C_153
REMARK   36  A    between atoms: C_153  and  C_155
REMARK   37  A    between atoms: C_158  and  C_159
REMARK   38  A    between atoms: C_160  and  C_162
REMARK   39  A    between atoms: N_163  and  C_164
REMARK   40  A    between atoms: C_164  and  C_166
REMARK   41  A    between atoms: N_167  and  C_169
REMARK   42  A    between atoms: C_168  and  C_169
REMARK   43  A    between atoms: C_169  and  C_171
REMARK   44  A    between atoms: O_170  and  C_171
REMARK   45  A    between atoms: C_171  and  C_173
REMARK   46  A    between atoms: C_172  and  C_173
REMARK   47  A    between atoms: C_173  and  C_175
REMARK   48  A    between atoms: N_176  and  C_177
REMARK   49  A    between atoms: C_177  and  C_179
REMARK   50  A    between atoms: O_178  and  C_179
REMARK   51  A    between atoms: C_179  and  C_180
REMARK                            x       y       z     vdW  Elec       q    Type
REMARK                         _______ _______ _______ _____ _____    ______ ____
ROOT
ATOM      1  C   UNK     1      74.125  62.933 106.887  0.00  0.00    +0.000 C 
ENDROOT
BRANCH   1   4
ATOM      2  H   UNK     1      70.774  62.432 106.433  0.00  0.00    +0.000 HD
ATOM      3  O   UNK     1      72.212  63.016 108.291  0.00  0.00    +0.000 OA
ATOM      4  C   UNK     1      72.622  62.801 107.178  0.00  0.00    +0.000 C 
ATOM      5  N   UNK     1      71.763  62.458 106.168  0.00  0.00    +0.000 N 
BRANCH   5   7
ATOM      6  C   UNK     1      71.638  60.487 104.708  0.00  0.00    +0.000 C 
ATOM      7  C   UNK     1      72.113  61.945 104.834  0.00  0.00    +0.000 C 
BRANCH   7   8
ATOM      8  C   UNK     1      71.464  62.829 103.755  0.00  0.00    +0.000 C 
BRANCH   8  10
ATOM      9  H   UNK     1      72.456  64.525 103.792  0.00  0.00    +0.000 HD
ATOM     10  O   UNK     1      72.444  63.718 103.273  0.00  0.00    +0.000 OA
ENDBRANCH   8  10
BRANCH   8  12
ATOM     11  C   UNK     1      69.399  62.509 102.330  0.00  0.00    +0.000 C 
ATOM     12  C   UNK     1      70.860  62.079 102.556  0.00  0.00    +0.000 C 
BRANCH  12  15
ATOM     13  H   UNK     1      73.065  60.966 102.049  0.00  0.00    +0.000 HD
ATOM     14  O   UNK     1      71.372  63.041 100.410  0.00  0.00    +0.000 OA
ATOM     15  C   UNK     1      71.696  62.296 101.298  0.00  0.00    +0.000 C 
ATOM     16  N   UNK     1      72.875  61.608 101.282  0.00  0.00    +0.000 N 
BRANCH  16  17
ATOM     17  C   UNK     1      73.894  61.729 100.231  0.00  0.00    +0.000 C 
BRANCH  17  21
ATOM     18  H   UNK     1      75.938  62.787  99.186  0.00  0.00    +0.000 HD
ATOM     19  N   UNK     1      76.234  62.345 100.058  0.00  0.00    +0.000 N 
ATOM     20  O   UNK     1      75.522  61.303 101.940  0.00  0.00    +0.000 OA
ATOM     21  C   UNK     1      75.285  61.766 100.851  0.00  0.00    +0.000 C 
BRANCH  19  22
ATOM     22  C   UNK     1      77.641  62.426 100.457  0.00  0.00    +0.000 C 
BRANCH  22  23
ATOM     23  C   UNK     1      77.940  63.760 101.164  0.00  0.00    +0.000 C 
BRANCH  23  28
ATOM     24  S   UNK     1      80.522  64.033 101.622  0.00  0.00    +0.000 S 
ATOM     25  C   UNK     1      81.080  63.869 102.967  0.00  0.00    +0.000 A 
ATOM     26  C   UNK     1      80.143  63.522 103.868  0.00  0.00    +0.000 A 
ATOM     27  N   UNK     1      79.023  63.440 103.284  0.00  0.00    +0.000 NA
ATOM     28  C   UNK     1      79.157  63.721 102.059  0.00  0.00    +0.000 A 
BRANCH  26  33
ATOM     29  S   UNK     1      81.452  62.486 105.713  0.00  0.00    +0.000 S 
ATOM     30  C   UNK     1      81.080  62.672 107.116  0.00  0.00    +0.000 A 
ATOM     31  C   UNK     1      79.991  63.451 107.224  0.00  0.00    +0.000 A 
ATOM     32  N   UNK     1      79.609  63.809 106.073  0.00  0.00    +0.000 NA
ATOM     33  C   UNK     1      80.359  63.312 105.182  0.00  0.00    +0.000 A 
BRANCH  31  37
ATOM     34  H   UNK     1      79.971  62.014 109.237  0.00  0.00    +0.000 HD
ATOM     35  N   UNK     1      79.485  62.893 109.406  0.00  0.00    +0.000 N 
ATOM     36  O   UNK     1      78.767  64.831 108.539  0.00  0.00    +0.000 OA
ATOM     37  C   UNK     1      79.382  63.801 108.389  0.00  0.00    +0.000 C 
BRANCH  35  38
ATOM     38  C   UNK     1      78.893  63.133 110.726  0.00  0.00    +0.000 C 
BRANCH  38  39
ATOM     39  C   UNK     1      78.208  61.870 111.277  0.00  0.00    +0.000 C 
BRANCH  39  40
ATOM     40  C   UNK     1      77.430  62.157 112.571  0.00  0.00    +0.000 C 
BRANCH  40  43
ATOM     41  C   UNK     1      76.269  60.668 114.617  0.00  0.00    +0.000 C 
ATOM     42  C   UNK     1      78.414  62.299 115.141  0.00  0.00    +0.000 C 
ATOM     43  S   UNK     1      77.900  61.053 113.934  0.00  0.00    +0.000 S 
ENDBRANCH  40  43
ENDBRANCH  39  40
ENDBRANCH  38  39
ENDBRANCH  35  38
ENDBRANCH  31  37
ENDBRANCH  26  33
ENDBRANCH  23  28
ENDBRANCH  22  23
ENDBRANCH  19  22
ENDBRANCH  17  21
BRANCH  17  44
ATOM     44  C   UNK     1      73.784  60.695  99.101  0.00  0.00    +0.000 C 
ATOM     45  C   UNK     1      72.702  59.651  99.362  0.00  0.00    +0.000 C 
BRANCH  44  47
ATOM     46  H   UNK     1      75.715  60.633  99.299  0.00  0.00    +0.000 HD
ATOM     47  O   UNK     1      75.030  60.051  98.946  0.00  0.00    +0.000 OA
ENDBRANCH  44  47
ENDBRANCH  17  44
ENDBRANCH  16  17
ENDBRANCH  12  15
ENDBRANCH   8  12
ENDBRANCH   7   8
ENDBRANCH   5   7
ENDBRANCH   1   4
BRANCH   1  51
ATOM     48  H   UNK     1      75.282  62.907 108.665  0.00  0.00    +0.000 HD
ATOM     49  O   UNK     1      75.523  60.767 109.370  0.00  0.00    +0.000 OA
ATOM     50  C   UNK     1      74.959  60.944 108.316  0.00  0.00    +0.000 C 
ATOM     51  N   UNK     1      74.786  62.278 108.029  0.00  0.00    +0.000 N 
BRANCH  50  61
ATOM     52  H   UNK     1      71.808  57.104 107.796  0.00  0.00    +0.000 HD
ATOM     53  H   UNK     1      72.310  56.458 106.209  0.00  0.00    +0.000 HD
ATOM     54  N   UNK     1      72.438  57.176 106.965  0.00  0.00    +0.000 N 
ATOM     55  N   UNK     1      75.194  59.768 106.406  0.00  0.00    +0.000 NA
ATOM     56  C   UNK     1      74.921  58.855 105.585  0.00  0.00    +0.000 A 
ATOM     57  N   UNK     1      74.017  57.998 105.764  0.00  0.00    +0.000 NA
ATOM     58  C   UNK     1      73.340  58.060 106.834  0.00  0.00    +0.000 A 
ATOM     59  C   UNK     1      72.737  59.078 109.025  0.00  0.00    +0.000 C 
ATOM     60  C   UNK     1      73.576  59.024 107.758  0.00  0.00    +0.000 A 
ATOM     61  C   UNK     1      74.570  59.913 107.495  0.00  0.00    +0.000 A 
BRANCH  56  62
ATOM     62  C   UNK     1      75.739  58.832 104.317  0.00  0.00    +0.000 C 
BRANCH  62  64
ATOM     63  H   UNK     1      76.017  56.983 103.448  0.00  0.00    +0.000 HD
ATOM     64  N   UNK     1      75.276  57.727 103.473  0.00  0.00    +0.000 NA
BRANCH  64  65
ATOM     65  C   UNK     1      74.940  58.130 102.106  0.00  0.00    +0.000 C 
BRANCH  65  66
ATOM     66  C   UNK     1      75.962  57.582 101.101  0.00  0.00    +0.000 C 
BRANCH  66  71
ATOM     67  H   UNK     1      75.034  55.210 100.953  0.00  0.00    +0.000 HD
ATOM     68  H   UNK     1      76.342  54.311 101.722  0.00  0.00    +0.000 HD
ATOM     69  O   UNK     1      77.737  56.281 102.115  0.00  0.00    +0.000 OA
ATOM     70  N   UNK     1      75.935  55.181 101.410  0.00  0.00    +0.000 N 
ATOM     71  C   UNK     1      76.649  56.322 101.600  0.00  0.00    +0.000 C 
ENDBRANCH  66  71
BRANCH  66  74
ATOM     72  H   UNK     1      76.540  59.467 100.469  0.00  0.00    +0.000 HD
ATOM     73  H   UNK     1      77.645  58.307 100.113  0.00  0.00    +0.000 HD
ATOM     74  N   UNK     1      76.983  58.612 100.847  0.00  0.00    +0.000 NA
ENDBRANCH  66  74
ENDBRANCH  65  66
ENDBRANCH  64  65
ENDBRANCH  62  64
BRANCH  62  75
ATOM     75  C   UNK     1      77.254  58.798 104.556  0.00  0.00    +0.000 C 
BRANCH  75  80
ATOM     76  H   UNK     1      76.456  61.296 104.808  0.00  0.00    +0.000 HD
ATOM     77  H   UNK     1      77.824  62.078 104.068  0.00  0.00    +0.000 HD
ATOM     78  O   UNK     1      79.054  60.036 103.552  0.00  0.00    +0.000 OA
ATOM     79  N   UNK     1      77.343  61.227 104.327  0.00  0.00    +0.000 N 
ATOM     80  C   UNK     1      77.983  60.049 104.095  0.00  0.00    +0.000 C 
ENDBRANCH  75  80
ENDBRANCH  62  75
ENDBRANCH  56  62
ENDBRANCH  50  61
ENDBRANCH   1  51
BRANCH   1  81
ATOM     81  C   UNK     1      74.508  64.436 106.833  0.00  0.00    +0.000 C 
BRANCH  81  87
ATOM     82  H   UNK     1      77.479  65.589 103.620  0.00  0.00    +0.000 HD
ATOM     83  N   UNK     1      74.535  65.307 104.546  0.00  0.00    +0.000 NA
ATOM     84  C   UNK     1      75.417  65.610 103.693  0.00  0.00    +0.000 A 
ATOM     85  N   UNK     1      76.586  65.415 104.134  0.00  0.00    +0.000 N 
ATOM     86  C   UNK     1      76.486  64.970 105.316  0.00  0.00    +0.000 A 
ATOM     87  C   UNK     1      75.169  64.908 105.563  0.00  0.00    +0.000 A 
ENDBRANCH  81  87
BRANCH  81  88
ATOM     88  O   UNK     1      75.353  64.763 107.918  0.00  0.00    +0.000 OA
BRANCH  88  94
ATOM     89  C   UNK     1      75.958  66.650 109.259  0.00  0.00    +0.000 C 
ATOM     90  C   UNK     1      75.355  67.609 110.283  0.00  0.00    +0.000 C 
ATOM     91  C   UNK     1      74.718  66.803 111.401  0.00  0.00    +0.000 C 
ATOM     92  C   UNK     1      73.703  65.812 110.854  0.00  0.00    +0.000 C 
ATOM     93  O   UNK     1      74.314  65.010 109.885  0.00  0.00    +0.000 OA
ATOM     94  C   UNK     1      74.830  65.740 108.797  0.00  0.00    +0.000 C 
BRANCH  90  96
ATOM     95  H   UNK     1      76.011  68.575 111.808  0.00  0.00    +0.000 HD
ATOM     96  O   UNK     1      76.291  68.471 110.893  0.00  0.00    +0.000 OA
ENDBRANCH  90  96
BRANCH  91  98
ATOM     97  H   UNK     1      73.610  68.376 111.783  0.00  0.00    +0.000 HD
ATOM     98  O   UNK     1      74.106  67.721 112.274  0.00  0.00    +0.000 OA
ENDBRANCH  91  98
BRANCH  89  99
ATOM     99  O   UNK     1      76.444  67.309 108.120  0.00  0.00    +0.000 OA
BRANCH  99 105
ATOM    100  C   UNK     1      75.402  68.316 106.203  0.00  0.00    +0.000 C 
ATOM    101  C   UNK     1      74.400  69.414 105.854  0.00  0.00    +0.000 C 
ATOM    102  C   UNK     1      74.941  70.749 106.374  0.00  0.00    +0.000 C 
ATOM    103  C   UNK     1      75.503  70.705 107.799  0.00  0.00    +0.000 C 
ATOM    104  O   UNK     1      76.299  69.568 108.005  0.00  0.00    +0.000 OA
ATOM    105  C   UNK     1      75.629  68.373 107.695  0.00  0.00    +0.000 C 
BRANCH 100 107
ATOM    106  H   UNK     1      77.248  69.004 106.083  0.00  0.00    +0.000 HD
ATOM    107  O   UNK     1      76.631  68.509 105.535  0.00  0.00    +0.000 OA
ENDBRANCH 100 107
BRANCH 102 109
ATOM    108  H   UNK     1      75.771  70.919 104.576  0.00  0.00    +0.000 HD
ATOM    109  O   UNK     1      75.945  71.184 105.481  0.00  0.00    +0.000 OA
ENDBRANCH 102 109
BRANCH 101 110
ATOM    110  O   UNK     1      73.173  69.162 106.483  0.00  0.00    +0.000 OA
BRANCH 110 115
ATOM    111  H   UNK     1      72.908  66.680 106.345  0.00  0.00    +0.000 HD
ATOM    112  H   UNK     1      71.496  66.676 105.281  0.00  0.00    +0.000 HD
ATOM    113  O   UNK     1      71.459  69.082 105.011  0.00  0.00    +0.000 OA
ATOM    114  N   UNK     1      72.182  67.164 105.835  0.00  0.00    +0.000 N 
ATOM    115  C   UNK     1      72.208  68.520 105.772  0.00  0.00    +0.000 C 
ENDBRANCH 110 115
ENDBRANCH 101 110
BRANCH 103 116
ATOM    116  C   UNK     1      74.449  70.876 108.888  0.00  0.00    +0.000 C 
BRANCH 116 118
ATOM    117  H   UNK     1      74.427  71.083 110.839  0.00  0.00    +0.000 HD
ATOM    118  O   UNK     1      75.082  70.998 110.144  0.00  0.00    +0.000 OA
ENDBRANCH 116 118
ENDBRANCH 103 116
ENDBRANCH  99 105
ENDBRANCH  89  99
BRANCH  92 119
ATOM    119  C   UNK     1      73.165  64.873 111.925  0.00  0.00    +0.000 C 
BRANCH 119 121
ATOM    120  H   UNK     1      72.463  66.499 112.759  0.00  0.00    +0.000 HD
ATOM    121  O   UNK     1      72.261  65.562 112.761  0.00  0.00    +0.000 OA
ENDBRANCH 119 121
ENDBRANCH  92 119
ENDBRANCH  88  94
ENDBRANCH  81  88
ENDBRANCH   1  81
TORSDOF 45
ENDMDL
MODEL 10
REMARK VINA RESULT:      -6.8      3.412      9.509
REMARK  Name = ./1214.pdb
REMARK  51 active torsions:
REMARK  status: ('A' for Active; 'I' for Inactive)
REMARK    1  A    between atoms: C_85  and  S_87
REMARK    2  A    between atoms: C_86  and  S_87
REMARK    3  A    between atoms: S_87  and  C_88
REMARK    4  A    between atoms: C_88  and  C_89
REMARK    5  A    between atoms: C_89  and  C_90
REMARK    6  A    between atoms: C_90  and  N_91
REMARK    7  A    between atoms: C_93  and  C_96
REMARK    8  A    between atoms: C_98  and  C_101
REMARK    9  A    between atoms: C_103  and  C_104
REMARK   10  A    between atoms: C_104  and  C_105
REMARK   11  A    between atoms: C_105  and  N_106
REMARK   12  A    between atoms: C_108  and  C_177
REMARK   13  A    between atoms: C_113  and  C_140
REMARK   14  A    between atoms: O_114  and  C_115
REMARK   15  A    between atoms: C_118  and  O_119
REMARK   16  A    between atoms: O_119  and  C_120
REMARK   17  A    between atoms: O_121  and  C_122
REMARK   18  A    between atoms: O_123  and  C_124
REMARK   19  A    between atoms: C_124  and  C_125
REMARK   20  A    between atoms: C_127  and  O_128
REMARK   21  A    between atoms: O_128  and  C_129
REMARK   22  A    between atoms: O_130  and  C_131
REMARK   23  A    between atoms: O_132  and  C_133
REMARK   24  A    between atoms: O_134  and  C_135
REMARK   25  A    between atoms: C_135  and  C_136
REMARK   26  A    between atoms: C_138  and  O_139
REMARK   27  A    between atoms: O_139  and  C_140
REMARK   28  A    between atoms: C_140  and  C_164
REMARK   29  A    between atoms: C_144  and  C_146
REMARK   30  A    between atoms: N_145  and  C_146
REMARK   31  A    between atoms: C_146  and  C_147
REMARK   32  A    between atoms: C_147  and  N_148
REMARK   33  A    between atoms: N_148  and  C_153
REMARK   34  A    between atoms: C_151  and  C_152
REMARK   35  A    between atoms: C_152  and  C_153
REMARK   36  A    between atoms: C_153  and  C_155
REMARK   37  A    between atoms: C_158  and  C_159
REMARK   38  A    between atoms: C_160  and  C_162
REMARK   39  A    between atoms: N_163  and  C_164
REMARK   40  A    between atoms: C_164  and  C_166
REMARK   41  A    between atoms: N_167  and  C_169
REMARK   42  A    between atoms: C_168  and  C_169
REMARK   43  A    between atoms: C_169  and  C_171
REMARK   44  A    between atoms: O_170  and  C_171
REMARK   45  A    between atoms: C_171  and  C_173
REMARK   46  A    between atoms: C_172  and  C_173
REMARK   47  A    between atoms: C_173  and  C_175
REMARK   48  A    between atoms: N_176  and  C_177
REMARK   49  A    between atoms: C_177  and  C_179
REMARK   50  A    between atoms: O_178  and  C_179
REMARK   51  A    between atoms: C_179  and  C_180
REMARK                            x       y       z     vdW  Elec       q    Type
REMARK                         _______ _______ _______ _____ _____    ______ ____
ROOT
ATOM      1  C   UNK     1      73.619  58.038 104.464  0.00  0.00    +0.000 C 
ENDROOT
BRANCH   1   4
ATOM      2  H   UNK     1      76.667  58.618 105.898  0.00  0.00    +0.000 HD
ATOM      3  O   UNK     1      74.881  57.010 106.194  0.00  0.00    +0.000 OA
ATOM      4  C   UNK     1      74.839  57.906 105.389  0.00  0.00    +0.000 C 
ATOM      5  N   UNK     1      75.874  58.797 105.277  0.00  0.00    +0.000 N 
BRANCH   5   7
ATOM      6  C   UNK     1      75.846  61.243 105.511  0.00  0.00    +0.000 C 
ATOM      7  C   UNK     1      75.885  60.062 104.524  0.00  0.00    +0.000 C 
BRANCH   7   8
ATOM      8  C   UNK     1      77.143  60.125 103.642  0.00  0.00    +0.000 C 
BRANCH   8  10
ATOM      9  H   UNK     1      76.653  61.373 102.205  0.00  0.00    +0.000 HD
ATOM     10  O   UNK     1      76.739  60.425 102.327  0.00  0.00    +0.000 OA
ENDBRANCH   8  10
BRANCH   8  12
ATOM     11  C   UNK     1      79.570  60.472 104.267  0.00  0.00    +0.000 C 
ATOM     12  C   UNK     1      78.203  61.155 104.068  0.00  0.00    +0.000 C 
BRANCH  12  15
ATOM     13  H   UNK     1      76.709  63.183 103.991  0.00  0.00    +0.000 HD
ATOM     14  O   UNK     1      79.119  62.323 102.174  0.00  0.00    +0.000 OA
ATOM     15  C   UNK     1      78.300  62.291 103.055  0.00  0.00    +0.000 C 
ATOM     16  N   UNK     1      77.344  63.255 103.200  0.00  0.00    +0.000 N 
BRANCH  16  17
ATOM     17  C   UNK     1      77.167  64.393 102.289  0.00  0.00    +0.000 C 
BRANCH  17  21
ATOM     18  H   UNK     1      75.710  62.329 102.185  0.00  0.00    +0.000 HD
ATOM     19  N   UNK     1      75.640  62.799 101.281  0.00  0.00    +0.000 N 
ATOM     20  O   UNK     1      76.184  64.666 100.118  0.00  0.00    +0.000 OA
ATOM     21  C   UNK     1      76.284  63.992 101.114  0.00  0.00    +0.000 C 
BRANCH  19  22
ATOM     22  C   UNK     1      74.789  62.219 100.240  0.00  0.00    +0.000 C 
BRANCH  22  23
ATOM     23  C   UNK     1      73.366  61.964 100.767  0.00  0.00    +0.000 C 
BRANCH  23  28
ATOM     24  S   UNK     1      72.865  60.780  98.465  0.00  0.00    +0.000 S 
ATOM     25  C   UNK     1      71.513  60.336  98.114  0.00  0.00    +0.000 A 
ATOM     26  C   UNK     1      70.611  60.655  99.059  0.00  0.00    +0.000 A 
ATOM     27  N   UNK     1      71.201  61.256 100.004  0.00  0.00    +0.000 NA
ATOM     28  C   UNK     1      72.436  61.344  99.749  0.00  0.00    +0.000 A 
BRANCH  26  33
ATOM     29  S   UNK     1      68.387  60.833  97.957  0.00  0.00    +0.000 S 
ATOM     30  C   UNK     1      67.194  60.209  98.531  0.00  0.00    +0.000 A 
ATOM     31  C   UNK     1      67.493  59.562  99.669  0.00  0.00    +0.000 A 
ATOM     32  N   UNK     1      68.729  59.673  99.910  0.00  0.00    +0.000 NA
ATOM     33  C   UNK     1      69.295  60.367  99.014  0.00  0.00    +0.000 A 
BRANCH  31  37
ATOM     34  H   UNK     1      65.195  60.361 100.114  0.00  0.00    +0.000 HD
ATOM     35  N   UNK     1      65.372  59.471 100.577  0.00  0.00    +0.000 N 
ATOM     36  O   UNK     1      66.867  57.864 101.033  0.00  0.00    +0.000 OA
ATOM     37  C   UNK     1      66.605  58.893 100.455  0.00  0.00    +0.000 C 
BRANCH  35  38
ATOM     38  C   UNK     1      64.305  58.863 101.378  0.00  0.00    +0.000 C 
BRANCH  38  39
ATOM     39  C   UNK     1      63.122  59.829 101.572  0.00  0.00    +0.000 C 
BRANCH  39  40
ATOM     40  C   UNK     1      63.195  60.561 102.921  0.00  0.00    +0.000 C 
BRANCH  40  43
ATOM     41  C   UNK     1      63.188  58.529 104.824  0.00  0.00    +0.000 C 
ATOM     42  C   UNK     1      61.072  58.813 103.098  0.00  0.00    +0.000 C 
ATOM     43  S   UNK     1      62.108  59.830 104.179  0.00  0.00    +0.000 S 
ENDBRANCH  40  43
ENDBRANCH  39  40
ENDBRANCH  38  39
ENDBRANCH  35  38
ENDBRANCH  31  37
ENDBRANCH  26  33
ENDBRANCH  23  28
ENDBRANCH  22  23
ENDBRANCH  19  22
ENDBRANCH  17  21
BRANCH  17  44
ATOM     44  C   UNK     1      76.695  65.692 102.959  0.00  0.00    +0.000 C 
ATOM     45  C   UNK     1      76.932  65.695 104.467  0.00  0.00    +0.000 C 
BRANCH  44  47
ATOM     46  H   UNK     1      75.229  66.328 101.856  0.00  0.00    +0.000 HD
ATOM     47  O   UNK     1      75.319  65.868 102.700  0.00  0.00    +0.000 OA
ENDBRANCH  44  47
ENDBRANCH  17  44
ENDBRANCH  16  17
ENDBRANCH  12  15
ENDBRANCH   8  12
ENDBRANCH   7   8
ENDBRANCH   5   7
ENDBRANCH   1   4
BRANCH   1  51
ATOM     48  H   UNK     1      71.948  56.860 105.035  0.00  0.00    +0.000 HD
ATOM     49  O   UNK     1      70.970  57.782 106.858  0.00  0.00    +0.000 OA
ATOM     50  C   UNK     1      71.888  58.386 106.356  0.00  0.00    +0.000 C 
ATOM     51  N   UNK     1      72.466  57.696 105.316  0.00  0.00    +0.000 N 
BRANCH  50  61
ATOM     52  H   UNK     1      74.418  60.930 109.831  0.00  0.00    +0.000 HD
ATOM     53  H   UNK     1      74.178  62.609 109.273  0.00  0.00    +0.000 HD
ATOM     54  N   UNK     1      74.005  61.583 109.128  0.00  0.00    +0.000 N 
ATOM     55  N   UNK     1      71.890  60.626 106.088  0.00  0.00    +0.000 NA
ATOM     56  C   UNK     1      72.186  61.812 106.384  0.00  0.00    +0.000 A 
ATOM     57  N   UNK     1      72.880  62.134 107.383  0.00  0.00    +0.000 NA
ATOM     58  C   UNK     1      73.308  61.207 108.135  0.00  0.00    +0.000 A 
ATOM     59  C   UNK     1      73.573  58.818 108.785  0.00  0.00    +0.000 C 
ATOM     60  C   UNK     1      73.034  59.906 107.870  0.00  0.00    +0.000 A 
ATOM     61  C   UNK     1      72.277  59.637 106.773  0.00  0.00    +0.000 A 
BRANCH  56  62
ATOM     62  C   UNK     1      71.672  62.880 105.450  0.00  0.00    +0.000 C 
BRANCH  62  64
ATOM     63  H   UNK     1      72.646  64.113 106.784  0.00  0.00    +0.000 HD
ATOM     64  N   UNK     1      71.883  64.192 106.066  0.00  0.00    +0.000 NA
BRANCH  64  65
ATOM     65  C   UNK     1      70.682  64.752 106.688  0.00  0.00    +0.000 C 
BRANCH  65  66
ATOM     66  C   UNK     1      71.046  65.741 107.804  0.00  0.00    +0.000 C 
BRANCH  66  71
ATOM     67  H   UNK     1      73.527  65.253 108.143  0.00  0.00    +0.000 HD
ATOM     68  H   UNK     1      73.479  64.454 109.715  0.00  0.00    +0.000 HD
ATOM     69  O   UNK     1      71.056  64.667 109.975  0.00  0.00    +0.000 OA
ATOM     70  N   UNK     1      73.013  64.905 108.940  0.00  0.00    +0.000 N 
ATOM     71  C   UNK     1      71.663  65.054 109.010  0.00  0.00    +0.000 C 
ENDBRANCH  66  71
BRANCH  66  74
ATOM     72  H   UNK     1      69.834  66.583 109.257  0.00  0.00    +0.000 HD
ATOM     73  H   UNK     1      68.982  65.883 108.041  0.00  0.00    +0.000 HD
ATOM     74  N   UNK     1      69.828  66.449 108.231  0.00  0.00    +0.000 NA
ENDBRANCH  66  74
ENDBRANCH  65  66
ENDBRANCH  64  65
ENDBRANCH  62  64
BRANCH  62  75
ATOM     75  C   UNK     1      70.221  62.665 105.000  0.00  0.00    +0.000 C 
BRANCH  75  80
ATOM     76  H   UNK     1      71.379  60.727 103.642  0.00  0.00    +0.000 HD
ATOM     77  H   UNK     1      70.683  61.056 102.081  0.00  0.00    +0.000 HD
ATOM     78  O   UNK     1      69.365  62.988 102.776  0.00  0.00    +0.000 OA
ATOM     79  N   UNK     1      70.797  61.308 103.054  0.00  0.00    +0.000 N 
ATOM     80  C   UNK     1      70.069  62.359 103.519  0.00  0.00    +0.000 C 
ENDBRANCH  75  80
ENDBRANCH  62  75
ENDBRANCH  56  62
ENDBRANCH  50  61
ENDBRANCH   1  51
BRANCH   1  81
ATOM     81  C   UNK     1      73.746  57.022 103.298  0.00  0.00    +0.000 C 
BRANCH  81  87
ATOM     82  H   UNK     1      76.726  57.519  99.929  0.00  0.00    +0.000 HD
ATOM     83  N   UNK     1      74.164  58.484 101.380  0.00  0.00    +0.000 NA
ATOM     84  C   UNK     1      75.031  58.566 100.464  0.00  0.00    +0.000 A 
ATOM     85  N   UNK     1      75.910  57.660 100.565  0.00  0.00    +0.000 N 
ATOM     86  C   UNK     1      75.625  56.954 101.576  0.00  0.00    +0.000 A 
ATOM     87  C   UNK     1      74.508  57.494 102.086  0.00  0.00    +0.000 A 
ENDBRANCH  81  87
BRANCH  81  88
ATOM     88  O   UNK     1      72.463  56.601 102.876  0.00  0.00    +0.000 OA
BRANCH  88  94
ATOM     89  C   UNK     1      71.551  54.612 101.909  0.00  0.00    +0.000 C 
ATOM     90  C   UNK     1      71.161  53.187 102.293  0.00  0.00    +0.000 C 
ATOM     91  C   UNK     1      70.231  53.235 103.493  0.00  0.00    +0.000 C 
ATOM     92  C   UNK     1      70.859  54.004 104.644  0.00  0.00    +0.000 C 
ATOM     93  O   UNK     1      71.240  55.274 104.200  0.00  0.00    +0.000 OA
ATOM     94  C   UNK     1      72.172  55.243 103.145  0.00  0.00    +0.000 C 
BRANCH  90  96
ATOM     95  H   UNK     1      70.233  53.127 100.614  0.00  0.00    +0.000 HD
ATOM     96  O   UNK     1      70.477  52.479 101.283  0.00  0.00    +0.000 OA
ENDBRANCH  90  96
BRANCH  91  98
ATOM     97  H   UNK     1      70.526  51.298 103.375  0.00  0.00    +0.000 HD
ATOM     98  O   UNK     1      69.966  51.903 103.863  0.00  0.00    +0.000 OA
ENDBRANCH  91  98
BRANCH  89  99
ATOM     99  O   UNK     1      72.521  54.654 100.897  0.00  0.00    +0.000 OA
BRANCH  99 105
ATOM    100  C   UNK     1      72.257  56.412  99.280  0.00  0.00    +0.000 C 
ATOM    101  C   UNK     1      71.786  56.622  97.841  0.00  0.00    +0.000 C 
ATOM    102  C   UNK     1      70.322  56.185  97.740  0.00  0.00    +0.000 C 
ATOM    103  C   UNK     1      70.000  54.852  98.422  0.00  0.00    +0.000 C 
ATOM    104  O   UNK     1      70.611  54.754  99.682  0.00  0.00    +0.000 OA
ATOM    105  C   UNK     1      71.998  54.966  99.628  0.00  0.00    +0.000 C 
BRANCH 100 107
ATOM    106  H   UNK     1      72.037  57.349 101.003  0.00  0.00    +0.000 HD
ATOM    107  O   UNK     1      71.553  57.243 100.178  0.00  0.00    +0.000 OA
ENDBRANCH 100 107
BRANCH 102 109
ATOM    108  H   UNK     1      68.903  56.878  98.949  0.00  0.00    +0.000 HD
ATOM    109  O   UNK     1      69.527  57.210  98.302  0.00  0.00    +0.000 OA
ENDBRANCH 102 109
BRANCH 101 110
ATOM    110  O   UNK     1      72.543  55.829  96.969  0.00  0.00    +0.000 OA
BRANCH 110 115
ATOM    111  H   UNK     1      73.042  57.783  95.492  0.00  0.00    +0.000 HD
ATOM    112  H   UNK     1      74.805  57.662  95.567  0.00  0.00    +0.000 HD
ATOM    113  O   UNK     1      74.796  55.644  96.905  0.00  0.00    +0.000 OA
ATOM    114  N   UNK     1      73.886  57.360  95.853  0.00  0.00    +0.000 N 
ATOM    115  C   UNK     1      73.791  56.255  96.636  0.00  0.00    +0.000 C 
ENDBRANCH 110 115
ENDBRANCH 101 110
BRANCH 103 116
ATOM    116  C   UNK     1      70.272  53.628  97.553  0.00  0.00    +0.000 C 
BRANCH 116 118
ATOM    117  H   UNK     1      71.190  54.307  95.958  0.00  0.00    +0.000 HD
ATOM    118  O   UNK     1      70.309  54.012  96.194  0.00  0.00    +0.000 OA
ENDBRANCH 116 118
ENDBRANCH 103 116
ENDBRANCH  99 105
ENDBRANCH  89  99
BRANCH  92 119
ATOM    119  C   UNK     1      69.894  54.216 105.802  0.00  0.00    +0.000 C 
BRANCH 119 121
ATOM    120  H   UNK     1      70.673  55.554 107.000  0.00  0.00    +0.000 HD
ATOM    121  O   UNK     1      70.606  54.599 106.960  0.00  0.00    +0.000 OA
ENDBRANCH 119 121
ENDBRANCH  92 119
ENDBRANCH  88  94
ENDBRANCH  81  88
ENDBRANCH   1  81
TORSDOF 45
ENDMDL
MODEL 11
REMARK VINA RESULT:      -6.8      6.375     12.444
REMARK  Name = ./1214.pdb
REMARK  51 active torsions:
REMARK  status: ('A' for Active; 'I' for Inactive)
REMARK    1  A    between atoms: C_85  and  S_87
REMARK    2  A    between atoms: C_86  and  S_87
REMARK    3  A    between atoms: S_87  and  C_88
REMARK    4  A    between atoms: C_88  and  C_89
REMARK    5  A    between atoms: C_89  and  C_90
REMARK    6  A    between atoms: C_90  and  N_91
REMARK    7  A    between atoms: C_93  and  C_96
REMARK    8  A    between atoms: C_98  and  C_101
REMARK    9  A    between atoms: C_103  and  C_104
REMARK   10  A    between atoms: C_104  and  C_105
REMARK   11  A    between atoms: C_105  and  N_106
REMARK   12  A    between atoms: C_108  and  C_177
REMARK   13  A    between atoms: C_113  and  C_140
REMARK   14  A    between atoms: O_114  and  C_115
REMARK   15  A    between atoms: C_118  and  O_119
REMARK   16  A    between atoms: O_119  and  C_120
REMARK   17  A    between atoms: O_121  and  C_122
REMARK   18  A    between atoms: O_123  and  C_124
REMARK   19  A    between atoms: C_124  and  C_125
REMARK   20  A    between atoms: C_127  and  O_128
REMARK   21  A    between atoms: O_128  and  C_129
REMARK   22  A    between atoms: O_130  and  C_131
REMARK   23  A    between atoms: O_132  and  C_133
REMARK   24  A    between atoms: O_134  and  C_135
REMARK   25  A    between atoms: C_135  and  C_136
REMARK   26  A    between atoms: C_138  and  O_139
REMARK   27  A    between atoms: O_139  and  C_140
REMARK   28  A    between atoms: C_140  and  C_164
REMARK   29  A    between atoms: C_144  and  C_146
REMARK   30  A    between atoms: N_145  and  C_146
REMARK   31  A    between atoms: C_146  and  C_147
REMARK   32  A    between atoms: C_147  and  N_148
REMARK   33  A    between atoms: N_148  and  C_153
REMARK   34  A    between atoms: C_151  and  C_152
REMARK   35  A    between atoms: C_152  and  C_153
REMARK   36  A    between atoms: C_153  and  C_155
REMARK   37  A    between atoms: C_158  and  C_159
REMARK   38  A    between atoms: C_160  and  C_162
REMARK   39  A    between atoms: N_163  and  C_164
REMARK   40  A    between atoms: C_164  and  C_166
REMARK   41  A    between atoms: N_167  and  C_169
REMARK   42  A    between atoms: C_168  and  C_169
REMARK   43  A    between atoms: C_169  and  C_171
REMARK   44  A    between atoms: O_170  and  C_171
REMARK   45  A    between atoms: C_171  and  C_173
REMARK   46  A    between atoms: C_172  and  C_173
REMARK   47  A    between atoms: C_173  and  C_175
REMARK   48  A    between atoms: N_176  and  C_177
REMARK   49  A    between atoms: C_177  and  C_179
REMARK   50  A    between atoms: O_178  and  C_179
REMARK   51  A    between atoms: C_179  and  C_180
REMARK                            x       y       z     vdW  Elec       q    Type
REMARK                         _______ _______ _______ _____ _____    ______ ____
ROOT
ATOM      1  C   UNK     1      76.375  66.359 107.542  0.00  0.00    +0.000 C 
ENDROOT
BRANCH   1   4
ATOM      2  H   UNK     1      76.829  69.593 108.550  0.00  0.00    +0.000 HD
ATOM      3  O   UNK     1      78.252  67.795 107.774  0.00  0.00    +0.000 OA
ATOM      4  C   UNK     1      77.060  67.685 107.909  0.00  0.00    +0.000 C 
ATOM      5  N   UNK     1      76.306  68.733 108.368  0.00  0.00    +0.000 N 
BRANCH   5   7
ATOM      6  C   UNK     1      74.735  69.568 110.062  0.00  0.00    +0.000 C 
ATOM      7  C   UNK     1      74.901  68.698 108.804  0.00  0.00    +0.000 C 
BRANCH   7   8
ATOM      8  C   UNK     1      73.996  69.200 107.666  0.00  0.00    +0.000 C 
BRANCH   8  10
ATOM      9  H   UNK     1      72.452  68.533 108.683  0.00  0.00    +0.000 HD
ATOM     10  O   UNK     1      72.755  68.542 107.773  0.00  0.00    +0.000 OA
ENDBRANCH   8  10
BRANCH   8  12
ATOM     11  C   UNK     1      74.640  71.399 106.595  0.00  0.00    +0.000 C 
ATOM     12  C   UNK     1      73.739  70.716 107.640  0.00  0.00    +0.000 C 
BRANCH  12  15
ATOM     13  H   UNK     1      72.532  70.340 105.459  0.00  0.00    +0.000 HD
ATOM     14  O   UNK     1      71.527  71.476 108.208  0.00  0.00    +0.000 OA
ATOM     15  C   UNK     1      72.267  71.016 107.377  0.00  0.00    +0.000 C 
ATOM     16  N   UNK     1      71.863  70.766 106.097  0.00  0.00    +0.000 N 
BRANCH  16  17
ATOM     17  C   UNK     1      70.524  71.068 105.574  0.00  0.00    +0.000 C 
BRANCH  17  21
ATOM     18  H   UNK     1      71.923  69.772 103.913  0.00  0.00    +0.000 HD
ATOM     19  N   UNK     1      71.472  70.535 103.405  0.00  0.00    +0.000 N 
ATOM     20  O   UNK     1      69.946  72.203 103.542  0.00  0.00    +0.000 OA
ATOM     21  C   UNK     1      70.595  71.339 104.077  0.00  0.00    +0.000 C 
BRANCH  19  22
ATOM     22  C   UNK     1      71.720  70.679 101.969  0.00  0.00    +0.000 C 
BRANCH  22  23
ATOM     23  C   UNK     1      72.790  71.749 101.695  0.00  0.00    +0.000 C 
BRANCH  23  28
ATOM     24  S   UNK     1      75.135  72.065 102.858  0.00  0.00    +0.000 S 
ATOM     25  C   UNK     1      76.172  71.032 102.778  0.00  0.00    +0.000 A 
ATOM     26  C   UNK     1      75.792  69.988 102.020  0.00  0.00    +0.000 A 
ATOM     27  N   UNK     1      74.621  70.198 101.588  0.00  0.00    +0.000 NA
ATOM     28  C   UNK     1      74.198  71.308 102.020  0.00  0.00    +0.000 A 
BRANCH  26  33
ATOM     29  S   UNK     1      77.669  68.462 102.602  0.00  0.00    +0.000 S 
ATOM     30  C   UNK     1      77.990  67.293 101.780  0.00  0.00    +0.000 A 
ATOM     31  C   UNK     1      77.148  67.193 100.740  0.00  0.00    +0.000 A 
ATOM     32  N   UNK     1      76.310  68.139 100.778  0.00  0.00    +0.000 NA
ATOM     33  C   UNK     1      76.533  68.889 101.773  0.00  0.00    +0.000 A 
BRANCH  31  37
ATOM     34  H   UNK     1      79.037  66.910  99.168  0.00  0.00    +0.000 HD
ATOM     35  N   UNK     1      78.318  66.206  99.011  0.00  0.00    +0.000 N 
ATOM     36  O   UNK     1      76.291  65.441  99.586  0.00  0.00    +0.000 OA
ATOM     37  C   UNK     1      77.188  66.228  99.780  0.00  0.00    +0.000 C 
BRANCH  35  38
ATOM     38  C   UNK     1      78.514  65.217  97.945  0.00  0.00    +0.000 C 
BRANCH  38  39
ATOM     39  C   UNK     1      78.614  65.887  96.563  0.00  0.00    +0.000 C 
BRANCH  39  40
ATOM     40  C   UNK     1      79.823  65.376  95.765  0.00  0.00    +0.000 C 
BRANCH  40  43
ATOM     41  C   UNK     1      79.033  67.288  93.902  0.00  0.00    +0.000 C 
ATOM     42  C   UNK     1      81.101  65.575  93.332  0.00  0.00    +0.000 C 
ATOM     43  S   UNK     1      80.535  66.644  94.678  0.00  0.00    +0.000 S 
ENDBRANCH  40  43
ENDBRANCH  39  40
ENDBRANCH  38  39
ENDBRANCH  35  38
ENDBRANCH  31  37
ENDBRANCH  26  33
ENDBRANCH  23  28
ENDBRANCH  22  23
ENDBRANCH  19  22
ENDBRANCH  17  21
BRANCH  17  44
ATOM     44  C   UNK     1      69.441  70.040 105.932  0.00  0.00    +0.000 C 
ATOM     45  C   UNK     1      68.159  70.692 106.444  0.00  0.00    +0.000 C 
BRANCH  44  47
ATOM     46  H   UNK     1      69.329  68.429 107.010  0.00  0.00    +0.000 HD
ATOM     47  O   UNK     1      69.947  69.165 106.916  0.00  0.00    +0.000 OA
ENDBRANCH  44  47
ENDBRANCH  17  44
ENDBRANCH  16  17
ENDBRANCH  12  15
ENDBRANCH   8  12
ENDBRANCH   7   8
ENDBRANCH   5   7
ENDBRANCH   1   4
BRANCH   1  51
ATOM     48  H   UNK     1      78.273  65.448 107.811  0.00  0.00    +0.000 HD
ATOM     49  O   UNK     1      78.021  63.525 108.982  0.00  0.00    +0.000 OA
ATOM     50  C   UNK     1      77.017  64.121 108.670  0.00  0.00    +0.000 C 
ATOM     51  N   UNK     1      77.286  65.316 108.045  0.00  0.00    +0.000 N 
BRANCH  50  61
ATOM     52  H   UNK     1      73.516  60.961 107.024  0.00  0.00    +0.000 HD
ATOM     53  H   UNK     1      72.216  61.235 108.218  0.00  0.00    +0.000 HD
ATOM     54  N   UNK     1      73.183  61.464 107.878  0.00  0.00    +0.000 N 
ATOM     55  N   UNK     1      75.114  64.087 109.881  0.00  0.00    +0.000 NA
ATOM     56  C   UNK     1      73.952  63.707 110.173  0.00  0.00    +0.000 A 
ATOM     57  N   UNK     1      73.310  62.845 109.517  0.00  0.00    +0.000 NA
ATOM     58  C   UNK     1      73.870  62.329 108.504  0.00  0.00    +0.000 A 
ATOM     59  C   UNK     1      75.773  62.040 106.924  0.00  0.00    +0.000 C 
ATOM     60  C   UNK     1      75.125  62.688 108.138  0.00  0.00    +0.000 A 
ATOM     61  C   UNK     1      75.754  63.626 108.895  0.00  0.00    +0.000 A 
BRANCH  56  62
ATOM     62  C   UNK     1      73.333  64.333 111.399  0.00  0.00    +0.000 C 
BRANCH  62  64
ATOM     63  H   UNK     1      71.489  64.056 110.519  0.00  0.00    +0.000 HD
ATOM     64  N   UNK     1      71.986  64.804 111.064  0.00  0.00    +0.000 NA
BRANCH  64  65
ATOM     65  C   UNK     1      71.971  66.055 110.304  0.00  0.00    +0.000 C 
BRANCH  65  66
ATOM     66  C   UNK     1      70.666  66.205 109.510  0.00  0.00    +0.000 C 
BRANCH  66  71
ATOM     67  H   UNK     1      71.220  63.817 108.803  0.00  0.00    +0.000 HD
ATOM     68  H   UNK     1      71.209  63.997 107.049  0.00  0.00    +0.000 HD
ATOM     69  O   UNK     1      70.633  66.374 107.093  0.00  0.00    +0.000 OA
ATOM     70  N   UNK     1      71.110  64.386 107.975  0.00  0.00    +0.000 N 
ATOM     71  C   UNK     1      70.796  65.704 108.081  0.00  0.00    +0.000 C 
ENDBRANCH  66  71
BRANCH  66  74
ATOM     72  H   UNK     1      70.791  68.119 108.729  0.00  0.00    +0.000 HD
ATOM     73  H   UNK     1      70.571  68.105 110.355  0.00  0.00    +0.000 HD
ATOM     74  N   UNK     1      70.283  67.626 109.484  0.00  0.00    +0.000 NA
ENDBRANCH  66  74
ENDBRANCH  65  66
ENDBRANCH  64  65
ENDBRANCH  62  64
BRANCH  62  75
ATOM     75  C   UNK     1      74.197  65.425 112.041  0.00  0.00    +0.000 C 
BRANCH  75  80
ATOM     76  H   UNK     1      71.898  66.201 113.067  0.00  0.00    +0.000 HD
ATOM     77  H   UNK     1      72.365  66.241 114.744  0.00  0.00    +0.000 HD
ATOM     78  O   UNK     1      74.678  65.549 114.394  0.00  0.00    +0.000 OA
ATOM     79  N   UNK     1      72.615  66.101 113.774  0.00  0.00    +0.000 N 
ATOM     80  C   UNK     1      73.882  65.685 113.506  0.00  0.00    +0.000 C 
ENDBRANCH  75  80
ENDBRANCH  62  75
ENDBRANCH  56  62
ENDBRANCH  50  61
ENDBRANCH   1  51
BRANCH   1  81
ATOM     81  C   UNK     1      76.243  66.259 105.998  0.00  0.00    +0.000 C 
BRANCH  81  87
ATOM     82  H   UNK     1      71.834  66.578 105.029  0.00  0.00    +0.000 HD
ATOM     83  N   UNK     1      74.745  67.517 104.529  0.00  0.00    +0.000 NA
ATOM     84  C   UNK     1      73.501  67.556 104.307  0.00  0.00    +0.000 A 
ATOM     85  N   UNK     1      72.868  66.732 105.029  0.00  0.00    +0.000 N 
ATOM     86  C   UNK     1      73.709  66.124 105.753  0.00  0.00    +0.000 A 
ATOM     87  C   UNK     1      74.903  66.636 105.420  0.00  0.00    +0.000 A 
ENDBRANCH  81  87
BRANCH  81  88
ATOM     88  O   UNK     1      76.557  64.949 105.566  0.00  0.00    +0.000 OA
BRANCH  88  94
ATOM     89  C   UNK     1      77.120  63.888 103.497  0.00  0.00    +0.000 C 
ATOM     90  C   UNK     1      78.274  63.781 102.504  0.00  0.00    +0.000 C 
ATOM     91  C   UNK     1      79.533  63.376 103.251  0.00  0.00    +0.000 C 
ATOM     92  C   UNK     1      79.826  64.336 104.393  0.00  0.00    +0.000 C 
ATOM     93  O   UNK     1      78.706  64.423 105.224  0.00  0.00    +0.000 OA
ATOM     94  C   UNK     1      77.551  64.884 104.562  0.00  0.00    +0.000 C 
BRANCH  90  96
ATOM     95  H   UNK     1      78.761  62.148 101.619  0.00  0.00    +0.000 HD
ATOM     96  O   UNK     1      78.082  62.818 101.491  0.00  0.00    +0.000 OA
ENDBRANCH  90  96
BRANCH  91  98
ATOM     97  H   UNK     1      80.731  64.251 101.966  0.00  0.00    +0.000 HD
ATOM     98  O   UNK     1      80.585  63.371 102.315  0.00  0.00    +0.000 OA
ENDBRANCH  91  98
BRANCH  89  99
ATOM     99  O   UNK     1      75.949  64.394 102.914  0.00  0.00    +0.000 OA
BRANCH  99 105
ATOM    100  C   UNK     1      74.866  62.553 101.812  0.00  0.00    +0.000 C 
ATOM    101  C   UNK     1      73.741  61.546 102.041  0.00  0.00    +0.000 C 
ATOM    102  C   UNK     1      72.432  62.316 102.238  0.00  0.00    +0.000 C 
ATOM    103  C   UNK     1      72.530  63.522 103.178  0.00  0.00    +0.000 C 
ATOM    104  O   UNK     1      73.685  64.278 102.930  0.00  0.00    +0.000 OA
ATOM    105  C   UNK     1      74.858  63.508 102.982  0.00  0.00    +0.000 C 
BRANCH 100 107
ATOM    106  H   UNK     1      75.264  62.966  99.923  0.00  0.00    +0.000 HD
ATOM    107  O   UNK     1      74.673  63.278 100.616  0.00  0.00    +0.000 OA
ENDBRANCH 100 107
BRANCH 102 109
ATOM    108  H   UNK     1      71.209  62.262 100.671  0.00  0.00    +0.000 HD
ATOM    109  O   UNK     1      71.987  62.740 100.966  0.00  0.00    +0.000 OA
ENDBRANCH 102 109
BRANCH 101 110
ATOM    110  O   UNK     1      73.993  60.802 103.202  0.00  0.00    +0.000 OA
BRANCH 110 115
ATOM    111  H   UNK     1      73.191  60.151 105.478  0.00  0.00    +0.000 HD
ATOM    112  H   UNK     1      72.248  58.742 104.976  0.00  0.00    +0.000 HD
ATOM    113  O   UNK     1      72.888  58.909 102.647  0.00  0.00    +0.000 OA
ATOM    114  N   UNK     1      72.812  59.549 104.760  0.00  0.00    +0.000 N 
ATOM    115  C   UNK     1      73.187  59.739 103.469  0.00  0.00    +0.000 C 
ENDBRANCH 110 115
ENDBRANCH 101 110
BRANCH 103 116
ATOM    116  C   UNK     1      72.375  63.172 104.655  0.00  0.00    +0.000 C 
BRANCH 116 118
ATOM    117  H   UNK     1      71.192  64.730 104.801  0.00  0.00    +0.000 HD
ATOM    118  O   UNK     1      71.260  63.855 105.188  0.00  0.00    +0.000 OA
ENDBRANCH 116 118
ENDBRANCH 103 116
ENDBRANCH  99 105
ENDBRANCH  89  99
BRANCH  92 119
ATOM    119  C   UNK     1      80.984  63.871 105.266  0.00  0.00    +0.000 C 
BRANCH 119 121
ATOM    120  H   UNK     1      80.552  62.550 106.644  0.00  0.00    +0.000 HD
ATOM    121  O   UNK     1      80.756  62.550 105.708  0.00  0.00    +0.000 OA
ENDBRANCH 119 121
ENDBRANCH  92 119
ENDBRANCH  88  94
ENDBRANCH  81  88
ENDBRANCH   1  81
TORSDOF 45
ENDMDL
MODEL 12
REMARK VINA RESULT:      -6.8      4.949     10.052
REMARK  Name = ./1214.pdb
REMARK  51 active torsions:
REMARK  status: ('A' for Active; 'I' for Inactive)
REMARK    1  A    between atoms: C_85  and  S_87
REMARK    2  A    between atoms: C_86  and  S_87
REMARK    3  A    between atoms: S_87  and  C_88
REMARK    4  A    between atoms: C_88  and  C_89
REMARK    5  A    between atoms: C_89  and  C_90
REMARK    6  A    between atoms: C_90  and  N_91
REMARK    7  A    between atoms: C_93  and  C_96
REMARK    8  A    between atoms: C_98  and  C_101
REMARK    9  A    between atoms: C_103  and  C_104
REMARK   10  A    between atoms: C_104  and  C_105
REMARK   11  A    between atoms: C_105  and  N_106
REMARK   12  A    between atoms: C_108  and  C_177
REMARK   13  A    between atoms: C_113  and  C_140
REMARK   14  A    between atoms: O_114  and  C_115
REMARK   15  A    between atoms: C_118  and  O_119
REMARK   16  A    between atoms: O_119  and  C_120
REMARK   17  A    between atoms: O_121  and  C_122
REMARK   18  A    between atoms: O_123  and  C_124
REMARK   19  A    between atoms: C_124  and  C_125
REMARK   20  A    between atoms: C_127  and  O_128
REMARK   21  A    between atoms: O_128  and  C_129
REMARK   22  A    between atoms: O_130  and  C_131
REMARK   23  A    between atoms: O_132  and  C_133
REMARK   24  A    between atoms: O_134  and  C_135
REMARK   25  A    between atoms: C_135  and  C_136
REMARK   26  A    between atoms: C_138  and  O_139
REMARK   27  A    between atoms: O_139  and  C_140
REMARK   28  A    between atoms: C_140  and  C_164
REMARK   29  A    between atoms: C_144  and  C_146
REMARK   30  A    between atoms: N_145  and  C_146
REMARK   31  A    between atoms: C_146  and  C_147
REMARK   32  A    between atoms: C_147  and  N_148
REMARK   33  A    between atoms: N_148  and  C_153
REMARK   34  A    between atoms: C_151  and  C_152
REMARK   35  A    between atoms: C_152  and  C_153
REMARK   36  A    between atoms: C_153  and  C_155
REMARK   37  A    between atoms: C_158  and  C_159
REMARK   38  A    between atoms: C_160  and  C_162
REMARK   39  A    between atoms: N_163  and  C_164
REMARK   40  A    between atoms: C_164  and  C_166
REMARK   41  A    between atoms: N_167  and  C_169
REMARK   42  A    between atoms: C_168  and  C_169
REMARK   43  A    between atoms: C_169  and  C_171
REMARK   44  A    between atoms: O_170  and  C_171
REMARK   45  A    between atoms: C_171  and  C_173
REMARK   46  A    between atoms: C_172  and  C_173
REMARK   47  A    between atoms: C_173  and  C_175
REMARK   48  A    between atoms: N_176  and  C_177
REMARK   49  A    between atoms: C_177  and  C_179
REMARK   50  A    between atoms: O_178  and  C_179
REMARK   51  A    between atoms: C_179  and  C_180
REMARK                            x       y       z     vdW  Elec       q    Type
REMARK                         _______ _______ _______ _____ _____    ______ ____
ROOT
ATOM      1  C   UNK     1      76.150  67.467 106.096  0.00  0.00    +0.000 C 
ENDROOT
BRANCH   1   4
ATOM      2  H   UNK     1      74.227  64.701 106.673  0.00  0.00    +0.000 HD
ATOM      3  O   UNK     1      76.165  65.720 107.704  0.00  0.00    +0.000 OA
ATOM      4  C   UNK     1      75.625  66.166 106.724  0.00  0.00    +0.000 C 
ATOM      5  N   UNK     1      74.540  65.536 106.173  0.00  0.00    +0.000 N 
BRANCH   5   7
ATOM      6  C   UNK     1      74.990  65.747 103.767  0.00  0.00    +0.000 C 
ATOM      7  C   UNK     1      73.917  65.810 104.868  0.00  0.00    +0.000 C 
BRANCH   7   8
ATOM      8  C   UNK     1      72.800  64.785 104.605  0.00  0.00    +0.000 C 
BRANCH   8  10
ATOM      9  H   UNK     1      74.158  64.090 103.368  0.00  0.00    +0.000 HD
ATOM     10  O   UNK     1      73.255  63.888 103.621  0.00  0.00    +0.000 OA
ENDBRANCH   8  10
BRANCH   8  12
ATOM     11  C   UNK     1      71.137  64.647 106.507  0.00  0.00    +0.000 C 
ATOM     12  C   UNK     1      72.344  63.972 105.828  0.00  0.00    +0.000 C 
BRANCH  12  15
ATOM     13  H   UNK     1      73.507  61.915 106.707  0.00  0.00    +0.000 HD
ATOM     14  O   UNK     1      71.158  62.241 104.650  0.00  0.00    +0.000 OA
ATOM     15  C   UNK     1      72.020  62.533 105.438  0.00  0.00    +0.000 C 
ATOM     16  N   UNK     1      72.825  61.598 106.021  0.00  0.00    +0.000 N 
BRANCH  16  17
ATOM     17  C   UNK     1      72.776  60.160 105.727  0.00  0.00    +0.000 C 
BRANCH  17  21
ATOM     18  H   UNK     1      73.729  58.181 104.474  0.00  0.00    +0.000 HD
ATOM     19  N   UNK     1      74.395  58.429 105.207  0.00  0.00    +0.000 N 
ATOM     20  O   UNK     1      74.909  59.953 106.803  0.00  0.00    +0.000 OA
ATOM     21  C   UNK     1      74.139  59.527 105.978  0.00  0.00    +0.000 C 
BRANCH  19  22
ATOM     22  C   UNK     1      75.629  57.652 105.341  0.00  0.00    +0.000 C 
BRANCH  22  23
ATOM     23  C   UNK     1      76.583  57.920 104.163  0.00  0.00    +0.000 C 
BRANCH  23  28
ATOM     24  S   UNK     1      75.743  56.972 101.851  0.00  0.00    +0.000 S 
ATOM     25  C   UNK     1      74.949  57.793 100.933  0.00  0.00    +0.000 A 
ATOM     26  C   UNK     1      74.772  59.044 101.393  0.00  0.00    +0.000 A 
ATOM     27  N   UNK     1      75.350  59.156 102.513  0.00  0.00    +0.000 NA
ATOM     28  C   UNK     1      75.888  58.056 102.828  0.00  0.00    +0.000 A 
BRANCH  26  33
ATOM     29  S   UNK     1      74.629  60.867  99.705  0.00  0.00    +0.000 S 
ATOM     30  C   UNK     1      73.410  61.658  99.532  0.00  0.00    +0.000 A 
ATOM     31  C   UNK     1      72.449  61.249 100.376  0.00  0.00    +0.000 A 
ATOM     32  N   UNK     1      72.878  60.286 101.074  0.00  0.00    +0.000 NA
ATOM     33  C   UNK     1      74.077  60.017 100.769  0.00  0.00    +0.000 A 
BRANCH  31  37
ATOM     34  H   UNK     1      70.369  59.919 100.223  0.00  0.00    +0.000 HD
ATOM     35  N   UNK     1      70.166  60.903 100.388  0.00  0.00    +0.000 N 
ATOM     36  O   UNK     1      70.997  62.972 100.621  0.00  0.00    +0.000 OA
ATOM     37  C   UNK     1      71.204  61.789 100.478  0.00  0.00    +0.000 C 
BRANCH  35  38
ATOM     38  C   UNK     1      68.767  61.331 100.492  0.00  0.00    +0.000 C 
BRANCH  38  39
ATOM     39  C   UNK     1      67.869  60.578  99.495  0.00  0.00    +0.000 C 
BRANCH  39  40
ATOM     40  C   UNK     1      68.204  60.936  98.039  0.00  0.00    +0.000 C 
BRANCH  40  43
ATOM     41  C   UNK     1      67.999  59.890  95.466  0.00  0.00    +0.000 C 
ATOM     42  C   UNK     1      67.523  58.294  97.648  0.00  0.00    +0.000 C 
ATOM     43  S   UNK     1      68.743  59.498  97.068  0.00  0.00    +0.000 S 
ENDBRANCH  40  43
ENDBRANCH  39  40
ENDBRANCH  38  39
ENDBRANCH  35  38
ENDBRANCH  31  37
ENDBRANCH  26  33
ENDBRANCH  23  28
ENDBRANCH  22  23
ENDBRANCH  19  22
ENDBRANCH  17  21
BRANCH  17  44
ATOM     44  C   UNK     1      71.639  59.395 106.420  0.00  0.00    +0.000 C 
ATOM     45  C   UNK     1      71.968  59.036 107.867  0.00  0.00    +0.000 C 
BRANCH  44  47
ATOM     46  H   UNK     1      70.558  58.352 105.191  0.00  0.00    +0.000 HD
ATOM     47  O   UNK     1      71.370  58.216 105.694  0.00  0.00    +0.000 OA
ENDBRANCH  44  47
ENDBRANCH  17  44
ENDBRANCH  16  17
ENDBRANCH  12  15
ENDBRANCH   8  12
ENDBRANCH   7   8
ENDBRANCH   5   7
ENDBRANCH   1   4
BRANCH   1  51
ATOM     48  H   UNK     1      77.790  68.286 107.165  0.00  0.00    +0.000 HD
ATOM     49  O   UNK     1      79.670  67.133 106.650  0.00  0.00    +0.000 OA
ATOM     50  C   UNK     1      78.660  66.843 106.053  0.00  0.00    +0.000 C 
ATOM     51  N   UNK     1      77.563  67.537 106.507  0.00  0.00    +0.000 N 
BRANCH  50  61
ATOM     52  H   UNK     1      78.536  66.328 101.086  0.00  0.00    +0.000 HD
ATOM     53  H   UNK     1      78.521  64.550 100.925  0.00  0.00    +0.000 HD
ATOM     54  N   UNK     1      78.546  65.392 101.552  0.00  0.00    +0.000 N 
ATOM     55  N   UNK     1      78.632  64.712 105.314  0.00  0.00    +0.000 NA
ATOM     56  C   UNK     1      78.607  63.804 104.444  0.00  0.00    +0.000 A 
ATOM     57  N   UNK     1      78.578  64.021 103.204  0.00  0.00    +0.000 NA
ATOM     58  C   UNK     1      78.574  65.226 102.811  0.00  0.00    +0.000 A 
ATOM     59  C   UNK     1      78.616  67.687 103.188  0.00  0.00    +0.000 C 
ATOM     60  C   UNK     1      78.608  66.253 103.694  0.00  0.00    +0.000 A 
ATOM     61  C   UNK     1      78.638  65.940 105.018  0.00  0.00    +0.000 A 
BRANCH  56  62
ATOM     62  C   UNK     1      78.633  62.386 104.958  0.00  0.00    +0.000 C 
BRANCH  62  64
ATOM     63  H   UNK     1      80.527  62.498 104.150  0.00  0.00    +0.000 HD
ATOM     64  N   UNK     1      79.962  61.817 104.715  0.00  0.00    +0.000 NA
BRANCH  64  65
ATOM     65  C   UNK     1      79.932  60.521 104.033  0.00  0.00    +0.000 C 
BRANCH  65  66
ATOM     66  C   UNK     1      81.255  59.767 104.222  0.00  0.00    +0.000 C 
BRANCH  66  71
ATOM     67  H   UNK     1      82.385  61.056 106.111  0.00  0.00    +0.000 HD
ATOM     68  H   UNK     1      82.245  59.883 107.421  0.00  0.00    +0.000 HD
ATOM     69  O   UNK     1      81.067  58.216 106.074  0.00  0.00    +0.000 OA
ATOM     70  N   UNK     1      82.090  60.155 106.460  0.00  0.00    +0.000 N 
ATOM     71  C   UNK     1      81.446  59.276 105.648  0.00  0.00    +0.000 C 
ENDBRANCH  66  71
BRANCH  66  74
ATOM     72  H   UNK     1      82.070  61.343 103.155  0.00  0.00    +0.000 HD
ATOM     73  H   UNK     1      83.147  60.137 103.434  0.00  0.00    +0.000 HD
ATOM     74  N   UNK     1      82.371  60.662 103.873  0.00  0.00    +0.000 NA
ENDBRANCH  66  74
ENDBRANCH  65  66
ENDBRANCH  64  65
ENDBRANCH  62  64
BRANCH  62  75
ATOM     75  C   UNK     1      77.504  61.505 104.409  0.00  0.00    +0.000 C 
BRANCH  75  80
ATOM     76  H   UNK     1      75.996  61.858 102.278  0.00  0.00    +0.000 HD
ATOM     77  H   UNK     1      74.667  62.686 103.038  0.00  0.00    +0.000 HD
ATOM     78  O   UNK     1      75.596  62.672 105.293  0.00  0.00    +0.000 OA
ATOM     79  N   UNK     1      75.585  62.268 103.106  0.00  0.00    +0.000 N 
ATOM     80  C   UNK     1      76.153  62.199 104.341  0.00  0.00    +0.000 C 
ENDBRANCH  75  80
ENDBRANCH  62  75
ENDBRANCH  56  62
ENDBRANCH  50  61
ENDBRANCH   1  51
BRANCH   1  81
ATOM     81  C   UNK     1      75.361  68.671 106.676  0.00  0.00    +0.000 C 
BRANCH  81  87
ATOM     82  H   UNK     1      77.341  71.447 109.650  0.00  0.00    +0.000 HD
ATOM     83  N   UNK     1      76.938  70.542 106.714  0.00  0.00    +0.000 NA
ATOM     84  C   UNK     1      77.457  71.283 107.597  0.00  0.00    +0.000 A 
ATOM     85  N   UNK     1      77.057  70.982 108.760  0.00  0.00    +0.000 N 
ATOM     86  C   UNK     1      76.248  70.014 108.653  0.00  0.00    +0.000 A 
ATOM     87  C   UNK     1      76.182  69.746 107.340  0.00  0.00    +0.000 A 
ENDBRANCH  81  87
BRANCH  81  88
ATOM     88  O   UNK     1      74.393  68.219 107.603  0.00  0.00    +0.000 OA
BRANCH  88  94
ATOM     89  C   UNK     1      72.073  67.938 108.113  0.00  0.00    +0.000 C 
ATOM     90  C   UNK     1      70.720  68.595 107.848  0.00  0.00    +0.000 C 
ATOM     91  C   UNK     1      70.545  68.779 106.350  0.00  0.00    +0.000 C 
ATOM     92  C   UNK     1      71.705  69.559 105.753  0.00  0.00    +0.000 C 
ATOM     93  O   UNK     1      72.908  68.928 106.086  0.00  0.00    +0.000 OA
ATOM     94  C   UNK     1      73.125  68.831 107.474  0.00  0.00    +0.000 C 
BRANCH  90  96
ATOM     95  H   UNK     1      69.804  66.924 108.081  0.00  0.00    +0.000 HD
ATOM     96  O   UNK     1      69.612  67.844 108.292  0.00  0.00    +0.000 OA
ENDBRANCH  90  96
BRANCH  91  98
ATOM     97  H   UNK     1      69.125  69.534 105.226  0.00  0.00    +0.000 HD
ATOM     98  O   UNK     1      69.328  69.461 106.158  0.00  0.00    +0.000 OA
ENDBRANCH  91  98
BRANCH  89  99
ATOM     99  O   UNK     1      72.378  67.859 109.479  0.00  0.00    +0.000 OA
BRANCH  99 105
ATOM    100  C   UNK     1      71.989  65.509 109.799  0.00  0.00    +0.000 C 
ATOM    101  C   UNK     1      72.760  64.219 110.076  0.00  0.00    +0.000 C 
ATOM    102  C   UNK     1      73.499  64.371 111.408  0.00  0.00    +0.000 C 
ATOM    103  C   UNK     1      74.228  65.705 111.592  0.00  0.00    +0.000 C 
ATOM    104  O   UNK     1      73.439  66.788 111.171  0.00  0.00    +0.000 OA
ATOM    105  C   UNK     1      72.983  66.644 109.851  0.00  0.00    +0.000 C 
BRANCH 100 107
ATOM    106  H   UNK     1      71.364  65.861 111.638  0.00  0.00    +0.000 HD
ATOM    107  O   UNK     1      70.982  65.724 110.765  0.00  0.00    +0.000 OA
ENDBRANCH 100 107
BRANCH 102 109
ATOM    108  H   UNK     1      72.629  63.342 112.871  0.00  0.00    +0.000 HD
ATOM    109  O   UNK     1      72.555  64.198 112.446  0.00  0.00    +0.000 OA
ENDBRANCH 102 109
BRANCH 101 110
ATOM    110  O   UNK     1      73.709  64.003 109.068  0.00  0.00    +0.000 OA
BRANCH 110 115
ATOM    111  H   UNK     1      75.889  63.424 107.991  0.00  0.00    +0.000 HD
ATOM    112  H   UNK     1      75.746  61.669 108.151  0.00  0.00    +0.000 HD
ATOM    113  O   UNK     1      73.525  61.749 109.111  0.00  0.00    +0.000 OA
ATOM    114  N   UNK     1      75.404  62.601 108.323  0.00  0.00    +0.000 N 
ATOM    115  C   UNK     1      74.179  62.738 108.892  0.00  0.00    +0.000 C 
ENDBRANCH 110 115
ENDBRANCH 101 110
BRANCH 103 116
ATOM    116  C   UNK     1      75.625  65.739 110.981  0.00  0.00    +0.000 C 
BRANCH 116 118
ATOM    117  H   UNK     1      76.726  67.183 110.238  0.00  0.00    +0.000 HD
ATOM    118  O   UNK     1      75.798  66.942 110.262  0.00  0.00    +0.000 OA
ENDBRANCH 116 118
ENDBRANCH 103 116
ENDBRANCH  99 105
ENDBRANCH  89  99
BRANCH  92 119
ATOM    119  C   UNK     1      71.648  69.620 104.233  0.00  0.00    +0.000 C 
BRANCH 119 121
ATOM    120  H   UNK     1      70.002  70.625 104.572  0.00  0.00    +0.000 HD
ATOM    121  O   UNK     1      70.568  70.431 103.823  0.00  0.00    +0.000 OA
ENDBRANCH 119 121
ENDBRANCH  92 119
ENDBRANCH  88  94
ENDBRANCH  81  88
ENDBRANCH   1  81
TORSDOF 45
ENDMDL
MODEL 13
REMARK VINA RESULT:      -6.7      5.743     11.978
REMARK  Name = ./1214.pdb
REMARK  51 active torsions:
REMARK  status: ('A' for Active; 'I' for Inactive)
REMARK    1  A    between atoms: C_85  and  S_87
REMARK    2  A    between atoms: C_86  and  S_87
REMARK    3  A    between atoms: S_87  and  C_88
REMARK    4  A    between atoms: C_88  and  C_89
REMARK    5  A    between atoms: C_89  and  C_90
REMARK    6  A    between atoms: C_90  and  N_91
REMARK    7  A    between atoms: C_93  and  C_96
REMARK    8  A    between atoms: C_98  and  C_101
REMARK    9  A    between atoms: C_103  and  C_104
REMARK   10  A    between atoms: C_104  and  C_105
REMARK   11  A    between atoms: C_105  and  N_106
REMARK   12  A    between atoms: C_108  and  C_177
REMARK   13  A    between atoms: C_113  and  C_140
REMARK   14  A    between atoms: O_114  and  C_115
REMARK   15  A    between atoms: C_118  and  O_119
REMARK   16  A    between atoms: O_119  and  C_120
REMARK   17  A    between atoms: O_121  and  C_122
REMARK   18  A    between atoms: O_123  and  C_124
REMARK   19  A    between atoms: C_124  and  C_125
REMARK   20  A    between atoms: C_127  and  O_128
REMARK   21  A    between atoms: O_128  and  C_129
REMARK   22  A    between atoms: O_130  and  C_131
REMARK   23  A    between atoms: O_132  and  C_133
REMARK   24  A    between atoms: O_134  and  C_135
REMARK   25  A    between atoms: C_135  and  C_136
REMARK   26  A    between atoms: C_138  and  O_139
REMARK   27  A    between atoms: O_139  and  C_140
REMARK   28  A    between atoms: C_140  and  C_164
REMARK   29  A    between atoms: C_144  and  C_146
REMARK   30  A    between atoms: N_145  and  C_146
REMARK   31  A    between atoms: C_146  and  C_147
REMARK   32  A    between atoms: C_147  and  N_148
REMARK   33  A    between atoms: N_148  and  C_153
REMARK   34  A    between atoms: C_151  and  C_152
REMARK   35  A    between atoms: C_152  and  C_153
REMARK   36  A    between atoms: C_153  and  C_155
REMARK   37  A    between atoms: C_158  and  C_159
REMARK   38  A    between atoms: C_160  and  C_162
REMARK   39  A    between atoms: N_163  and  C_164
REMARK   40  A    between atoms: C_164  and  C_166
REMARK   41  A    between atoms: N_167  and  C_169
REMARK   42  A    between atoms: C_168  and  C_169
REMARK   43  A    between atoms: C_169  and  C_171
REMARK   44  A    between atoms: O_170  and  C_171
REMARK   45  A    between atoms: C_171  and  C_173
REMARK   46  A    between atoms: C_172  and  C_173
REMARK   47  A    between atoms: C_173  and  C_175
REMARK   48  A    between atoms: N_176  and  C_177
REMARK   49  A    between atoms: C_177  and  C_179
REMARK   50  A    between atoms: O_178  and  C_179
REMARK   51  A    between atoms: C_179  and  C_180
REMARK                            x       y       z     vdW  Elec       q    Type
REMARK                         _______ _______ _______ _____ _____    ______ ____
ROOT
ATOM      1  C   UNK     1      73.700  63.610 105.223  0.00  0.00    +0.000 C 
ENDROOT
BRANCH   1   4
ATOM      2  H   UNK     1      76.616  65.377 105.468  0.00  0.00    +0.000 HD
ATOM      3  O   UNK     1      75.822  63.216 106.214  0.00  0.00    +0.000 OA
ATOM      4  C   UNK     1      75.140  63.995 105.599  0.00  0.00    +0.000 C 
ATOM      5  N   UNK     1      75.637  65.213 105.216  0.00  0.00    +0.000 N 
BRANCH   5   7
ATOM      6  C   UNK     1      74.191  67.102 105.827  0.00  0.00    +0.000 C 
ATOM      7  C   UNK     1      74.883  66.355 104.674  0.00  0.00    +0.000 C 
BRANCH   7   8
ATOM      8  C   UNK     1      75.840  67.288 103.911  0.00  0.00    +0.000 C 
BRANCH   8  10
ATOM      9  H   UNK     1      77.199  67.878 105.201  0.00  0.00    +0.000 HD
ATOM     10  O   UNK     1      76.378  68.208 104.831  0.00  0.00    +0.000 OA
ENDBRANCH   8  10
BRANCH   8  12
ATOM     11  C   UNK     1      76.537  66.035 101.826  0.00  0.00    +0.000 C 
ATOM     12  C   UNK     1      77.004  66.595 103.183  0.00  0.00    +0.000 C 
BRANCH  12  15
ATOM     13  H   UNK     1      79.044  66.695 104.661  0.00  0.00    +0.000 HD
ATOM     14  O   UNK     1      78.247  68.363 102.124  0.00  0.00    +0.000 OA
ATOM     15  C   UNK     1      78.183  67.547 103.007  0.00  0.00    +0.000 C 
ATOM     16  N   UNK     1      79.145  67.433 103.968  0.00  0.00    +0.000 N 
BRANCH  16  17
ATOM     17  C   UNK     1      80.323  68.304 104.072  0.00  0.00    +0.000 C 
BRANCH  17  21
ATOM     18  H   UNK     1      78.377  69.466 105.192  0.00  0.00    +0.000 HD
ATOM     19  N   UNK     1      79.192  69.584 105.796  0.00  0.00    +0.000 N 
ATOM     20  O   UNK     1      81.348  68.975 106.134  0.00  0.00    +0.000 OA
ATOM     21  C   UNK     1      80.361  68.973 105.440  0.00  0.00    +0.000 C 
BRANCH  19  22
ATOM     22  C   UNK     1      79.050  70.326 107.050  0.00  0.00    +0.000 C 
BRANCH  22  23
ATOM     23  C   UNK     1      77.737  69.960 107.764  0.00  0.00    +0.000 C 
BRANCH  23  28
ATOM     24  S   UNK     1      76.437  67.876 108.724  0.00  0.00    +0.000 S 
ATOM     25  C   UNK     1      76.845  66.507 108.399  0.00  0.00    +0.000 A 
ATOM     26  C   UNK     1      77.948  66.474 107.630  0.00  0.00    +0.000 A 
ATOM     27  N   UNK     1      78.324  67.660 107.399  0.00  0.00    +0.000 NA
ATOM     28  C   UNK     1      77.534  68.475 107.955  0.00  0.00    +0.000 A 
BRANCH  26  33
ATOM     29  S   UNK     1      79.095  64.302 108.030  0.00  0.00    +0.000 S 
ATOM     30  C   UNK     1      79.581  63.475 106.924  0.00  0.00    +0.000 A 
ATOM     31  C   UNK     1      79.308  64.050 105.741  0.00  0.00    +0.000 A 
ATOM     32  N   UNK     1      78.698  65.141 105.929  0.00  0.00    +0.000 NA
ATOM     33  C   UNK     1      78.546  65.357 107.168  0.00  0.00    +0.000 A 
BRANCH  31  37
ATOM     34  H   UNK     1      81.632  63.934 104.902  0.00  0.00    +0.000 HD
ATOM     35  N   UNK     1      80.977  63.542 104.228  0.00  0.00    +0.000 N 
ATOM     36  O   UNK     1      78.830  63.137 103.723  0.00  0.00    +0.000 OA
ATOM     37  C   UNK     1      79.641  63.546 104.522  0.00  0.00    +0.000 C 
BRANCH  35  38
ATOM     38  C   UNK     1      81.492  63.019 102.959  0.00  0.00    +0.000 C 
BRANCH  38  39
ATOM     39  C   UNK     1      82.852  62.322 103.144  0.00  0.00    +0.000 C 
BRANCH  39  40
ATOM     40  C   UNK     1      82.821  61.302 104.293  0.00  0.00    +0.000 C 
BRANCH  40  43
ATOM     41  C   UNK     1      84.839  60.185 105.853  0.00  0.00    +0.000 C 
ATOM     42  C   UNK     1      82.783  61.567 107.036  0.00  0.00    +0.000 C 
ATOM     43  S   UNK     1      83.940  61.742 105.655  0.00  0.00    +0.000 S 
ENDBRANCH  40  43
ENDBRANCH  39  40
ENDBRANCH  38  39
ENDBRANCH  35  38
ENDBRANCH  31  37
ENDBRANCH  26  33
ENDBRANCH  23  28
ENDBRANCH  22  23
ENDBRANCH  19  22
ENDBRANCH  17  21
BRANCH  17  44
ATOM     44  C   UNK     1      81.658  67.636 103.711  0.00  0.00    +0.000 C 
ATOM     45  C   UNK     1      81.802  67.385 102.211  0.00  0.00    +0.000 C 
BRANCH  44  47
ATOM     46  H   UNK     1      82.576  65.977 104.126  0.00  0.00    +0.000 HD
ATOM     47  O   UNK     1      81.759  66.411 104.403  0.00  0.00    +0.000 OA
ENDBRANCH  44  47
ENDBRANCH  17  44
ENDBRANCH  16  17
ENDBRANCH  12  15
ENDBRANCH   8  12
ENDBRANCH   7   8
ENDBRANCH   5   7
ENDBRANCH   1   4
BRANCH   1  51
ATOM     48  H   UNK     1      73.379  61.607 105.847  0.00  0.00    +0.000 HD
ATOM     49  O   UNK     1      72.646  61.599 107.990  0.00  0.00    +0.000 OA
ATOM     50  C   UNK     1      72.793  62.673 107.458  0.00  0.00    +0.000 C 
ATOM     51  N   UNK     1      73.327  62.567 106.195  0.00  0.00    +0.000 N 
BRANCH  50  61
ATOM     52  H   UNK     1      69.406  66.344 107.518  0.00  0.00    +0.000 HD
ATOM     53  H   UNK     1      70.065  67.401 108.797  0.00  0.00    +0.000 HD
ATOM     54  N   UNK     1      70.150  66.522 108.229  0.00  0.00    +0.000 N 
ATOM     55  N   UNK     1      73.185  64.311 108.959  0.00  0.00    +0.000 NA
ATOM     56  C   UNK     1      72.947  65.388 109.564  0.00  0.00    +0.000 A 
ATOM     57  N   UNK     1      71.951  66.121 109.328  0.00  0.00    +0.000 NA
ATOM     58  C   UNK     1      71.139  65.750 108.428  0.00  0.00    +0.000 A 
ATOM     59  C   UNK     1      70.330  64.174 106.678  0.00  0.00    +0.000 C 
ATOM     60  C   UNK     1      71.330  64.596 107.742  0.00  0.00    +0.000 A 
ATOM     61  C   UNK     1      72.430  63.858 108.053  0.00  0.00    +0.000 A 
BRANCH  56  62
ATOM     62  C   UNK     1      73.930  65.778 110.640  0.00  0.00    +0.000 C 
BRANCH  62  64
ATOM     63  H   UNK     1      73.970  64.596 112.329  0.00  0.00    +0.000 HD
ATOM     64  N   UNK     1      74.358  64.572 111.353  0.00  0.00    +0.000 NA
BRANCH  64  65
ATOM     65  C   UNK     1      75.812  64.404 111.408  0.00  0.00    +0.000 C 
BRANCH  65  66
ATOM     66  C   UNK     1      76.263  63.207 110.561  0.00  0.00    +0.000 C 
BRANCH  66  71
ATOM     67  H   UNK     1      75.781  61.493 108.734  0.00  0.00    +0.000 HD
ATOM     68  H   UNK     1      74.613  60.466 109.565  0.00  0.00    +0.000 HD
ATOM     69  O   UNK     1      74.679  61.736 111.655  0.00  0.00    +0.000 OA
ATOM     70  N   UNK     1      75.229  61.267 109.549  0.00  0.00    +0.000 N 
ATOM     71  C   UNK     1      75.314  62.025 110.674  0.00  0.00    +0.000 C 
ENDBRANCH  66  71
BRANCH  66  74
ATOM     72  H   UNK     1      78.312  63.054 110.301  0.00  0.00    +0.000 HD
ATOM     73  H   UNK     1      77.667  61.755 111.068  0.00  0.00    +0.000 HD
ATOM     74  N   UNK     1      77.603  62.786 111.005  0.00  0.00    +0.000 NA
ENDBRANCH  66  74
ENDBRANCH  65  66
ENDBRANCH  64  65
ENDBRANCH  62  64
BRANCH  62  75
ATOM     75  C   UNK     1      73.413  66.870 111.586  0.00  0.00    +0.000 C 
BRANCH  75  80
ATOM     76  H   UNK     1      71.560  65.658 113.013  0.00  0.00    +0.000 HD
ATOM     77  H   UNK     1      72.405  65.596 114.533  0.00  0.00    +0.000 HD
ATOM     78  O   UNK     1      74.430  66.716 113.760  0.00  0.00    +0.000 OA
ATOM     79  N   UNK     1      72.373  65.892 113.567  0.00  0.00    +0.000 N 
ATOM     80  C   UNK     1      73.480  66.499 113.059  0.00  0.00    +0.000 C 
ENDBRANCH  75  80
ENDBRANCH  62  75
ENDBRANCH  56  62
ENDBRANCH  50  61
ENDBRANCH   1  51
BRANCH   1  81
ATOM     81  C   UNK     1      73.683  63.033 103.782  0.00  0.00    +0.000 C 
BRANCH  81  87
ATOM     82  H   UNK     1      70.096  62.235 101.141  0.00  0.00    +0.000 HD
ATOM     83  N   UNK     1      71.414  62.130 103.943  0.00  0.00    +0.000 NA
ATOM     84  C   UNK     1      70.449  61.933 103.151  0.00  0.00    +0.000 A 
ATOM     85  N   UNK     1      70.727  62.296 101.971  0.00  0.00    +0.000 N 
ATOM     86  C   UNK     1      71.909  62.751 101.973  0.00  0.00    +0.000 A 
ATOM     87  C   UNK     1      72.332  62.639 103.240  0.00  0.00    +0.000 A 
ENDBRANCH  81  87
BRANCH  81  88
ATOM     88  O   UNK     1      74.538  61.910 103.696  0.00  0.00    +0.000 OA
BRANCH  88  94
ATOM     89  C   UNK     1      75.041  59.982 102.372  0.00  0.00    +0.000 C 
ATOM     90  C   UNK     1      75.449  59.604 100.950  0.00  0.00    +0.000 C 
ATOM     91  C   UNK     1      76.677  60.406 100.558  0.00  0.00    +0.000 C 
ATOM     92  C   UNK     1      76.435  61.897 100.723  0.00  0.00    +0.000 C 
ATOM     93  O   UNK     1      76.012  62.156 102.030  0.00  0.00    +0.000 OA
ATOM     94  C   UNK     1      74.822  61.487 102.377  0.00  0.00    +0.000 C 
BRANCH  90  96
ATOM     95  H   UNK     1      75.038  57.826 100.351  0.00  0.00    +0.000 HD
ATOM     96  O   UNK     1      75.788  58.244 100.785  0.00  0.00    +0.000 OA
ENDBRANCH  90  96
BRANCH  91  98
ATOM     97  H   UNK     1      76.269  59.552  98.839  0.00  0.00    +0.000 HD
ATOM     98  O   UNK     1      76.966  60.088  99.217  0.00  0.00    +0.000 OA
ENDBRANCH  91  98
BRANCH  89  99
ATOM     99  O   UNK     1      73.831  59.391 102.764  0.00  0.00    +0.000 OA
BRANCH  99 105
ATOM    100  C   UNK     1      72.804  58.720 104.830  0.00  0.00    +0.000 C 
ATOM    101  C   UNK     1      72.947  57.660 105.921  0.00  0.00    +0.000 C 
ATOM    102  C   UNK     1      74.336  57.793 106.550  0.00  0.00    +0.000 C 
ATOM    103  C   UNK     1      75.483  57.962 105.548  0.00  0.00    +0.000 C 
ATOM    104  O   UNK     1      75.151  58.871 104.531  0.00  0.00    +0.000 OA
ATOM    105  C   UNK     1      73.957  58.535 103.873  0.00  0.00    +0.000 C 
BRANCH 100 107
ATOM    106  H   UNK     1      72.164  60.147 106.034  0.00  0.00    +0.000 HD
ATOM    107  O   UNK     1      72.849  60.023 105.370  0.00  0.00    +0.000 OA
ENDBRANCH 100 107
BRANCH 102 109
ATOM    108  H   UNK     1      75.166  59.313 107.527  0.00  0.00    +0.000 HD
ATOM    109  O   UNK     1      74.307  58.899 107.429  0.00  0.00    +0.000 OA
ENDBRANCH 102 109
BRANCH 101 110
ATOM    110  O   UNK     1      72.837  56.380 105.363  0.00  0.00    +0.000 OA
BRANCH 110 115
ATOM    111  H   UNK     1      71.329  55.890 107.295  0.00  0.00    +0.000 HD
ATOM    112  H   UNK     1      69.990  55.220 106.355  0.00  0.00    +0.000 HD
ATOM    113  O   UNK     1      71.150  55.382 104.236  0.00  0.00    +0.000 OA
ATOM    114  N   UNK     1      70.893  55.665 106.411  0.00  0.00    +0.000 N 
ATOM    115  C   UNK     1      71.598  55.828 105.263  0.00  0.00    +0.000 C 
ENDBRANCH 110 115
ENDBRANCH 101 110
BRANCH 103 116
ATOM    116  C   UNK     1      76.021  56.647 104.993  0.00  0.00    +0.000 C 
BRANCH 116 118
ATOM    117  H   UNK     1      77.822  55.952 104.642  0.00  0.00    +0.000 HD
ATOM    118  O   UNK     1      77.380  56.803 104.643  0.00  0.00    +0.000 OA
ENDBRANCH 116 118
ENDBRANCH 103 116
ENDBRANCH  99 105
ENDBRANCH  89  99
BRANCH  92 119
ATOM    119  C   UNK     1      77.694  62.724 100.498  0.00  0.00    +0.000 C 
BRANCH 119 121
ATOM    120  H   UNK     1      79.174  62.214 101.674  0.00  0.00    +0.000 HD
ATOM    121  O   UNK     1      78.837  61.958 100.814  0.00  0.00    +0.000 OA
ENDBRANCH 119 121
ENDBRANCH  92 119
ENDBRANCH  88  94
ENDBRANCH  81  88
ENDBRANCH   1  81
TORSDOF 45
ENDMDL
MODEL 14
REMARK VINA RESULT:      -6.7      6.403     11.566
REMARK  Name = ./1214.pdb
REMARK  51 active torsions:
REMARK  status: ('A' for Active; 'I' for Inactive)
REMARK    1  A    between atoms: C_85  and  S_87
REMARK    2  A    between atoms: C_86  and  S_87
REMARK    3  A    between atoms: S_87  and  C_88
REMARK    4  A    between atoms: C_88  and  C_89
REMARK    5  A    between atoms: C_89  and  C_90
REMARK    6  A    between atoms: C_90  and  N_91
REMARK    7  A    between atoms: C_93  and  C_96
REMARK    8  A    between atoms: C_98  and  C_101
REMARK    9  A    between atoms: C_103  and  C_104
REMARK   10  A    between atoms: C_104  and  C_105
REMARK   11  A    between atoms: C_105  and  N_106
REMARK   12  A    between atoms: C_108  and  C_177
REMARK   13  A    between atoms: C_113  and  C_140
REMARK   14  A    between atoms: O_114  and  C_115
REMARK   15  A    between atoms: C_118  and  O_119
REMARK   16  A    between atoms: O_119  and  C_120
REMARK   17  A    between atoms: O_121  and  C_122
REMARK   18  A    between atoms: O_123  and  C_124
REMARK   19  A    between atoms: C_124  and  C_125
REMARK   20  A    between atoms: C_127  and  O_128
REMARK   21  A    between atoms: O_128  and  C_129
REMARK   22  A    between atoms: O_130  and  C_131
REMARK   23  A    between atoms: O_132  and  C_133
REMARK   24  A    between atoms: O_134  and  C_135
REMARK   25  A    between atoms: C_135  and  C_136
REMARK   26  A    between atoms: C_138  and  O_139
REMARK   27  A    between atoms: O_139  and  C_140
REMARK   28  A    between atoms: C_140  and  C_164
REMARK   29  A    between atoms: C_144  and  C_146
REMARK   30  A    between atoms: N_145  and  C_146
REMARK   31  A    between atoms: C_146  and  C_147
REMARK   32  A    between atoms: C_147  and  N_148
REMARK   33  A    between atoms: N_148  and  C_153
REMARK   34  A    between atoms: C_151  and  C_152
REMARK   35  A    between atoms: C_152  and  C_153
REMARK   36  A    between atoms: C_153  and  C_155
REMARK   37  A    between atoms: C_158  and  C_159
REMARK   38  A    between atoms: C_160  and  C_162
REMARK   39  A    between atoms: N_163  and  C_164
REMARK   40  A    between atoms: C_164  and  C_166
REMARK   41  A    between atoms: N_167  and  C_169
REMARK   42  A    between atoms: C_168  and  C_169
REMARK   43  A    between atoms: C_169  and  C_171
REMARK   44  A    between atoms: O_170  and  C_171
REMARK   45  A    between atoms: C_171  and  C_173
REMARK   46  A    between atoms: C_172  and  C_173
REMARK   47  A    between atoms: C_173  and  C_175
REMARK   48  A    between atoms: N_176  and  C_177
REMARK   49  A    between atoms: C_177  and  C_179
REMARK   50  A    between atoms: O_178  and  C_179
REMARK   51  A    between atoms: C_179  and  C_180
REMARK                            x       y       z     vdW  Elec       q    Type
REMARK                         _______ _______ _______ _____ _____    ______ ____
ROOT
ATOM      1  C   UNK     1      76.309  66.326 106.246  0.00  0.00    +0.000 C 
ENDROOT
BRANCH   1   4
ATOM      2  H   UNK     1      73.390  66.291 108.023  0.00  0.00    +0.000 HD
ATOM      3  O   UNK     1      74.009  66.140 105.687  0.00  0.00    +0.000 OA
ATOM      4  C   UNK     1      74.810  66.277 106.577  0.00  0.00    +0.000 C 
ATOM      5  N   UNK     1      74.400  66.374 107.881  0.00  0.00    +0.000 N 
BRANCH   5   7
ATOM      6  C   UNK     1      75.447  68.289 109.007  0.00  0.00    +0.000 C 
ATOM      7  C   UNK     1      75.210  66.769 109.045  0.00  0.00    +0.000 C 
BRANCH   7   8
ATOM      8  C   UNK     1      74.488  66.358 110.339  0.00  0.00    +0.000 C 
BRANCH   8  10
ATOM      9  H   UNK     1      73.137  65.351 109.328  0.00  0.00    +0.000 HD
ATOM     10  O   UNK     1      73.730  65.202 110.067  0.00  0.00    +0.000 OA
ENDBRANCH   8  10
BRANCH   8  12
ATOM     11  C   UNK     1      75.000  66.945 112.746  0.00  0.00    +0.000 C 
ATOM     12  C   UNK     1      75.398  66.067 111.544  0.00  0.00    +0.000 C 
BRANCH  12  15
ATOM     13  H   UNK     1      76.553  64.215 110.283  0.00  0.00    +0.000 HD
ATOM     14  O   UNK     1      74.761  64.155 112.860  0.00  0.00    +0.000 OA
ATOM     15  C   UNK     1      75.363  64.586 111.911  0.00  0.00    +0.000 C 
ATOM     16  N   UNK     1      76.034  63.777 111.041  0.00  0.00    +0.000 N 
BRANCH  16  17
ATOM     17  C   UNK     1      76.061  62.310 111.123  0.00  0.00    +0.000 C 
BRANCH  17  21
ATOM     18  H   UNK     1      75.041  63.577 109.187  0.00  0.00    +0.000 HD
ATOM     19  N   UNK     1      75.066  62.589 108.928  0.00  0.00    +0.000 N 
ATOM     20  O   UNK     1      75.812  60.536 109.529  0.00  0.00    +0.000 OA
ATOM     21  C   UNK     1      75.651  61.703 109.788  0.00  0.00    +0.000 C 
BRANCH  19  22
ATOM     22  C   UNK     1      74.556  62.183 107.616  0.00  0.00    +0.000 C 
BRANCH  22  23
ATOM     23  C   UNK     1      73.062  61.822 107.691  0.00  0.00    +0.000 C 
BRANCH  23  28
ATOM     24  S   UNK     1      71.160  62.895 106.213  0.00  0.00    +0.000 S 
ATOM     25  C   UNK     1      70.633  64.231 106.501  0.00  0.00    +0.000 A 
ATOM     26  C   UNK     1      71.265  64.816 107.534  0.00  0.00    +0.000 A 
ATOM     27  N   UNK     1      72.150  64.026 107.974  0.00  0.00    +0.000 NA
ATOM     28  C   UNK     1      72.136  62.953 107.307  0.00  0.00    +0.000 A 
BRANCH  26  33
ATOM     29  S   UNK     1      70.656  66.300 109.438  0.00  0.00    +0.000 S 
ATOM     30  C   UNK     1      70.462  67.739 109.256  0.00  0.00    +0.000 A 
ATOM     31  C   UNK     1      70.665  68.093 107.977  0.00  0.00    +0.000 A 
ATOM     32  N   UNK     1      70.977  67.073 107.298  0.00  0.00    +0.000 NA
ATOM     33  C   UNK     1      70.988  66.039 108.030  0.00  0.00    +0.000 A 
BRANCH  31  37
ATOM     34  H   UNK     1      68.858  68.785 106.437  0.00  0.00    +0.000 HD
ATOM     35  N   UNK     1      69.476  69.565 106.653  0.00  0.00    +0.000 N 
ATOM     36  O   UNK     1      71.332  70.242 107.713  0.00  0.00    +0.000 OA
ATOM     37  C   UNK     1      70.547  69.353 107.477  0.00  0.00    +0.000 C 
BRANCH  35  38
ATOM     38  C   UNK     1      69.208  70.873 106.048  0.00  0.00    +0.000 C 
BRANCH  38  39
ATOM     39  C   UNK     1      69.164  70.788 104.512  0.00  0.00    +0.000 C 
BRANCH  39  40
ATOM     40  C   UNK     1      70.493  70.285 103.927  0.00  0.00    +0.000 C 
BRANCH  40  43
ATOM     41  C   UNK     1      70.465  73.052 103.614  0.00  0.00    +0.000 C 
ATOM     42  C   UNK     1      71.057  71.426 101.483  0.00  0.00    +0.000 C 
ATOM     43  S   UNK     1      71.503  71.622 103.226  0.00  0.00    +0.000 S 
ENDBRANCH  40  43
ENDBRANCH  39  40
ENDBRANCH  38  39
ENDBRANCH  35  38
ENDBRANCH  31  37
ENDBRANCH  26  33
ENDBRANCH  23  28
ENDBRANCH  22  23
ENDBRANCH  19  22
ENDBRANCH  17  21
BRANCH  17  44
ATOM     44  C   UNK     1      77.372  61.715 111.657  0.00  0.00    +0.000 C 
ATOM     45  C   UNK     1      77.753  62.270 113.028  0.00  0.00    +0.000 C 
BRANCH  44  47
ATOM     46  H   UNK     1      79.002  61.225 110.725  0.00  0.00    +0.000 HD
ATOM     47  O   UNK     1      78.407  61.985 110.738  0.00  0.00    +0.000 OA
ENDBRANCH  44  47
ENDBRANCH  17  44
ENDBRANCH  16  17
ENDBRANCH  12  15
ENDBRANCH   8  12
ENDBRANCH   7   8
ENDBRANCH   5   7
ENDBRANCH   1   4
BRANCH   1  51
ATOM     48  H   UNK     1      76.600  66.351 104.144  0.00  0.00    +0.000 HD
ATOM     49  O   UNK     1      76.377  68.472 103.383  0.00  0.00    +0.000 OA
ATOM     50  C   UNK     1      76.325  68.303 104.578  0.00  0.00    +0.000 C 
ATOM     51  N   UNK     1      76.380  66.974 104.924  0.00  0.00    +0.000 N 
BRANCH  50  61
ATOM     52  H   UNK     1      73.248  71.440 106.954  0.00  0.00    +0.000 HD
ATOM     53  H   UNK     1      74.409  72.402 107.911  0.00  0.00    +0.000 HD
ATOM     54  N   UNK     1      74.241  71.623 107.227  0.00  0.00    +0.000 N 
ATOM     55  N   UNK     1      77.337  69.772 105.959  0.00  0.00    +0.000 NA
ATOM     56  C   UNK     1      77.383  70.719 106.786  0.00  0.00    +0.000 A 
ATOM     57  N   UNK     1      76.368  71.333 107.206  0.00  0.00    +0.000 NA
ATOM     58  C   UNK     1      75.233  70.974 106.771  0.00  0.00    +0.000 A 
ATOM     59  C   UNK     1      73.732  69.542 105.394  0.00  0.00    +0.000 C 
ATOM     60  C   UNK     1      75.110  69.956 105.885  0.00  0.00    +0.000 A 
ATOM     61  C   UNK     1      76.253  69.341 105.477  0.00  0.00    +0.000 A 
BRANCH  56  62
ATOM     62  C   UNK     1      78.754  71.097 107.291  0.00  0.00    +0.000 C 
BRANCH  62  64
ATOM     63  H   UNK     1      79.907  69.690 108.260  0.00  0.00    +0.000 HD
ATOM     64  N   UNK     1      79.611  69.908 107.277  0.00  0.00    +0.000 NA
BRANCH  64  65
ATOM     65  C   UNK     1      80.795  70.044 106.427  0.00  0.00    +0.000 C 
BRANCH  65  66
ATOM     66  C   UNK     1      80.964  68.823 105.514  0.00  0.00    +0.000 C 
BRANCH  66  71
ATOM     67  H   UNK     1      78.744  69.092 104.286  0.00  0.00    +0.000 HD
ATOM     68  H   UNK     1      79.325  69.469 102.664  0.00  0.00    +0.000 HD
ATOM     69  O   UNK     1      81.692  69.379 103.271  0.00  0.00    +0.000 OA
ATOM     70  N   UNK     1      79.500  69.242 103.632  0.00  0.00    +0.000 N 
ATOM     71  C   UNK     1      80.793  69.168 104.044  0.00  0.00    +0.000 C 
ENDBRANCH  66  71
BRANCH  66  74
ATOM     72  H   UNK     1      79.231  68.229 106.479  0.00  0.00    +0.000 HD
ATOM     73  H   UNK     1      80.386  67.064 106.467  0.00  0.00    +0.000 HD
ATOM     74  N   UNK     1      79.963  67.807 105.883  0.00  0.00    +0.000 NA
ENDBRANCH  66  74
ENDBRANCH  65  66
ENDBRANCH  64  65
ENDBRANCH  62  64
BRANCH  62  75
ATOM     75  C   UNK     1      78.741  71.799 108.655  0.00  0.00    +0.000 C 
BRANCH  75  80
ATOM     76  H   UNK     1      81.004  71.981 109.991  0.00  0.00    +0.000 HD
ATOM     77  H   UNK     1      80.747  70.674 111.111  0.00  0.00    +0.000 HD
ATOM     78  O   UNK     1      78.554  70.021 110.263  0.00  0.00    +0.000 OA
ATOM     79  N   UNK     1      80.432  71.213 110.316  0.00  0.00    +0.000 N 
ATOM     80  C   UNK     1      79.203  70.923 109.808  0.00  0.00    +0.000 C 
ENDBRANCH  75  80
ENDBRANCH  62  75
ENDBRANCH  56  62
ENDBRANCH  50  61
ENDBRANCH   1  51
BRANCH   1  81
ATOM     81  C   UNK     1      76.864  64.878 106.166  0.00  0.00    +0.000 C 
BRANCH  81  87
ATOM     82  H   UNK     1      79.835  63.624 109.341  0.00  0.00    +0.000 HD
ATOM     83  N   UNK     1      79.281  64.857 106.553  0.00  0.00    +0.000 NA
ATOM     84  C   UNK     1      80.056  64.484 107.479  0.00  0.00    +0.000 A 
ATOM     85  N   UNK     1      79.419  63.999 108.459  0.00  0.00    +0.000 N 
ATOM     86  C   UNK     1      78.185  64.049 108.183  0.00  0.00    +0.000 A 
ATOM     87  C   UNK     1      78.114  64.600 106.963  0.00  0.00    +0.000 A 
ENDBRANCH  81  87
BRANCH  81  88
ATOM     88  O   UNK     1      77.113  64.526 104.819  0.00  0.00    +0.000 OA
BRANCH  88  94
ATOM     89  C   UNK     1      77.850  62.852 103.277  0.00  0.00    +0.000 C 
ATOM     90  C   UNK     1      77.695  61.359 102.995  0.00  0.00    +0.000 C 
ATOM     91  C   UNK     1      76.216  61.022 102.918  0.00  0.00    +0.000 C 
ATOM     92  C   UNK     1      75.487  61.462 104.177  0.00  0.00    +0.000 C 
ATOM     93  O   UNK     1      75.723  62.822 104.399  0.00  0.00    +0.000 OA
ATOM     94  C   UNK     1      77.087  63.135 104.561  0.00  0.00    +0.000 C 
BRANCH  90  96
ATOM     95  H   UNK     1      79.210  60.838 101.937  0.00  0.00    +0.000 HD
ATOM     96  O   UNK     1      78.266  60.936 101.776  0.00  0.00    +0.000 OA
ENDBRANCH  90  96
BRANCH  91  98
ATOM     97  H   UNK     1      76.889  59.188 103.101  0.00  0.00    +0.000 HD
ATOM     98  O   UNK     1      76.119  59.629 102.742  0.00  0.00    +0.000 OA
ENDBRANCH  91  98
BRANCH  89  99
ATOM     99  O   UNK     1      79.183  63.225 103.503  0.00  0.00    +0.000 OA
BRANCH  99 105
ATOM    100  C   UNK     1      80.175  65.387 103.160  0.00  0.00    +0.000 C 
ATOM    101  C   UNK     1      80.839  66.212 102.059  0.00  0.00    +0.000 C 
ATOM    102  C   UNK     1      79.838  66.389 100.914  0.00  0.00    +0.000 C 
ATOM    103  C   UNK     1      79.085  65.117 100.514  0.00  0.00    +0.000 C 
ATOM    104  O   UNK     1      78.650  64.398 101.638  0.00  0.00    +0.000 OA
ATOM    105  C   UNK     1      79.695  64.102 102.529  0.00  0.00    +0.000 C 
BRANCH 100 107
ATOM    106  H   UNK     1      78.508  66.437 103.040  0.00  0.00    +0.000 HD
ATOM    107  O   UNK     1      79.077  66.070 103.724  0.00  0.00    +0.000 OA
ENDBRANCH 100 107
BRANCH 102 109
ATOM    108  H   UNK     1      79.037  67.669 102.209  0.00  0.00    +0.000 HD
ATOM    109  O   UNK     1      78.913  67.386 101.302  0.00  0.00    +0.000 OA
ENDBRANCH 102 109
BRANCH 101 110
ATOM    110  O   UNK     1      81.960  65.534 101.562  0.00  0.00    +0.000 OA
BRANCH 110 115
ATOM    111  H   UNK     1      83.139  67.438 102.673  0.00  0.00    +0.000 HD
ATOM    112  H   UNK     1      84.228  67.824 101.335  0.00  0.00    +0.000 HD
ATOM    113  O   UNK     1      83.279  66.172  99.840  0.00  0.00    +0.000 OA
ATOM    114  N   UNK     1      83.517  67.246 101.755  0.00  0.00    +0.000 N 
ATOM    115  C   UNK     1      82.955  66.270 100.997  0.00  0.00    +0.000 C 
ENDBRANCH 110 115
ENDBRANCH 101 110
BRANCH 103 116
ATOM    116  C   UNK     1      79.838  64.236  99.522  0.00  0.00    +0.000 C 
BRANCH 116 118
ATOM    117  H   UNK     1      80.231  65.803  98.410  0.00  0.00    +0.000 HD
ATOM    118  O   UNK     1      80.701  65.035  98.740  0.00  0.00    +0.000 OA
ENDBRANCH 116 118
ENDBRANCH 103 116
ENDBRANCH  99 105
ENDBRANCH  89  99
BRANCH  92 119
ATOM    119  C   UNK     1      73.978  61.291 104.070  0.00  0.00    +0.000 C 
BRANCH 119 121
ATOM    120  H   UNK     1      72.865  59.683 103.967  0.00  0.00    +0.000 HD
ATOM    121  O   UNK     1      73.608  59.994 104.487  0.00  0.00    +0.000 OA
ENDBRANCH 119 121
ENDBRANCH  92 119
ENDBRANCH  88  94
ENDBRANCH  81  88
ENDBRANCH   1  81
TORSDOF 45
ENDMDL
MODEL 15
REMARK VINA RESULT:      -6.7      5.345     11.008
REMARK  Name = ./1214.pdb
REMARK  51 active torsions:
REMARK  status: ('A' for Active; 'I' for Inactive)
REMARK    1  A    between atoms: C_85  and  S_87
REMARK    2  A    between atoms: C_86  and  S_87
REMARK    3  A    between atoms: S_87  and  C_88
REMARK    4  A    between atoms: C_88  and  C_89
REMARK    5  A    between atoms: C_89  and  C_90
REMARK    6  A    between atoms: C_90  and  N_91
REMARK    7  A    between atoms: C_93  and  C_96
REMARK    8  A    between atoms: C_98  and  C_101
REMARK    9  A    between atoms: C_103  and  C_104
REMARK   10  A    between atoms: C_104  and  C_105
REMARK   11  A    between atoms: C_105  and  N_106
REMARK   12  A    between atoms: C_108  and  C_177
REMARK   13  A    between atoms: C_113  and  C_140
REMARK   14  A    between atoms: O_114  and  C_115
REMARK   15  A    between atoms: C_118  and  O_119
REMARK   16  A    between atoms: O_119  and  C_120
REMARK   17  A    between atoms: O_121  and  C_122
REMARK   18  A    between atoms: O_123  and  C_124
REMARK   19  A    between atoms: C_124  and  C_125
REMARK   20  A    between atoms: C_127  and  O_128
REMARK   21  A    between atoms: O_128  and  C_129
REMARK   22  A    between atoms: O_130  and  C_131
REMARK   23  A    between atoms: O_132  and  C_133
REMARK   24  A    between atoms: O_134  and  C_135
REMARK   25  A    between atoms: C_135  and  C_136
REMARK   26  A    between atoms: C_138  and  O_139
REMARK   27  A    between atoms: O_139  and  C_140
REMARK   28  A    between atoms: C_140  and  C_164
REMARK   29  A    between atoms: C_144  and  C_146
REMARK   30  A    between atoms: N_145  and  C_146
REMARK   31  A    between atoms: C_146  and  C_147
REMARK   32  A    between atoms: C_147  and  N_148
REMARK   33  A    between atoms: N_148  and  C_153
REMARK   34  A    between atoms: C_151  and  C_152
REMARK   35  A    between atoms: C_152  and  C_153
REMARK   36  A    between atoms: C_153  and  C_155
REMARK   37  A    between atoms: C_158  and  C_159
REMARK   38  A    between atoms: C_160  and  C_162
REMARK   39  A    between atoms: N_163  and  C_164
REMARK   40  A    between atoms: C_164  and  C_166
REMARK   41  A    between atoms: N_167  and  C_169
REMARK   42  A    between atoms: C_168  and  C_169
REMARK   43  A    between atoms: C_169  and  C_171
REMARK   44  A    between atoms: O_170  and  C_171
REMARK   45  A    between atoms: C_171  and  C_173
REMARK   46  A    between atoms: C_172  and  C_173
REMARK   47  A    between atoms: C_173  and  C_175
REMARK   48  A    between atoms: N_176  and  C_177
REMARK   49  A    between atoms: C_177  and  C_179
REMARK   50  A    between atoms: O_178  and  C_179
REMARK   51  A    between atoms: C_179  and  C_180
REMARK                            x       y       z     vdW  Elec       q    Type
REMARK                         _______ _______ _______ _____ _____    ______ ____
ROOT
ATOM      1  C   UNK     1      72.890  62.554 106.411  0.00  0.00    +0.000 C 
ENDROOT
BRANCH   1   4
ATOM      2  H   UNK     1      72.664  65.805 107.443  0.00  0.00    +0.000 HD
ATOM      3  O   UNK     1      71.789  63.675 108.191  0.00  0.00    +0.000 OA
ATOM      4  C   UNK     1      72.488  63.799 107.217  0.00  0.00    +0.000 C 
ATOM      5  N   UNK     1      72.941  65.033 106.831  0.00  0.00    +0.000 N 
BRANCH   5   7
ATOM      6  C   UNK     1      72.910  64.635 104.407  0.00  0.00    +0.000 C 
ATOM      7  C   UNK     1      73.597  65.385 105.561  0.00  0.00    +0.000 C 
BRANCH   7   8
ATOM      8  C   UNK     1      73.522  66.907 105.349  0.00  0.00    +0.000 C 
BRANCH   8  10
ATOM      9  H   UNK     1      73.111  66.852 107.269  0.00  0.00    +0.000 HD
ATOM     10  O   UNK     1      73.109  67.497 106.559  0.00  0.00    +0.000 OA
ENDBRANCH   8  10
BRANCH   8  12
ATOM     11  C   UNK     1      75.815  66.536 104.345  0.00  0.00    +0.000 C 
ATOM     12  C   UNK     1      74.831  67.581 104.905  0.00  0.00    +0.000 C 
BRANCH  12  15
ATOM     13  H   UNK     1      73.615  69.741 105.363  0.00  0.00    +0.000 HD
ATOM     14  O   UNK     1      74.910  68.616 102.734  0.00  0.00    +0.000 OA
ATOM     15  C   UNK     1      74.561  68.682 103.884  0.00  0.00    +0.000 C 
ATOM     16  N   UNK     1      73.842  69.735 104.371  0.00  0.00    +0.000 N 
BRANCH  16  17
ATOM     17  C   UNK     1      73.371  70.866 103.560  0.00  0.00    +0.000 C 
BRANCH  17  21
ATOM     18  H   UNK     1      71.703  69.275 104.598  0.00  0.00    +0.000 HD
ATOM     19  N   UNK     1      71.215  70.154 104.415  0.00  0.00    +0.000 N 
ATOM     20  O   UNK     1      71.467  72.309 103.763  0.00  0.00    +0.000 OA
ATOM     21  C   UNK     1      71.932  71.207 103.922  0.00  0.00    +0.000 C 
BRANCH  19  22
ATOM     22  C   UNK     1      69.799  70.270 104.770  0.00  0.00    +0.000 C 
BRANCH  22  23
ATOM     23  C   UNK     1      69.609  70.283 106.296  0.00  0.00    +0.000 C 
BRANCH  23  28
ATOM     24  S   UNK     1      70.585  72.242 107.767  0.00  0.00    +0.000 S 
ATOM     25  C   UNK     1      71.963  72.209 108.265  0.00  0.00    +0.000 A 
ATOM     26  C   UNK     1      72.632  71.123 107.837  0.00  0.00    +0.000 A 
ATOM     27  N   UNK     1      71.863  70.424 107.116  0.00  0.00    +0.000 NA
ATOM     28  C   UNK     1      70.725  70.970 107.049  0.00  0.00    +0.000 A 
BRANCH  26  33
ATOM     29  S   UNK     1      74.533  71.099 109.444  0.00  0.00    +0.000 S 
ATOM     30  C   UNK     1      75.846  70.570 109.070  0.00  0.00    +0.000 A 
ATOM     31  C   UNK     1      75.840  70.124 107.804  0.00  0.00    +0.000 A 
ATOM     32  N   UNK     1      74.691  70.283 107.302  0.00  0.00    +0.000 NA
ATOM     33  C   UNK     1      73.911  70.822 108.142  0.00  0.00    +0.000 A 
BRANCH  31  37
ATOM     34  H   UNK     1      76.582  70.870 105.565  0.00  0.00    +0.000 HD
ATOM     35  N   UNK     1      77.186  70.134 105.927  0.00  0.00    +0.000 N 
ATOM     36  O   UNK     1      77.570  68.677 107.587  0.00  0.00    +0.000 OA
ATOM     37  C   UNK     1      76.907  69.588 107.149  0.00  0.00    +0.000 C 
BRANCH  35  38
ATOM     38  C   UNK     1      78.311  69.673 105.108  0.00  0.00    +0.000 C 
BRANCH  38  39
ATOM     39  C   UNK     1      78.061  69.922 103.610  0.00  0.00    +0.000 C 
BRANCH  39  40
ATOM     40  C   UNK     1      78.459  68.710 102.753  0.00  0.00    +0.000 C 
BRANCH  40  43
ATOM     41  C   UNK     1      80.110  70.686 101.694  0.00  0.00    +0.000 C 
ATOM     42  C   UNK     1      77.812  69.956 100.381  0.00  0.00    +0.000 C 
ATOM     43  S   UNK     1      79.240  69.185 101.184  0.00  0.00    +0.000 S 
ENDBRANCH  40  43
ENDBRANCH  39  40
ENDBRANCH  38  39
ENDBRANCH  35  38
ENDBRANCH  31  37
ENDBRANCH  26  33
ENDBRANCH  23  28
ENDBRANCH  22  23
ENDBRANCH  19  22
ENDBRANCH  17  21
BRANCH  17  44
ATOM     44  C   UNK     1      74.286  72.099 103.575  0.00  0.00    +0.000 C 
ATOM     45  C   UNK     1      75.203  72.166 102.356  0.00  0.00    +0.000 C 
BRANCH  44  47
ATOM     46  H   UNK     1      75.849  71.534 104.578  0.00  0.00    +0.000 HD
ATOM     47  O   UNK     1      75.068  72.076 104.749  0.00  0.00    +0.000 OA
ENDBRANCH  44  47
ENDBRANCH  17  44
ENDBRANCH  16  17
ENDBRANCH  12  15
ENDBRANCH   8  12
ENDBRANCH   7   8
ENDBRANCH   5   7
ENDBRANCH   1   4
BRANCH   1  51
ATOM     48  H   UNK     1      71.461  61.463 107.539  0.00  0.00    +0.000 HD
ATOM     49  O   UNK     1      70.200  60.208 106.136  0.00  0.00    +0.000 OA
ATOM     50  C   UNK     1      71.120  60.825 105.654  0.00  0.00    +0.000 C 
ATOM     51  N   UNK     1      71.760  61.622 106.574  0.00  0.00    +0.000 N 
BRANCH  50  61
ATOM     52  H   UNK     1      70.393  62.574 101.032  0.00  0.00    +0.000 HD
ATOM     53  H   UNK     1      71.511  61.546 100.094  0.00  0.00    +0.000 HD
ATOM     54  N   UNK     1      71.103  61.807 101.026  0.00  0.00    +0.000 N 
ATOM     55  N   UNK     1      72.346  59.821 104.048  0.00  0.00    +0.000 NA
ATOM     56  C   UNK     1      72.750  59.625 102.873  0.00  0.00    +0.000 A 
ATOM     57  N   UNK     1      72.344  60.274 101.874  0.00  0.00    +0.000 NA
ATOM     58  C   UNK     1      71.478  61.180 102.064  0.00  0.00    +0.000 A 
ATOM     59  C   UNK     1      69.976  62.551 103.501  0.00  0.00    +0.000 C 
ATOM     60  C   UNK     1      71.005  61.449 103.306  0.00  0.00    +0.000 A 
ATOM     61  C   UNK     1      71.491  60.704 104.336  0.00  0.00    +0.000 A 
BRANCH  56  62
ATOM     62  C   UNK     1      73.796  58.552 102.698  0.00  0.00    +0.000 C 
BRANCH  62  64
ATOM     63  H   UNK     1      73.104  56.611 102.757  0.00  0.00    +0.000 HD
ATOM     64  N   UNK     1      73.180  57.388 102.055  0.00  0.00    +0.000 NA
BRANCH  64  65
ATOM     65  C   UNK     1      73.904  56.913 100.875  0.00  0.00    +0.000 C 
BRANCH  65  66
ATOM     66  C   UNK     1      73.022  56.975  99.621  0.00  0.00    +0.000 C 
BRANCH  66  71
ATOM     67  H   UNK     1      71.589  54.980 100.308  0.00  0.00    +0.000 HD
ATOM     68  H   UNK     1      70.026  55.770 100.515  0.00  0.00    +0.000 HD
ATOM     69  O   UNK     1      70.854  58.003  99.957  0.00  0.00    +0.000 OA
ATOM     70  N   UNK     1      71.008  55.806 100.282  0.00  0.00    +0.000 N 
ATOM     71  C   UNK     1      71.540  57.014  99.956  0.00  0.00    +0.000 C 
ENDBRANCH  66  71
BRANCH  66  74
ATOM     72  H   UNK     1      72.994  54.933  99.281  0.00  0.00    +0.000 HD
ATOM     73  H   UNK     1      74.307  55.671  98.631  0.00  0.00    +0.000 HD
ATOM     74  N   UNK     1      73.291  55.792  98.788  0.00  0.00    +0.000 NA
ENDBRANCH  66  74
ENDBRANCH  65  66
ENDBRANCH  64  65
ENDBRANCH  62  64
BRANCH  62  75
ATOM     75  C   UNK     1      74.535  58.188 103.992  0.00  0.00    +0.000 C 
BRANCH  75  80
ATOM     76  H   UNK     1      72.395  57.756 105.467  0.00  0.00    +0.000 HD
ATOM     77  H   UNK     1      72.611  56.051 105.741  0.00  0.00    +0.000 HD
ATOM     78  O   UNK     1      74.689  55.838 104.481  0.00  0.00    +0.000 OA
ATOM     79  N   UNK     1      72.952  56.920 105.352  0.00  0.00    +0.000 N 
ATOM     80  C   UNK     1      74.092  56.872 104.611  0.00  0.00    +0.000 C 
ENDBRANCH  75  80
ENDBRANCH  62  75
ENDBRANCH  56  62
ENDBRANCH  50  61
ENDBRANCH   1  51
BRANCH   1  81
ATOM     81  C   UNK     1      74.182  61.945 107.017  0.00  0.00    +0.000 C 
BRANCH  81  87
ATOM     82  H   UNK     1      74.391  57.648 108.423  0.00  0.00    +0.000 HD
ATOM     83  N   UNK     1      73.335  60.533 108.828  0.00  0.00    +0.000 NA
ATOM     84  C   UNK     1      73.435  59.319 109.165  0.00  0.00    +0.000 A 
ATOM     85  N   UNK     1      74.159  58.665 108.359  0.00  0.00    +0.000 N 
ATOM     86  C   UNK     1      74.553  59.461 107.457  0.00  0.00    +0.000 A 
ATOM     87  C   UNK     1      74.016  60.650 107.771  0.00  0.00    +0.000 A 
ENDBRANCH  81  87
BRANCH  81  88
ATOM     88  O   UNK     1      74.804  62.879 107.879  0.00  0.00    +0.000 OA
BRANCH  88  94
ATOM     89  C   UNK     1      76.569  64.468 108.165  0.00  0.00    +0.000 C 
ATOM     90  C   UNK     1      78.017  64.708 107.746  0.00  0.00    +0.000 C 
ATOM     91  C   UNK     1      78.117  64.614 106.234  0.00  0.00    +0.000 C 
ATOM     92  C   UNK     1      77.570  63.288 105.729  0.00  0.00    +0.000 C 
ATOM     93  O   UNK     1      76.265  63.116 106.200  0.00  0.00    +0.000 OA
ATOM     94  C   UNK     1      76.171  63.111 107.605  0.00  0.00    +0.000 C 
BRANCH  90  96
ATOM     95  H   UNK     1      78.758  65.923 109.035  0.00  0.00    +0.000 HD
ATOM     96  O   UNK     1      78.523  65.975 108.103  0.00  0.00    +0.000 OA
ENDBRANCH  90  96
BRANCH  91  98
ATOM     97  H   UNK     1      80.033  64.360 106.570  0.00  0.00    +0.000 HD
ATOM     98  O   UNK     1      79.476  64.757 105.900  0.00  0.00    +0.000 OA
ENDBRANCH  91  98
BRANCH  89  99
ATOM     99  O   UNK     1      76.412  64.397 109.557  0.00  0.00    +0.000 OA
BRANCH  99 105
ATOM    100  C   UNK     1      75.240  66.488 109.381  0.00  0.00    +0.000 C 
ATOM    101  C   UNK     1      73.946  67.150 109.850  0.00  0.00    +0.000 C 
ATOM    102  C   UNK     1      73.938  67.171 111.381  0.00  0.00    +0.000 C 
ATOM    103  C   UNK     1      74.363  65.858 112.045  0.00  0.00    +0.000 C 
ATOM    104  O   UNK     1      75.490  65.303 111.419  0.00  0.00    +0.000 OA
ATOM    105  C   UNK     1      75.311  65.130 110.037  0.00  0.00    +0.000 C 
BRANCH 100 107
ATOM    106  H   UNK     1      76.678  67.791 109.020  0.00  0.00    +0.000 HD
ATOM    107  O   UNK     1      76.370  67.247 109.752  0.00  0.00    +0.000 OA
ENDBRANCH 100 107
BRANCH 102 109
ATOM    108  H   UNK     1      74.764  68.972 111.214  0.00  0.00    +0.000 HD
ATOM    109  O   UNK     1      74.793  68.215 111.801  0.00  0.00    +0.000 OA
ENDBRANCH 102 109
BRANCH 101 110
ATOM    110  O   UNK     1      72.841  66.406 109.415  0.00  0.00    +0.000 OA
BRANCH 110 115
ATOM    111  H   UNK     1      70.878  65.271 110.466  0.00  0.00    +0.000 HD
ATOM    112  H   UNK     1      69.727  66.596 110.254  0.00  0.00    +0.000 HD
ATOM    113  O   UNK     1      71.284  68.004 109.048  0.00  0.00    +0.000 OA
ATOM    114  N   UNK     1      70.658  66.216 110.183  0.00  0.00    +0.000 N 
ATOM    115  C   UNK     1      71.604  66.956 109.551  0.00  0.00    +0.000 C 
ENDBRANCH 110 115
ENDBRANCH 101 110
BRANCH 103 116
ATOM    116  C   UNK     1      73.233  64.846 112.200  0.00  0.00    +0.000 C 
BRANCH 116 118
ATOM    117  H   UNK     1      73.892  63.001 112.098  0.00  0.00    +0.000 HD
ATOM    118  O   UNK     1      73.736  63.660 112.777  0.00  0.00    +0.000 OA
ENDBRANCH 116 118
ENDBRANCH 103 116
ENDBRANCH  99 105
ENDBRANCH  89  99
BRANCH  92 119
ATOM    119  C   UNK     1      77.500  63.224 104.209  0.00  0.00    +0.000 C 
BRANCH 119 121
ATOM    120  H   UNK     1      78.875  62.054 103.452  0.00  0.00    +0.000 HD
ATOM    121  O   UNK     1      78.784  62.981 103.677  0.00  0.00    +0.000 OA
ENDBRANCH 119 121
ENDBRANCH  92 119
ENDBRANCH  88  94
ENDBRANCH  81  88
ENDBRANCH   1  81
TORSDOF 45
ENDMDL
MODEL 16
REMARK VINA RESULT:      -6.7      4.873     10.419
REMARK  Name = ./1214.pdb
REMARK  51 active torsions:
REMARK  status: ('A' for Active; 'I' for Inactive)
REMARK    1  A    between atoms: C_85  and  S_87
REMARK    2  A    between atoms: C_86  and  S_87
REMARK    3  A    between atoms: S_87  and  C_88
REMARK    4  A    between atoms: C_88  and  C_89
REMARK    5  A    between atoms: C_89  and  C_90
REMARK    6  A    between atoms: C_90  and  N_91
REMARK    7  A    between atoms: C_93  and  C_96
REMARK    8  A    between atoms: C_98  and  C_101
REMARK    9  A    between atoms: C_103  and  C_104
REMARK   10  A    between atoms: C_104  and  C_105
REMARK   11  A    between atoms: C_105  and  N_106
REMARK   12  A    between atoms: C_108  and  C_177
REMARK   13  A    between atoms: C_113  and  C_140
REMARK   14  A    between atoms: O_114  and  C_115
REMARK   15  A    between atoms: C_118  and  O_119
REMARK   16  A    between atoms: O_119  and  C_120
REMARK   17  A    between atoms: O_121  and  C_122
REMARK   18  A    between atoms: O_123  and  C_124
REMARK   19  A    between atoms: C_124  and  C_125
REMARK   20  A    between atoms: C_127  and  O_128
REMARK   21  A    between atoms: O_128  and  C_129
REMARK   22  A    between atoms: O_130  and  C_131
REMARK   23  A    between atoms: O_132  and  C_133
REMARK   24  A    between atoms: O_134  and  C_135
REMARK   25  A    between atoms: C_135  and  C_136
REMARK   26  A    between atoms: C_138  and  O_139
REMARK   27  A    between atoms: O_139  and  C_140
REMARK   28  A    between atoms: C_140  and  C_164
REMARK   29  A    between atoms: C_144  and  C_146
REMARK   30  A    between atoms: N_145  and  C_146
REMARK   31  A    between atoms: C_146  and  C_147
REMARK   32  A    between atoms: C_147  and  N_148
REMARK   33  A    between atoms: N_148  and  C_153
REMARK   34  A    between atoms: C_151  and  C_152
REMARK   35  A    between atoms: C_152  and  C_153
REMARK   36  A    between atoms: C_153  and  C_155
REMARK   37  A    between atoms: C_158  and  C_159
REMARK   38  A    between atoms: C_160  and  C_162
REMARK   39  A    between atoms: N_163  and  C_164
REMARK   40  A    between atoms: C_164  and  C_166
REMARK   41  A    between atoms: N_167  and  C_169
REMARK   42  A    between atoms: C_168  and  C_169
REMARK   43  A    between atoms: C_169  and  C_171
REMARK   44  A    between atoms: O_170  and  C_171
REMARK   45  A    between atoms: C_171  and  C_173
REMARK   46  A    between atoms: C_172  and  C_173
REMARK   47  A    between atoms: C_173  and  C_175
REMARK   48  A    between atoms: N_176  and  C_177
REMARK   49  A    between atoms: C_177  and  C_179
REMARK   50  A    between atoms: O_178  and  C_179
REMARK   51  A    between atoms: C_179  and  C_180
REMARK                            x       y       z     vdW  Elec       q    Type
REMARK                         _______ _______ _______ _____ _____    ______ ____
ROOT
ATOM      1  C   UNK     1      75.639  64.379 105.680  0.00  0.00    +0.000 C 
ENDROOT
BRANCH   1   4
ATOM      2  H   UNK     1      72.599  62.856 106.035  0.00  0.00    +0.000 HD
ATOM      3  O   UNK     1      74.685  62.343 104.917  0.00  0.00    +0.000 OA
ATOM      4  C   UNK     1      74.500  63.357 105.541  0.00  0.00    +0.000 C 
ATOM      5  N   UNK     1      73.292  63.603 106.139  0.00  0.00    +0.000 N 
BRANCH   5   7
ATOM      6  C   UNK     1      72.170  65.729 105.636  0.00  0.00    +0.000 C 
ATOM      7  C   UNK     1      72.829  64.869 106.729  0.00  0.00    +0.000 C 
BRANCH   7   8
ATOM      8  C   UNK     1      71.838  64.575 107.868  0.00  0.00    +0.000 C 
BRANCH   8  10
ATOM      9  H   UNK     1      72.939  62.984 108.214  0.00  0.00    +0.000 HD
ATOM     10  O   UNK     1      72.014  63.235 108.263  0.00  0.00    +0.000 OA
ENDBRANCH   8  10
BRANCH   8  12
ATOM     11  C   UNK     1      70.622  66.132 109.449  0.00  0.00    +0.000 C 
ATOM     12  C   UNK     1      71.971  65.468 109.113  0.00  0.00    +0.000 C 
BRANCH  12  15
ATOM     13  H   UNK     1      74.385  64.861 109.510  0.00  0.00    +0.000 HD
ATOM     14  O   UNK     1      71.799  64.250 111.180  0.00  0.00    +0.000 OA
ATOM     15  C   UNK     1      72.503  64.674 110.301  0.00  0.00    +0.000 C 
ATOM     16  N   UNK     1      73.847  64.438 110.263  0.00  0.00    +0.000 N 
BRANCH  16  17
ATOM     17  C   UNK     1      74.574  63.613 111.237  0.00  0.00    +0.000 C 
BRANCH  17  21
ATOM     18  H   UNK     1      73.894  62.764 108.955  0.00  0.00    +0.000 HD
ATOM     19  N   UNK     1      74.544  62.085 109.353  0.00  0.00    +0.000 N 
ATOM     20  O   UNK     1      75.965  61.667 111.067  0.00  0.00    +0.000 OA
ATOM     21  C   UNK     1      75.117  62.361 110.561  0.00  0.00    +0.000 C 
BRANCH  19  22
ATOM     22  C   UNK     1      74.895  60.894 108.576  0.00  0.00    +0.000 C 
BRANCH  22  23
ATOM     23  C   UNK     1      73.885  59.758 108.815  0.00  0.00    +0.000 C 
BRANCH  23  28
ATOM     24  S   UNK     1      71.868  58.546 107.626  0.00  0.00    +0.000 S 
ATOM     25  C   UNK     1      71.124  59.190 106.540  0.00  0.00    +0.000 A 
ATOM     26  C   UNK     1      71.629  60.396 106.222  0.00  0.00    +0.000 A 
ATOM     27  N   UNK     1      72.621  60.636 106.970  0.00  0.00    +0.000 NA
ATOM     28  C   UNK     1      72.797  59.673 107.770  0.00  0.00    +0.000 A 
BRANCH  26  33
ATOM     29  S   UNK     1      70.002  62.120 105.466  0.00  0.00    +0.000 S 
ATOM     30  C   UNK     1      70.024  62.649 104.102  0.00  0.00    +0.000 A 
ATOM     31  C   UNK     1      71.012  62.088 103.386  0.00  0.00    +0.000 A 
ATOM     32  N   UNK     1      71.646  61.267 104.108  0.00  0.00    +0.000 NA
ATOM     33  C   UNK     1      71.147  61.220 105.270  0.00  0.00    +0.000 A 
BRANCH  31  37
ATOM     34  H   UNK     1      72.537  60.709 102.011  0.00  0.00    +0.000 HD
ATOM     35  N   UNK     1      72.141  61.474 101.467  0.00  0.00    +0.000 N 
ATOM     36  O   UNK     1      70.843  63.302 101.480  0.00  0.00    +0.000 OA
ATOM     37  C   UNK     1      71.290  62.352 102.080  0.00  0.00    +0.000 C 
BRANCH  35  38
ATOM     38  C   UNK     1      72.525  61.618 100.059  0.00  0.00    +0.000 C 
BRANCH  38  39
ATOM     39  C   UNK     1      71.735  60.654  99.156  0.00  0.00    +0.000 C 
BRANCH  39  40
ATOM     40  C   UNK     1      70.473  61.313  98.580  0.00  0.00    +0.000 C 
BRANCH  40  43
ATOM     41  C   UNK     1      69.539  59.684  96.523  0.00  0.00    +0.000 C 
ATOM     42  C   UNK     1      72.099  60.674  96.448  0.00  0.00    +0.000 C 
ATOM     43  S   UNK     1      70.412  61.250  96.765  0.00  0.00    +0.000 S 
ENDBRANCH  40  43
ENDBRANCH  39  40
ENDBRANCH  38  39
ENDBRANCH  35  38
ENDBRANCH  31  37
ENDBRANCH  26  33
ENDBRANCH  23  28
ENDBRANCH  22  23
ENDBRANCH  19  22
ENDBRANCH  17  21
BRANCH  17  44
ATOM     44  C   UNK     1      75.650  64.358 112.040  0.00  0.00    +0.000 C 
ATOM     45  C   UNK     1      75.311  64.458 113.526  0.00  0.00    +0.000 C 
BRANCH  44  47
ATOM     46  H   UNK     1      75.119  65.790 110.842  0.00  0.00    +0.000 HD
ATOM     47  O   UNK     1      75.806  65.654 111.506  0.00  0.00    +0.000 OA
ENDBRANCH  44  47
ENDBRANCH  17  44
ENDBRANCH  16  17
ENDBRANCH  12  15
ENDBRANCH   8  12
ENDBRANCH   7   8
ENDBRANCH   5   7
ENDBRANCH   1   4
BRANCH   1  51
ATOM     48  H   UNK     1      75.446  64.742 103.599  0.00  0.00    +0.000 HD
ATOM     49  O   UNK     1      75.429  66.976 103.227  0.00  0.00    +0.000 OA
ATOM     50  C   UNK     1      75.621  66.604 104.360  0.00  0.00    +0.000 C 
ATOM     51  N   UNK     1      75.520  65.238 104.489  0.00  0.00    +0.000 N 
BRANCH  50  61
ATOM     52  H   UNK     1      79.325  69.075 106.623  0.00  0.00    +0.000 HD
ATOM     53  H   UNK     1      78.438  69.902 107.933  0.00  0.00    +0.000 HD
ATOM     54  N   UNK     1      78.414  69.264 107.099  0.00  0.00    +0.000 N 
ATOM     55  N   UNK     1      74.996  67.844 106.137  0.00  0.00    +0.000 NA
ATOM     56  C   UNK     1      75.177  68.625 107.106  0.00  0.00    +0.000 A 
ATOM     57  N   UNK     1      76.299  69.095 107.429  0.00  0.00    +0.000 NA
ATOM     58  C   UNK     1      77.306  68.762 106.735  0.00  0.00    +0.000 A 
ATOM     59  C   UNK     1      78.407  67.561 104.852  0.00  0.00    +0.000 C 
ATOM     60  C   UNK     1      77.181  67.930 105.671  0.00  0.00    +0.000 A 
ATOM     61  C   UNK     1      75.937  67.463 105.385  0.00  0.00    +0.000 A 
BRANCH  56  62
ATOM     62  C   UNK     1      73.947  69.010 107.891  0.00  0.00    +0.000 C 
BRANCH  62  64
ATOM     63  H   UNK     1      73.731  70.379 106.365  0.00  0.00    +0.000 HD
ATOM     64  N   UNK     1      73.119  69.900 107.072  0.00  0.00    +0.000 NA
BRANCH  64  65
ATOM     65  C   UNK     1      72.388  70.904 107.847  0.00  0.00    +0.000 C 
BRANCH  65  66
ATOM     66  C   UNK     1      70.871  70.721 107.697  0.00  0.00    +0.000 C 
BRANCH  66  71
ATOM     67  H   UNK     1      70.132  68.286 107.875  0.00  0.00    +0.000 HD
ATOM     68  H   UNK     1      69.904  67.900 106.170  0.00  0.00    +0.000 HD
ATOM     69  O   UNK     1      70.506  70.133 105.375  0.00  0.00    +0.000 OA
ATOM     70  N   UNK     1      70.156  68.550 106.901  0.00  0.00    +0.000 N 
ATOM     71  C   UNK     1      70.508  69.811 106.535  0.00  0.00    +0.000 C 
ENDBRANCH  66  71
BRANCH  66  74
ATOM     72  H   UNK     1      69.222  71.965 107.561  0.00  0.00    +0.000 HD
ATOM     73  H   UNK     1      70.420  72.377 106.518  0.00  0.00    +0.000 HD
ATOM     74  N   UNK     1      70.250  72.039 107.481  0.00  0.00    +0.000 NA
ENDBRANCH  66  74
ENDBRANCH  65  66
ENDBRANCH  64  65
ENDBRANCH  62  64
BRANCH  62  75
ATOM     75  C   UNK     1      74.252  69.596 109.276  0.00  0.00    +0.000 C 
BRANCH  75  80
ATOM     76  H   UNK     1      76.642  69.405 110.367  0.00  0.00    +0.000 HD
ATOM     77  H   UNK     1      76.346  68.033 111.396  0.00  0.00    +0.000 HD
ATOM     78  O   UNK     1      74.019  67.703 110.741  0.00  0.00    +0.000 OA
ATOM     79  N   UNK     1      76.019  68.676 110.688  0.00  0.00    +0.000 N 
ATOM     80  C   UNK     1      74.720  68.569 110.295  0.00  0.00    +0.000 C 
ENDBRANCH  75  80
ENDBRANCH  62  75
ENDBRANCH  56  62
ENDBRANCH  50  61
ENDBRANCH   1  51
BRANCH   1  81
ATOM     81  C   UNK     1      77.001  63.633 105.671  0.00  0.00    +0.000 C 
BRANCH  81  87
ATOM     82  H   UNK     1      80.332  64.161 108.689  0.00  0.00    +0.000 HD
ATOM     83  N   UNK     1      77.347  63.579 108.094  0.00  0.00    +0.000 NA
ATOM     84  C   UNK     1      78.322  63.739 108.882  0.00  0.00    +0.000 A 
ATOM     85  N   UNK     1      79.395  63.991 108.260  0.00  0.00    +0.000 N 
ATOM     86  C   UNK     1      79.132  63.998 107.021  0.00  0.00    +0.000 A 
ATOM     87  C   UNK     1      77.821  63.732 106.932  0.00  0.00    +0.000 A 
ENDBRANCH  81  87
BRANCH  81  88
ATOM     88  O   UNK     1      77.796  64.083 104.592  0.00  0.00    +0.000 OA
BRANCH  88  94
ATOM     89  C   UNK     1      77.046  63.257 102.475  0.00  0.00    +0.000 C 
ATOM     90  C   UNK     1      77.305  62.112 101.499  0.00  0.00    +0.000 C 
ATOM     91  C   UNK     1      77.200  60.793 102.244  0.00  0.00    +0.000 C 
ATOM     92  C   UNK     1      78.132  60.765 103.445  0.00  0.00    +0.000 C 
ATOM     93  O   UNK     1      77.873  61.871 104.259  0.00  0.00    +0.000 OA
ATOM     94  C   UNK     1      78.054  63.105 103.604  0.00  0.00    +0.000 C 
BRANCH  90  96
ATOM     95  H   UNK     1      76.908  62.086  99.621  0.00  0.00    +0.000 HD
ATOM     96  O   UNK     1      76.388  62.043 100.429  0.00  0.00    +0.000 OA
ENDBRANCH  90  96
BRANCH  91  98
ATOM     97  H   UNK     1      76.972  59.007 101.464  0.00  0.00    +0.000 HD
ATOM     98  O   UNK     1      77.527  59.775 101.329  0.00  0.00    +0.000 OA
ENDBRANCH  91  98
BRANCH  89  99
ATOM     99  O   UNK     1      77.262  64.518 101.902  0.00  0.00    +0.000 OA
BRANCH  99 105
ATOM    100  C   UNK     1      79.171  65.948 101.604  0.00  0.00    +0.000 C 
ATOM    101  C   UNK     1      80.565  65.929 100.981  0.00  0.00    +0.000 C 
ATOM    102  C   UNK     1      80.424  65.654  99.481  0.00  0.00    +0.000 C 
ATOM    103  C   UNK     1      79.453  64.525  99.122  0.00  0.00    +0.000 C 
ATOM    104  O   UNK     1      78.269  64.603  99.873  0.00  0.00    +0.000 OA
ATOM    105  C   UNK     1      78.507  64.637 101.257  0.00  0.00    +0.000 C 
BRANCH 100 107
ATOM    106  H   UNK     1      77.611  67.157 101.637  0.00  0.00    +0.000 HD
ATOM    107  O   UNK     1      78.396  67.014 101.098  0.00  0.00    +0.000 OA
ENDBRANCH 100 107
BRANCH 102 109
ATOM    108  H   UNK     1      80.559  67.092  98.115  0.00  0.00    +0.000 HD
ATOM    109  O   UNK     1      80.007  66.853  98.861  0.00  0.00    +0.000 OA
ENDBRANCH 102 109
BRANCH 101 110
ATOM    110  O   UNK     1      81.329  64.899 101.546  0.00  0.00    +0.000 OA
BRANCH 110 115
ATOM    111  H   UNK     1      82.632  66.826 102.461  0.00  0.00    +0.000 HD
ATOM    112  H   UNK     1      84.236  66.221 102.031  0.00  0.00    +0.000 HD
ATOM    113  O   UNK     1      83.397  64.253 100.898  0.00  0.00    +0.000 OA
ATOM    114  N   UNK     1      83.237  66.108 102.088  0.00  0.00    +0.000 N 
ATOM    115  C   UNK     1      82.684  65.011 101.509  0.00  0.00    +0.000 C 
ENDBRANCH 110 115
ENDBRANCH 101 110
BRANCH 103 116
ATOM    116  C   UNK     1      80.074  63.133  99.169  0.00  0.00    +0.000 C 
BRANCH 116 118
ATOM    117  H   UNK     1      81.869  63.892  99.396  0.00  0.00    +0.000 HD
ATOM    118  O   UNK     1      81.449  63.218  98.859  0.00  0.00    +0.000 OA
ENDBRANCH 116 118
ENDBRANCH 103 116
ENDBRANCH  99 105
ENDBRANCH  89  99
BRANCH  92 119
ATOM    119  C   UNK     1      77.935  59.528 104.310  0.00  0.00    +0.000 C 
BRANCH 119 121
ATOM    120  H   UNK     1      76.187  58.875 104.904  0.00  0.00    +0.000 HD
ATOM    121  O   UNK     1      76.659  58.972 104.075  0.00  0.00    +0.000 OA
ENDBRANCH 119 121
ENDBRANCH  92 119
ENDBRANCH  88  94
ENDBRANCH  81  88
ENDBRANCH   1  81
TORSDOF 45
ENDMDL
MODEL 17
REMARK VINA RESULT:      -6.7      5.358     10.220
REMARK  Name = ./1214.pdb
REMARK  51 active torsions:
REMARK  status: ('A' for Active; 'I' for Inactive)
REMARK    1  A    between atoms: C_85  and  S_87
REMARK    2  A    between atoms: C_86  and  S_87
REMARK    3  A    between atoms: S_87  and  C_88
REMARK    4  A    between atoms: C_88  and  C_89
REMARK    5  A    between atoms: C_89  and  C_90
REMARK    6  A    between atoms: C_90  and  N_91
REMARK    7  A    between atoms: C_93  and  C_96
REMARK    8  A    between atoms: C_98  and  C_101
REMARK    9  A    between atoms: C_103  and  C_104
REMARK   10  A    between atoms: C_104  and  C_105
REMARK   11  A    between atoms: C_105  and  N_106
REMARK   12  A    between atoms: C_108  and  C_177
REMARK   13  A    between atoms: C_113  and  C_140
REMARK   14  A    between atoms: O_114  and  C_115
REMARK   15  A    between atoms: C_118  and  O_119
REMARK   16  A    between atoms: O_119  and  C_120
REMARK   17  A    between atoms: O_121  and  C_122
REMARK   18  A    between atoms: O_123  and  C_124
REMARK   19  A    between atoms: C_124  and  C_125
REMARK   20  A    between atoms: C_127  and  O_128
REMARK   21  A    between atoms: O_128  and  C_129
REMARK   22  A    between atoms: O_130  and  C_131
REMARK   23  A    between atoms: O_132  and  C_133
REMARK   24  A    between atoms: O_134  and  C_135
REMARK   25  A    between atoms: C_135  and  C_136
REMARK   26  A    between atoms: C_138  and  O_139
REMARK   27  A    between atoms: O_139  and  C_140
REMARK   28  A    between atoms: C_140  and  C_164
REMARK   29  A    between atoms: C_144  and  C_146
REMARK   30  A    between atoms: N_145  and  C_146
REMARK   31  A    between atoms: C_146  and  C_147
REMARK   32  A    between atoms: C_147  and  N_148
REMARK   33  A    between atoms: N_148  and  C_153
REMARK   34  A    between atoms: C_151  and  C_152
REMARK   35  A    between atoms: C_152  and  C_153
REMARK   36  A    between atoms: C_153  and  C_155
REMARK   37  A    between atoms: C_158  and  C_159
REMARK   38  A    between atoms: C_160  and  C_162
REMARK   39  A    between atoms: N_163  and  C_164
REMARK   40  A    between atoms: C_164  and  C_166
REMARK   41  A    between atoms: N_167  and  C_169
REMARK   42  A    between atoms: C_168  and  C_169
REMARK   43  A    between atoms: C_169  and  C_171
REMARK   44  A    between atoms: O_170  and  C_171
REMARK   45  A    between atoms: C_171  and  C_173
REMARK   46  A    between atoms: C_172  and  C_173
REMARK   47  A    between atoms: C_173  and  C_175
REMARK   48  A    between atoms: N_176  and  C_177
REMARK   49  A    between atoms: C_177  and  C_179
REMARK   50  A    between atoms: O_178  and  C_179
REMARK   51  A    between atoms: C_179  and  C_180
REMARK                            x       y       z     vdW  Elec       q    Type
REMARK                         _______ _______ _______ _____ _____    ______ ____
ROOT
ATOM      1  C   UNK     1      73.093  62.402 106.231  0.00  0.00    +0.000 C 
ENDROOT
BRANCH   1   4
ATOM      2  H   UNK     1      72.693  65.684 107.100  0.00  0.00    +0.000 HD
ATOM      3  O   UNK     1      71.798  63.562 107.849  0.00  0.00    +0.000 OA
ATOM      4  C   UNK     1      72.586  63.667 106.943  0.00  0.00    +0.000 C 
ATOM      5  N   UNK     1      73.046  64.896 106.551  0.00  0.00    +0.000 N 
BRANCH   5   7
ATOM      6  C   UNK     1      73.052  64.706 104.102  0.00  0.00    +0.000 C 
ATOM      7  C   UNK     1      73.814  65.216 105.337  0.00  0.00    +0.000 C 
BRANCH   7   8
ATOM      8  C   UNK     1      74.038  66.736 105.255  0.00  0.00    +0.000 C 
BRANCH   8  10
ATOM      9  H   UNK     1      73.833  66.989 107.193  0.00  0.00    +0.000 HD
ATOM     10  O   UNK     1      73.440  67.326 106.385  0.00  0.00    +0.000 OA
ENDBRANCH   8  10
BRANCH   8  12
ATOM     11  C   UNK     1      76.090  66.942 103.789  0.00  0.00    +0.000 C 
ATOM     12  C   UNK     1      75.506  67.189 105.193  0.00  0.00    +0.000 C 
BRANCH  12  15
ATOM     13  H   UNK     1      76.798  68.054 107.178  0.00  0.00    +0.000 HD
ATOM     14  O   UNK     1      75.130  69.557 104.984  0.00  0.00    +0.000 OA
ATOM     15  C   UNK     1      75.644  68.655 105.594  0.00  0.00    +0.000 C 
ATOM     16  N   UNK     1      76.361  68.860 106.737  0.00  0.00    +0.000 N 
BRANCH  16  17
ATOM     17  C   UNK     1      76.546  70.168 107.379  0.00  0.00    +0.000 C 
BRANCH  17  21
ATOM     18  H   UNK     1      74.350  71.176 106.634  0.00  0.00    +0.000 HD
ATOM     19  N   UNK     1      74.313  71.078 107.650  0.00  0.00    +0.000 N 
ATOM     20  O   UNK     1      75.369  70.233 109.467  0.00  0.00    +0.000 OA
ATOM     21  C   UNK     1      75.363  70.479 108.286  0.00  0.00    +0.000 C 
BRANCH  19  22
ATOM     22  C   UNK     1      73.106  71.502 108.363  0.00  0.00    +0.000 C 
BRANCH  22  23
ATOM     23  C   UNK     1      71.863  71.390 107.464  0.00  0.00    +0.000 C 
BRANCH  23  28
ATOM     24  S   UNK     1      70.997  73.627 108.559  0.00  0.00    +0.000 S 
ATOM     25  C   UNK     1      69.620  74.089 108.363  0.00  0.00    +0.000 A 
ATOM     26  C   UNK     1      68.892  73.225 107.633  0.00  0.00    +0.000 A 
ATOM     27  N   UNK     1      69.622  72.241 107.313  0.00  0.00    +0.000 NA
ATOM     28  C   UNK     1      70.787  72.405 107.775  0.00  0.00    +0.000 A 
BRANCH  26  33
ATOM     29  S   UNK     1      67.158  74.086 106.070  0.00  0.00    +0.000 S 
ATOM     30  C   UNK     1      65.729  73.917 106.341  0.00  0.00    +0.000 A 
ATOM     31  C   UNK     1      65.535  73.253 107.493  0.00  0.00    +0.000 A 
ATOM     32  N   UNK     1      66.652  72.958 108.006  0.00  0.00    +0.000 NA
ATOM     33  C   UNK     1      67.600  73.388 107.285  0.00  0.00    +0.000 A 
BRANCH  31  37
ATOM     34  H   UNK     1      64.609  70.961 107.559  0.00  0.00    +0.000 HD
ATOM     35  N   UNK     1      63.978  71.626 108.003  0.00  0.00    +0.000 N 
ATOM     36  O   UNK     1      63.576  73.774 108.505  0.00  0.00    +0.000 OA
ATOM     37  C   UNK     1      64.325  72.949 108.035  0.00  0.00    +0.000 C 
BRANCH  35  38
ATOM     38  C   UNK     1      62.711  71.141 108.559  0.00  0.00    +0.000 C 
BRANCH  38  39
ATOM     39  C   UNK     1      61.698  70.803 107.451  0.00  0.00    +0.000 C 
BRANCH  39  40
ATOM     40  C   UNK     1      60.566  71.839 107.373  0.00  0.00    +0.000 C 
BRANCH  40  43
ATOM     41  C   UNK     1      58.355  72.144 109.038  0.00  0.00    +0.000 C 
ATOM     42  C   UNK     1      60.020  74.271 108.548  0.00  0.00    +0.000 C 
ATOM     43  S   UNK     1      60.124  72.521 108.997  0.00  0.00    +0.000 S 
ENDBRANCH  40  43
ENDBRANCH  39  40
ENDBRANCH  38  39
ENDBRANCH  35  38
ENDBRANCH  31  37
ENDBRANCH  26  33
ENDBRANCH  23  28
ENDBRANCH  22  23
ENDBRANCH  19  22
ENDBRANCH  17  21
BRANCH  17  44
ATOM     44  C   UNK     1      77.894  70.355 108.090  0.00  0.00    +0.000 C 
ATOM     45  C   UNK     1      79.004  70.796 107.138  0.00  0.00    +0.000 C 
BRANCH  44  47
ATOM     46  H   UNK     1      78.135  68.429 108.066  0.00  0.00    +0.000 HD
ATOM     47  O   UNK     1      78.260  69.141 108.707  0.00  0.00    +0.000 OA
ENDBRANCH  44  47
ENDBRANCH  17  44
ENDBRANCH  16  17
ENDBRANCH  12  15
ENDBRANCH   8  12
ENDBRANCH   7   8
ENDBRANCH   5   7
ENDBRANCH   1   4
BRANCH   1  51
ATOM     48  H   UNK     1      71.807  61.098 107.303  0.00  0.00    +0.000 HD
ATOM     49  O   UNK     1      70.381  60.096 105.855  0.00  0.00    +0.000 OA
ATOM     50  C   UNK     1      71.239  60.807 105.387  0.00  0.00    +0.000 C 
ATOM     51  N   UNK     1      71.988  61.435 106.355  0.00  0.00    +0.000 N 
BRANCH  50  61
ATOM     52  H   UNK     1      69.939  63.332 101.278  0.00  0.00    +0.000 HD
ATOM     53  H   UNK     1      70.943  62.523 100.044  0.00  0.00    +0.000 HD
ATOM     54  N   UNK     1      70.649  62.600 101.049  0.00  0.00    +0.000 N 
ATOM     55  N   UNK     1      72.268  60.144 103.493  0.00  0.00    +0.000 NA
ATOM     56  C   UNK     1      72.528  60.174 102.262  0.00  0.00    +0.000 A 
ATOM     57  N   UNK     1      71.998  60.979 101.453  0.00  0.00    +0.000 NA
ATOM     58  C   UNK     1      71.153  61.809 101.905  0.00  0.00    +0.000 A 
ATOM     59  C   UNK     1      69.826  62.855 103.734  0.00  0.00    +0.000 C 
ATOM     60  C   UNK     1      70.833  61.837 103.222  0.00  0.00    +0.000 A 
ATOM     61  C   UNK     1      71.447  60.936 104.035  0.00  0.00    +0.000 A 
BRANCH  56  62
ATOM     62  C   UNK     1      73.553  59.182 101.773  0.00  0.00    +0.000 C 
BRANCH  62  64
ATOM     63  H   UNK     1      75.415  59.982 101.395  0.00  0.00    +0.000 HD
ATOM     64  N   UNK     1      74.882  59.611 102.220  0.00  0.00    +0.000 NA
BRANCH  64  65
ATOM     65  C   UNK     1      75.657  58.552 102.869  0.00  0.00    +0.000 C 
BRANCH  65  66
ATOM     66  C   UNK     1      77.161  58.846 102.800  0.00  0.00    +0.000 C 
BRANCH  66  71
ATOM     67  H   UNK     1      75.692  59.824 104.642  0.00  0.00    +0.000 HD
ATOM     68  H   UNK     1      76.895  60.736 105.553  0.00  0.00    +0.000 HD
ATOM     69  O   UNK     1      78.768  60.092 104.117  0.00  0.00    +0.000 OA
ATOM     70  N   UNK     1      76.643  60.138 104.779  0.00  0.00    +0.000 N 
ATOM     71  C   UNK     1      77.630  59.743 103.933  0.00  0.00    +0.000 C 
ENDBRANCH  66  71
BRANCH  66  74
ATOM     72  H   UNK     1      76.841  60.320 101.381  0.00  0.00    +0.000 HD
ATOM     73  H   UNK     1      77.255  58.876 100.720  0.00  0.00    +0.000 HD
ATOM     74  N   UNK     1      77.462  59.503 101.517  0.00  0.00    +0.000 NA
ENDBRANCH  66  74
ENDBRANCH  65  66
ENDBRANCH  64  65
ENDBRANCH  62  64
BRANCH  62  75
ATOM     75  C   UNK     1      73.495  58.922 100.262  0.00  0.00    +0.000 C 
BRANCH  75  80
ATOM     76  H   UNK     1      73.460  61.442  99.496  0.00  0.00    +0.000 HD
ATOM     77  H   UNK     1      74.999  61.485  98.684  0.00  0.00    +0.000 HD
ATOM     78  O   UNK     1      75.582  59.151  99.089  0.00  0.00    +0.000 OA
ATOM     79  N   UNK     1      74.290  60.960  99.177  0.00  0.00    +0.000 N 
ATOM     80  C   UNK     1      74.559  59.657  99.464  0.00  0.00    +0.000 C 
ENDBRANCH  75  80
ENDBRANCH  62  75
ENDBRANCH  56  62
ENDBRANCH  50  61
ENDBRANCH   1  51
BRANCH   1  81
ATOM     81  C   UNK     1      74.356  61.873 106.963  0.00  0.00    +0.000 C 
BRANCH  81  87
ATOM     82  H   UNK     1      74.490  57.696 108.698  0.00  0.00    +0.000 HD
ATOM     83  N   UNK     1      73.473  60.618 108.869  0.00  0.00    +0.000 NA
ATOM     84  C   UNK     1      73.553  59.432 109.300  0.00  0.00    +0.000 A 
ATOM     85  N   UNK     1      74.274  58.707 108.553  0.00  0.00    +0.000 N 
ATOM     86  C   UNK     1      74.686  59.426 107.596  0.00  0.00    +0.000 A 
ATOM     87  C   UNK     1      74.165  60.642 107.812  0.00  0.00    +0.000 A 
ENDBRANCH  81  87
BRANCH  81  88
ATOM     88  O   UNK     1      74.909  62.889 107.777  0.00  0.00    +0.000 OA
BRANCH  88  94
ATOM     89  C   UNK     1      76.569  64.592 108.036  0.00  0.00    +0.000 C 
ATOM     90  C   UNK     1      77.991  64.928 107.594  0.00  0.00    +0.000 C 
ATOM     91  C   UNK     1      78.072  64.839 106.080  0.00  0.00    +0.000 C 
ATOM     92  C   UNK     1      77.607  63.480 105.584  0.00  0.00    +0.000 C 
ATOM     93  O   UNK     1      76.324  63.221 106.075  0.00  0.00    +0.000 OA
ATOM     94  C   UNK     1      76.254  63.212 107.482  0.00  0.00    +0.000 C 
BRANCH  90  96
ATOM     95  H   UNK     1      77.680  66.640 108.404  0.00  0.00    +0.000 HD
ATOM     96  O   UNK     1      78.417  66.226 107.944  0.00  0.00    +0.000 OA
ENDBRANCH  90  96
BRANCH  91  98
ATOM     97  H   UNK     1      79.805  65.735 106.296  0.00  0.00    +0.000 HD
ATOM     98  O   UNK     1      79.414  65.073 105.725  0.00  0.00    +0.000 OA
ENDBRANCH  91  98
BRANCH  89  99
ATOM     99  O   UNK     1      76.439  64.512 109.430  0.00  0.00    +0.000 OA
BRANCH  99 105
ATOM    100  C   UNK     1      75.160  66.537 109.234  0.00  0.00    +0.000 C 
ATOM    101  C   UNK     1      73.856  67.154 109.737  0.00  0.00    +0.000 C 
ATOM    102  C   UNK     1      73.911  67.229 111.265  0.00  0.00    +0.000 C 
ATOM    103  C   UNK     1      74.427  65.962 111.954  0.00  0.00    +0.000 C 
ATOM    104  O   UNK     1      75.552  65.439 111.299  0.00  0.00    +0.000 OA
ATOM    105  C   UNK     1      75.324  65.208 109.932  0.00  0.00    +0.000 C 
BRANCH 100 107
ATOM    106  H   UNK     1      76.272  67.613 110.459  0.00  0.00    +0.000 HD
ATOM    107  O   UNK     1      76.267  67.361 109.531  0.00  0.00    +0.000 OA
ENDBRANCH 100 107
BRANCH 102 109
ATOM    108  H   UNK     1      75.388  68.099 112.273  0.00  0.00    +0.000 HD
ATOM    109  O   UNK     1      74.731  68.327 111.613  0.00  0.00    +0.000 OA
ENDBRANCH 102 109
BRANCH 101 110
ATOM    110  O   UNK     1      72.772  66.344 109.375  0.00  0.00    +0.000 OA
BRANCH 110 115
ATOM    111  H   UNK     1      72.361  68.542 108.259  0.00  0.00    +0.000 HD
ATOM    112  H   UNK     1      70.609  68.574 108.488  0.00  0.00    +0.000 HD
ATOM    113  O   UNK     1      70.550  66.516 109.762  0.00  0.00    +0.000 OA
ATOM    114  N   UNK     1      71.500  68.110 108.565  0.00  0.00    +0.000 N 
ATOM    115  C   UNK     1      71.552  66.930 109.234  0.00  0.00    +0.000 C 
ENDBRANCH 110 115
ENDBRANCH 101 110
BRANCH 103 116
ATOM    116  C   UNK     1      73.354  64.904 112.191  0.00  0.00    +0.000 C 
BRANCH 116 118
ATOM    117  H   UNK     1      71.404  64.864 112.395  0.00  0.00    +0.000 HD
ATOM    118  O   UNK     1      72.089  65.524 112.280  0.00  0.00    +0.000 OA
ENDBRANCH 116 118
ENDBRANCH 103 116
ENDBRANCH  99 105
ENDBRANCH  89  99
BRANCH  92 119
ATOM    119  C   UNK     1      77.517  63.411 104.065  0.00  0.00    +0.000 C 
BRANCH 119 121
ATOM    120  H   UNK     1      75.756  62.633 104.417  0.00  0.00    +0.000 HD
ATOM    121  O   UNK     1      76.216  63.028 103.675  0.00  0.00    +0.000 OA
ENDBRANCH 119 121
ENDBRANCH  92 119
ENDBRANCH  88  94
ENDBRANCH  81  88
ENDBRANCH   1  81
TORSDOF 45
ENDMDL
MODEL 18
REMARK VINA RESULT:      -6.7      5.276     10.948
REMARK  Name = ./1214.pdb
REMARK  51 active torsions:
REMARK  status: ('A' for Active; 'I' for Inactive)
REMARK    1  A    between atoms: C_85  and  S_87
REMARK    2  A    between atoms: C_86  and  S_87
REMARK    3  A    between atoms: S_87  and  C_88
REMARK    4  A    between atoms: C_88  and  C_89
REMARK    5  A    between atoms: C_89  and  C_90
REMARK    6  A    between atoms: C_90  and  N_91
REMARK    7  A    between atoms: C_93  and  C_96
REMARK    8  A    between atoms: C_98  and  C_101
REMARK    9  A    between atoms: C_103  and  C_104
REMARK   10  A    between atoms: C_104  and  C_105
REMARK   11  A    between atoms: C_105  and  N_106
REMARK   12  A    between atoms: C_108  and  C_177
REMARK   13  A    between atoms: C_113  and  C_140
REMARK   14  A    between atoms: O_114  and  C_115
REMARK   15  A    between atoms: C_118  and  O_119
REMARK   16  A    between atoms: O_119  and  C_120
REMARK   17  A    between atoms: O_121  and  C_122
REMARK   18  A    between atoms: O_123  and  C_124
REMARK   19  A    between atoms: C_124  and  C_125
REMARK   20  A    between atoms: C_127  and  O_128
REMARK   21  A    between atoms: O_128  and  C_129
REMARK   22  A    between atoms: O_130  and  C_131
REMARK   23  A    between atoms: O_132  and  C_133
REMARK   24  A    between atoms: O_134  and  C_135
REMARK   25  A    between atoms: C_135  and  C_136
REMARK   26  A    between atoms: C_138  and  O_139
REMARK   27  A    between atoms: O_139  and  C_140
REMARK   28  A    between atoms: C_140  and  C_164
REMARK   29  A    between atoms: C_144  and  C_146
REMARK   30  A    between atoms: N_145  and  C_146
REMARK   31  A    between atoms: C_146  and  C_147
REMARK   32  A    between atoms: C_147  and  N_148
REMARK   33  A    between atoms: N_148  and  C_153
REMARK   34  A    between atoms: C_151  and  C_152
REMARK   35  A    between atoms: C_152  and  C_153
REMARK   36  A    between atoms: C_153  and  C_155
REMARK   37  A    between atoms: C_158  and  C_159
REMARK   38  A    between atoms: C_160  and  C_162
REMARK   39  A    between atoms: N_163  and  C_164
REMARK   40  A    between atoms: C_164  and  C_166
REMARK   41  A    between atoms: N_167  and  C_169
REMARK   42  A    between atoms: C_168  and  C_169
REMARK   43  A    between atoms: C_169  and  C_171
REMARK   44  A    between atoms: O_170  and  C_171
REMARK   45  A    between atoms: C_171  and  C_173
REMARK   46  A    between atoms: C_172  and  C_173
REMARK   47  A    between atoms: C_173  and  C_175
REMARK   48  A    between atoms: N_176  and  C_177
REMARK   49  A    between atoms: C_177  and  C_179
REMARK   50  A    between atoms: O_178  and  C_179
REMARK   51  A    between atoms: C_179  and  C_180
REMARK                            x       y       z     vdW  Elec       q    Type
REMARK                         _______ _______ _______ _____ _____    ______ ____
ROOT
ATOM      1  C   UNK     1      74.259  62.276 106.773  0.00  0.00    +0.000 C 
ENDROOT
BRANCH   1   4
ATOM      2  H   UNK     1      71.011  61.890 105.779  0.00  0.00    +0.000 HD
ATOM      3  O   UNK     1      72.181  62.022 107.895  0.00  0.00    +0.000 OA
ATOM      4  C   UNK     1      72.736  62.076 106.826  0.00  0.00    +0.000 C 
ATOM      5  N   UNK     1      72.023  61.979 105.660  0.00  0.00    +0.000 N 
BRANCH   5   7
ATOM      6  C   UNK     1      72.372  60.329 103.874  0.00  0.00    +0.000 C 
ATOM      7  C   UNK     1      72.557  61.796 104.300  0.00  0.00    +0.000 C 
BRANCH   7   8
ATOM      8  C   UNK     1      71.833  62.746 103.331  0.00  0.00    +0.000 C 
BRANCH   8  10
ATOM      9  H   UNK     1      72.581  64.356 102.489  0.00  0.00    +0.000 HD
ATOM     10  O   UNK     1      72.809  63.429 102.580  0.00  0.00    +0.000 OA
ENDBRANCH   8  10
BRANCH   8  12
ATOM     11  C   UNK     1      69.440  62.670 102.515  0.00  0.00    +0.000 C 
ATOM     12  C   UNK     1      70.852  62.077 102.353  0.00  0.00    +0.000 C 
BRANCH  12  15
ATOM     13  H   UNK     1      72.413  60.480 101.183  0.00  0.00    +0.000 HD
ATOM     14  O   UNK     1      71.019  63.111 100.187  0.00  0.00    +0.000 OA
ATOM     15  C   UNK     1      71.341  62.207 100.914  0.00  0.00    +0.000 C 
ATOM     16  N   UNK     1      72.217  61.234 100.529  0.00  0.00    +0.000 N 
BRANCH  16  17
ATOM     17  C   UNK     1      72.902  61.199  99.229  0.00  0.00    +0.000 C 
BRANCH  17  21
ATOM     18  H   UNK     1      74.188  63.051 100.375  0.00  0.00    +0.000 HD
ATOM     19  N   UNK     1      74.869  62.375 100.026  0.00  0.00    +0.000 N 
ATOM     20  O   UNK     1      75.134  60.336  99.074  0.00  0.00    +0.000 OA
ATOM     21  C   UNK     1      74.411  61.234  99.431  0.00  0.00    +0.000 C 
BRANCH  19  22
ATOM     22  C   UNK     1      76.295  62.617 100.257  0.00  0.00    +0.000 C 
BRANCH  22  23
ATOM     23  C   UNK     1      76.525  63.349 101.590  0.00  0.00    +0.000 C 
BRANCH  23  28
ATOM     24  S   UNK     1      76.164  61.645 103.570  0.00  0.00    +0.000 S 
ATOM     25  C   UNK     1      77.299  61.047 104.278  0.00  0.00    +0.000 A 
ATOM     26  C   UNK     1      78.480  61.513 103.832  0.00  0.00    +0.000 A 
ATOM     27  N   UNK     1      78.268  62.349 102.906  0.00  0.00    +0.000 NA
ATOM     28  C   UNK     1      77.025  62.456 102.703  0.00  0.00    +0.000 A 
BRANCH  26  33
ATOM     29  S   UNK     1      80.837  62.049 104.424  0.00  0.00    +0.000 S 
ATOM     30  C   UNK     1      81.758  61.022 104.913  0.00  0.00    +0.000 A 
ATOM     31  C   UNK     1      81.147  59.828 104.989  0.00  0.00    +0.000 A 
ATOM     32  N   UNK     1      79.942  59.943 104.623  0.00  0.00    +0.000 NA
ATOM     33  C   UNK     1      79.692  61.138 104.288  0.00  0.00    +0.000 A 
BRANCH  31  37
ATOM     34  H   UNK     1      83.273  58.977 104.055  0.00  0.00    +0.000 HD
ATOM     35  N   UNK     1      82.914  58.357 104.779  0.00  0.00    +0.000 N 
ATOM     36  O   UNK     1      81.248  57.925 106.216  0.00  0.00    +0.000 OA
ATOM     37  C   UNK     1      81.730  58.666 105.390  0.00  0.00    +0.000 C 
BRANCH  35  38
ATOM     38  C   UNK     1      83.669  57.145 105.114  0.00  0.00    +0.000 C 
BRANCH  38  39
ATOM     39  C   UNK     1      84.615  57.378 106.305  0.00  0.00    +0.000 C 
BRANCH  39  40
ATOM     40  C   UNK     1      85.220  58.790 106.290  0.00  0.00    +0.000 C 
BRANCH  40  43
ATOM     41  C   UNK     1      86.928  60.660 107.447  0.00  0.00    +0.000 C 
ATOM     42  C   UNK     1      87.037  58.026 108.216  0.00  0.00    +0.000 C 
ATOM     43  S   UNK     1      85.807  59.322 107.924  0.00  0.00    +0.000 S 
ENDBRANCH  40  43
ENDBRANCH  39  40
ENDBRANCH  38  39
ENDBRANCH  35  38
ENDBRANCH  31  37
ENDBRANCH  26  33
ENDBRANCH  23  28
ENDBRANCH  22  23
ENDBRANCH  19  22
ENDBRANCH  17  21
BRANCH  17  44
ATOM     44  C   UNK     1      72.462  60.062  98.296  0.00  0.00    +0.000 C 
ATOM     45  C   UNK     1      71.478  60.528  97.225  0.00  0.00    +0.000 C 
BRANCH  44  47
ATOM     46  H   UNK     1      72.104  58.192  98.670  0.00  0.00    +0.000 HD
ATOM     47  O   UNK     1      71.869  59.040  99.066  0.00  0.00    +0.000 OA
ENDBRANCH  44  47
ENDBRANCH  17  44
ENDBRANCH  16  17
ENDBRANCH  12  15
ENDBRANCH   8  12
ENDBRANCH   7   8
ENDBRANCH   5   7
ENDBRANCH   1   4
BRANCH   1  51
ATOM     48  H   UNK     1      75.291  62.068 108.615  0.00  0.00    +0.000 HD
ATOM     49  O   UNK     1      75.269  59.892 109.244  0.00  0.00    +0.000 OA
ATOM     50  C   UNK     1      74.795  60.163 108.166  0.00  0.00    +0.000 C 
ATOM     51  N   UNK     1      74.776  61.517 107.925  0.00  0.00    +0.000 N 
BRANCH  50  61
ATOM     52  H   UNK     1      71.146  56.910 107.141  0.00  0.00    +0.000 HD
ATOM     53  H   UNK     1      71.752  56.177 105.630  0.00  0.00    +0.000 HD
ATOM     54  N   UNK     1      71.890  56.868 106.409  0.00  0.00    +0.000 N 
ATOM     55  N   UNK     1      75.096  58.949 106.289  0.00  0.00    +0.000 NA
ATOM     56  C   UNK     1      74.792  58.090 105.422  0.00  0.00    +0.000 A 
ATOM     57  N   UNK     1      73.740  57.401 105.456  0.00  0.00    +0.000 NA
ATOM     58  C   UNK     1      72.938  57.585 106.420  0.00  0.00    +0.000 A 
ATOM     59  C   UNK     1      72.211  58.707 108.521  0.00  0.00    +0.000 C 
ATOM     60  C   UNK     1      73.200  58.501 107.385  0.00  0.00    +0.000 A 
ATOM     61  C   UNK     1      74.358  59.207 107.280  0.00  0.00    +0.000 A 
BRANCH  56  62
ATOM     62  C   UNK     1      75.766  57.919 104.282  0.00  0.00    +0.000 C 
BRANCH  62  64
ATOM     63  H   UNK     1      74.932  56.524 103.014  0.00  0.00    +0.000 HD
ATOM     64  N   UNK     1      75.022  57.569 103.069  0.00  0.00    +0.000 NA
BRANCH  64  65
ATOM     65  C   UNK     1      75.630  58.074 101.837  0.00  0.00    +0.000 C 
BRANCH  65  66
ATOM     66  C   UNK     1      75.457  57.075 100.685  0.00  0.00    +0.000 C 
BRANCH  66  71
ATOM     67  H   UNK     1      75.909  58.504  98.621  0.00  0.00    +0.000 HD
ATOM     68  H   UNK     1      77.472  57.856  98.125  0.00  0.00    +0.000 HD
ATOM     69  O   UNK     1      77.620  56.254  99.967  0.00  0.00    +0.000 OA
ATOM     70  N   UNK     1      76.679  57.863  98.750  0.00  0.00    +0.000 N 
ATOM     71  C   UNK     1      76.687  56.995  99.796  0.00  0.00    +0.000 C 
ENDBRANCH  66  71
BRANCH  66  74
ATOM     72  H   UNK     1      73.421  57.282 100.366  0.00  0.00    +0.000 HD
ATOM     73  H   UNK     1      74.249  56.928  98.995  0.00  0.00    +0.000 HD
ATOM     74  N   UNK     1      74.303  57.484  99.866  0.00  0.00    +0.000 NA
ENDBRANCH  66  74
ENDBRANCH  65  66
ENDBRANCH  64  65
ENDBRANCH  62  64
BRANCH  62  75
ATOM     75  C   UNK     1      76.905  56.936 104.580  0.00  0.00    +0.000 C 
BRANCH  75  80
ATOM     76  H   UNK     1      75.143  55.173 105.434  0.00  0.00    +0.000 HD
ATOM     77  H   UNK     1      75.501  53.889 104.314  0.00  0.00    +0.000 HD
ATOM     78  O   UNK     1      77.281  55.059 103.125  0.00  0.00    +0.000 OA
ATOM     79  N   UNK     1      75.707  54.810 104.677  0.00  0.00    +0.000 N 
ATOM     80  C   UNK     1      76.670  55.533 104.044  0.00  0.00    +0.000 C 
ENDBRANCH  75  80
ENDBRANCH  62  75
ENDBRANCH  56  62
ENDBRANCH  50  61
ENDBRANCH   1  51
BRANCH   1  81
ATOM     81  C   UNK     1      74.585  63.785 106.933  0.00  0.00    +0.000 C 
BRANCH  81  87
ATOM     82  H   UNK     1      77.598  65.859 104.269  0.00  0.00    +0.000 HD
ATOM     83  N   UNK     1      77.006  63.902 106.597  0.00  0.00    +0.000 NA
ATOM     84  C   UNK     1      77.794  64.514 105.821  0.00  0.00    +0.000 A 
ATOM     85  N   UNK     1      77.170  65.256 105.006  0.00  0.00    +0.000 N 
ATOM     86  C   UNK     1      75.932  65.136 105.242  0.00  0.00    +0.000 A 
ATOM     87  C   UNK     1      75.845  64.268 106.260  0.00  0.00    +0.000 A 
ENDBRANCH  81  87
BRANCH  81  88
ATOM     88  O   UNK     1      74.659  64.125 108.304  0.00  0.00    +0.000 OA
BRANCH  88  94
ATOM     89  C   UNK     1      73.614  65.196 110.170  0.00  0.00    +0.000 C 
ATOM     90  C   UNK     1      72.685  66.365 110.489  0.00  0.00    +0.000 C 
ATOM     91  C   UNK     1      71.433  66.248 109.637  0.00  0.00    +0.000 C 
ATOM     92  C   UNK     1      71.781  66.159 108.160  0.00  0.00    +0.000 C 
ATOM     93  O   UNK     1      72.676  65.104 107.957  0.00  0.00    +0.000 OA
ATOM     94  C   UNK     1      73.881  65.246 108.674  0.00  0.00    +0.000 C 
BRANCH  90  96
ATOM     95  H   UNK     1      72.286  65.511 112.162  0.00  0.00    +0.000 HD
ATOM     96  O   UNK     1      72.253  66.415 111.831  0.00  0.00    +0.000 OA
ENDBRANCH  90  96
BRANCH  91  98
ATOM     97  H   UNK     1      70.263  67.727 109.093  0.00  0.00    +0.000 HD
ATOM     98  O   UNK     1      70.647  67.386 109.901  0.00  0.00    +0.000 OA
ENDBRANCH  91  98
BRANCH  89  99
ATOM     99  O   UNK     1      74.857  65.302 110.811  0.00  0.00    +0.000 OA
BRANCH  99 105
ATOM    100  C   UNK     1      75.920  63.332 111.686  0.00  0.00    +0.000 C 
ATOM    101  C   UNK     1      76.098  62.583 113.005  0.00  0.00    +0.000 C 
ATOM    102  C   UNK     1      74.716  62.178 113.524  0.00  0.00    +0.000 C 
ATOM    103  C   UNK     1      73.653  63.279 113.452  0.00  0.00    +0.000 C 
ATOM    104  O   UNK     1      73.701  63.965 112.229  0.00  0.00    +0.000 OA
ATOM    105  C   UNK     1      74.976  64.482 111.947  0.00  0.00    +0.000 C 
BRANCH 100 107
ATOM    106  H   UNK     1      75.990  62.381 109.958  0.00  0.00    +0.000 HD
ATOM    107  O   UNK     1      75.375  62.496 110.688  0.00  0.00    +0.000 OA
ENDBRANCH 100 107
BRANCH 102 109
ATOM    108  H   UNK     1      73.970  60.344 113.337  0.00  0.00    +0.000 HD
ATOM    109  O   UNK     1      74.288  61.056 112.779  0.00  0.00    +0.000 OA
ENDBRANCH 102 109
BRANCH 101 110
ATOM    110  O   UNK     1      76.697  63.421 113.955  0.00  0.00    +0.000 OA
BRANCH 110 115
ATOM    111  H   UNK     1      78.000  61.298 113.749  0.00  0.00    +0.000 HD
ATOM    112  H   UNK     1      78.594  61.250 115.414  0.00  0.00    +0.000 HD
ATOM    113  O   UNK     1      77.372  63.223 116.104  0.00  0.00    +0.000 OA
ATOM    114  N   UNK     1      78.095  61.709 114.667  0.00  0.00    +0.000 N 
ATOM    115  C   UNK     1      77.410  62.844 114.960  0.00  0.00    +0.000 C 
ENDBRANCH 110 115
ENDBRANCH 101 110
BRANCH 103 116
ATOM    116  C   UNK     1      73.661  64.228 114.646  0.00  0.00    +0.000 C 
BRANCH 116 118
ATOM    117  H   UNK     1      72.607  65.475 113.559  0.00  0.00    +0.000 HD
ATOM    118  O   UNK     1      72.658  65.207 114.478  0.00  0.00    +0.000 OA
ENDBRANCH 116 118
ENDBRANCH 103 116
ENDBRANCH  99 105
ENDBRANCH  89  99
BRANCH  92 119
ATOM    119  C   UNK     1      70.565  65.875 107.288  0.00  0.00    +0.000 C 
BRANCH 119 121
ATOM    120  H   UNK     1      69.732  64.104 107.237  0.00  0.00    +0.000 HD
ATOM    121  O   UNK     1      70.541  64.512 106.923  0.00  0.00    +0.000 OA
ENDBRANCH 119 121
ENDBRANCH  92 119
ENDBRANCH  88  94
ENDBRANCH  81  88
ENDBRANCH   1  81
TORSDOF 45
ENDMDL
MODEL 19
REMARK VINA RESULT:      -6.6      4.905     11.304
REMARK  Name = ./1214.pdb
REMARK  51 active torsions:
REMARK  status: ('A' for Active; 'I' for Inactive)
REMARK    1  A    between atoms: C_85  and  S_87
REMARK    2  A    between atoms: C_86  and  S_87
REMARK    3  A    between atoms: S_87  and  C_88
REMARK    4  A    between atoms: C_88  and  C_89
REMARK    5  A    between atoms: C_89  and  C_90
REMARK    6  A    between atoms: C_90  and  N_91
REMARK    7  A    between atoms: C_93  and  C_96
REMARK    8  A    between atoms: C_98  and  C_101
REMARK    9  A    between atoms: C_103  and  C_104
REMARK   10  A    between atoms: C_104  and  C_105
REMARK   11  A    between atoms: C_105  and  N_106
REMARK   12  A    between atoms: C_108  and  C_177
REMARK   13  A    between atoms: C_113  and  C_140
REMARK   14  A    between atoms: O_114  and  C_115
REMARK   15  A    between atoms: C_118  and  O_119
REMARK   16  A    between atoms: O_119  and  C_120
REMARK   17  A    between atoms: O_121  and  C_122
REMARK   18  A    between atoms: O_123  and  C_124
REMARK   19  A    between atoms: C_124  and  C_125
REMARK   20  A    between atoms: C_127  and  O_128
REMARK   21  A    between atoms: O_128  and  C_129
REMARK   22  A    between atoms: O_130  and  C_131
REMARK   23  A    between atoms: O_132  and  C_133
REMARK   24  A    between atoms: O_134  and  C_135
REMARK   25  A    between atoms: C_135  and  C_136
REMARK   26  A    between atoms: C_138  and  O_139
REMARK   27  A    between atoms: O_139  and  C_140
REMARK   28  A    between atoms: C_140  and  C_164
REMARK   29  A    between atoms: C_144  and  C_146
REMARK   30  A    between atoms: N_145  and  C_146
REMARK   31  A    between atoms: C_146  and  C_147
REMARK   32  A    between atoms: C_147  and  N_148
REMARK   33  A    between atoms: N_148  and  C_153
REMARK   34  A    between atoms: C_151  and  C_152
REMARK   35  A    between atoms: C_152  and  C_153
REMARK   36  A    between atoms: C_153  and  C_155
REMARK   37  A    between atoms: C_158  and  C_159
REMARK   38  A    between atoms: C_160  and  C_162
REMARK   39  A    between atoms: N_163  and  C_164
REMARK   40  A    between atoms: C_164  and  C_166
REMARK   41  A    between atoms: N_167  and  C_169
REMARK   42  A    between atoms: C_168  and  C_169
REMARK   43  A    between atoms: C_169  and  C_171
REMARK   44  A    between atoms: O_170  and  C_171
REMARK   45  A    between atoms: C_171  and  C_173
REMARK   46  A    between atoms: C_172  and  C_173
REMARK   47  A    between atoms: C_173  and  C_175
REMARK   48  A    between atoms: N_176  and  C_177
REMARK   49  A    between atoms: C_177  and  C_179
REMARK   50  A    between atoms: O_178  and  C_179
REMARK   51  A    between atoms: C_179  and  C_180
REMARK                            x       y       z     vdW  Elec       q    Type
REMARK                         _______ _______ _______ _____ _____    ______ ____
ROOT
ATOM      1  C   UNK     1      76.162  62.836 104.220  0.00  0.00    +0.000 C 
ENDROOT
BRANCH   1   4
ATOM      2  H   UNK     1      77.472  65.778 105.366  0.00  0.00    +0.000 HD
ATOM      3  O   UNK     1      76.401  65.024 103.329  0.00  0.00    +0.000 OA
ATOM      4  C   UNK     1      76.614  64.304 104.272  0.00  0.00    +0.000 C 
ATOM      5  N   UNK     1      77.240  64.781 105.393  0.00  0.00    +0.000 N 
BRANCH   5   7
ATOM      6  C   UNK     1      79.205  63.539 106.184  0.00  0.00    +0.000 C 
ATOM      7  C   UNK     1      77.776  63.998 106.518  0.00  0.00    +0.000 C 
BRANCH   7   8
ATOM      8  C   UNK     1      77.758  64.855 107.796  0.00  0.00    +0.000 C 
BRANCH   8  10
ATOM      9  H   UNK     1      79.718  64.825 107.649  0.00  0.00    +0.000 HD
ATOM     10  O   UNK     1      79.035  65.427 107.954  0.00  0.00    +0.000 OA
ENDBRANCH   8  10
BRANCH   8  12
ATOM     11  C   UNK     1      76.004  66.029 109.191  0.00  0.00    +0.000 C 
ATOM     12  C   UNK     1      76.716  65.984 107.825  0.00  0.00    +0.000 C 
BRANCH  12  15
ATOM     13  H   UNK     1      76.451  68.103 109.165  0.00  0.00    +0.000 HD
ATOM     14  O   UNK     1      78.064  67.507 106.539  0.00  0.00    +0.000 OA
ATOM     15  C   UNK     1      77.357  67.329 107.496  0.00  0.00    +0.000 C 
ATOM     16  N   UNK     1      77.022  68.336 108.355  0.00  0.00    +0.000 N 
BRANCH  16  17
ATOM     17  C   UNK     1      77.430  69.738 108.192  0.00  0.00    +0.000 C 
BRANCH  17  21
ATOM     18  H   UNK     1      74.931  69.547 108.530  0.00  0.00    +0.000 HD
ATOM     19  N   UNK     1      75.087  70.178 107.743  0.00  0.00    +0.000 N 
ATOM     20  O   UNK     1      76.651  71.311 106.559  0.00  0.00    +0.000 OA
ATOM     21  C   UNK     1      76.371  70.504 107.411  0.00  0.00    +0.000 C 
BRANCH  19  22
ATOM     22  C   UNK     1      73.931  70.768 107.064  0.00  0.00    +0.000 C 
BRANCH  22  23
ATOM     23  C   UNK     1      73.075  69.685 106.385  0.00  0.00    +0.000 C 
BRANCH  23  28
ATOM     24  S   UNK     1      70.691  69.064 107.325  0.00  0.00    +0.000 S 
ATOM     25  C   UNK     1      70.525  68.065 108.383  0.00  0.00    +0.000 A 
ATOM     26  C   UNK     1      71.704  67.583 108.817  0.00  0.00    +0.000 A 
ATOM     27  N   UNK     1      72.638  68.139 108.170  0.00  0.00    +0.000 NA
ATOM     28  C   UNK     1      72.153  68.948 107.329  0.00  0.00    +0.000 A 
BRANCH  26  33
ATOM     29  S   UNK     1      70.984  65.481 109.939  0.00  0.00    +0.000 S 
ATOM     30  C   UNK     1      71.686  64.958 111.111  0.00  0.00    +0.000 A 
ATOM     31  C   UNK     1      72.719  65.749 111.444  0.00  0.00    +0.000 A 
ATOM     32  N   UNK     1      72.789  66.718 110.635  0.00  0.00    +0.000 NA
ATOM     33  C   UNK     1      71.862  66.648 109.776  0.00  0.00    +0.000 A 
BRANCH  31  37
ATOM     34  H   UNK     1      74.492  64.024 111.464  0.00  0.00    +0.000 HD
ATOM     35  N   UNK     1      74.493  64.565 112.327  0.00  0.00    +0.000 N 
ATOM     36  O   UNK     1      73.499  66.176 113.528  0.00  0.00    +0.000 OA
ATOM     37  C   UNK     1      73.561  65.551 112.495  0.00  0.00    +0.000 C 
BRANCH  35  38
ATOM     38  C   UNK     1      75.478  64.242 113.365  0.00  0.00    +0.000 C 
BRANCH  38  39
ATOM     39  C   UNK     1      75.991  62.798 113.228  0.00  0.00    +0.000 C 
BRANCH  39  40
ATOM     40  C   UNK     1      77.489  62.751 112.886  0.00  0.00    +0.000 C 
BRANCH  40  43
ATOM     41  C   UNK     1      78.868  62.840 110.469  0.00  0.00    +0.000 C 
ATOM     42  C   UNK     1      76.287  61.907 110.554  0.00  0.00    +0.000 C 
ATOM     43  S   UNK     1      77.850  61.707 111.445  0.00  0.00    +0.000 S 
ENDBRANCH  40  43
ENDBRANCH  39  40
ENDBRANCH  38  39
ENDBRANCH  35  38
ENDBRANCH  31  37
ENDBRANCH  26  33
ENDBRANCH  23  28
ENDBRANCH  22  23
ENDBRANCH  19  22
ENDBRANCH  17  21
BRANCH  17  44
ATOM     44  C   UNK     1      77.829  70.451 109.492  0.00  0.00    +0.000 C 
ATOM     45  C   UNK     1      79.247  71.013 109.442  0.00  0.00    +0.000 C 
BRANCH  44  47
ATOM     46  H   UNK     1      77.805  70.040 111.389  0.00  0.00    +0.000 HD
ATOM     47  O   UNK     1      77.721  69.543 110.566  0.00  0.00    +0.000 OA
ENDBRANCH  44  47
ENDBRANCH  17  44
ENDBRANCH  16  17
ENDBRANCH  12  15
ENDBRANCH   8  12
ENDBRANCH   7   8
ENDBRANCH   5   7
ENDBRANCH   1   4
BRANCH   1  51
ATOM     48  H   UNK     1      75.993  63.025 102.113  0.00  0.00    +0.000 HD
ATOM     49  O   UNK     1      77.049  61.284 101.118  0.00  0.00    +0.000 OA
ATOM     50  C   UNK     1      76.980  61.276 102.325  0.00  0.00    +0.000 C 
ATOM     51  N   UNK     1      76.403  62.419 102.827  0.00  0.00    +0.000 N 
BRANCH  50  61
ATOM     52  H   UNK     1      80.836  59.364 104.860  0.00  0.00    +0.000 HD
ATOM     53  H   UNK     1      80.134  57.833 105.452  0.00  0.00    +0.000 HD
ATOM     54  N   UNK     1      80.011  58.725 104.911  0.00  0.00    +0.000 N 
ATOM     55  N   UNK     1      76.588  59.279 103.298  0.00  0.00    +0.000 NA
ATOM     56  C   UNK     1      76.879  58.264 103.981  0.00  0.00    +0.000 A 
ATOM     57  N   UNK     1      78.004  58.074 104.513  0.00  0.00    +0.000 NA
ATOM     58  C   UNK     1      78.895  58.961 104.353  0.00  0.00    +0.000 A 
ATOM     59  C   UNK     1      79.734  61.135 103.473  0.00  0.00    +0.000 C 
ATOM     60  C   UNK     1      78.647  60.084 103.636  0.00  0.00    +0.000 A 
ATOM     61  C   UNK     1      77.408  60.217 103.090  0.00  0.00    +0.000 A 
BRANCH  56  62
ATOM     62  C   UNK     1      75.780  57.245 104.162  0.00  0.00    +0.000 C 
BRANCH  62  64
ATOM     63  H   UNK     1      75.192  56.088 105.763  0.00  0.00    +0.000 HD
ATOM     64  N   UNK     1      75.527  57.069 105.594  0.00  0.00    +0.000 NA
BRANCH  64  65
ATOM     65  C   UNK     1      74.557  58.018 106.143  0.00  0.00    +0.000 C 
BRANCH  65  66
ATOM     66  C   UNK     1      73.213  57.924 105.408  0.00  0.00    +0.000 C 
BRANCH  66  71
ATOM     67  H   UNK     1      73.568  60.045 106.780  0.00  0.00    +0.000 HD
ATOM     68  H   UNK     1      71.903  60.412 107.229  0.00  0.00    +0.000 HD
ATOM     69  O   UNK     1      70.946  58.505 106.033  0.00  0.00    +0.000 OA
ATOM     70  N   UNK     1      72.582  59.828 106.762  0.00  0.00    +0.000 N 
ATOM     71  C   UNK     1      72.125  58.745 106.080  0.00  0.00    +0.000 C 
ENDBRANCH  66  71
BRANCH  66  74
ATOM     72  H   UNK     1      72.576  56.235 104.393  0.00  0.00    +0.000 HD
ATOM     73  H   UNK     1      71.904  56.377 105.883  0.00  0.00    +0.000 HD
ATOM     74  N   UNK     1      72.789  56.514 105.366  0.00  0.00    +0.000 NA
ENDBRANCH  66  74
ENDBRANCH  65  66
ENDBRANCH  64  65
ENDBRANCH  62  64
BRANCH  62  75
ATOM     75  C   UNK     1      76.041  55.916 103.441  0.00  0.00    +0.000 C 
BRANCH  75  80
ATOM     76  H   UNK     1      73.790  54.567 103.680  0.00  0.00    +0.000 HD
ATOM     77  H   UNK     1      74.341  53.343 104.788  0.00  0.00    +0.000 HD
ATOM     78  O   UNK     1      76.630  54.164 104.980  0.00  0.00    +0.000 OA
ATOM     79  N   UNK     1      74.525  54.187 104.261  0.00  0.00    +0.000 N 
ATOM     80  C   UNK     1      75.791  54.686 104.297  0.00  0.00    +0.000 C 
ENDBRANCH  75  80
ENDBRANCH  62  75
ENDBRANCH  56  62
ENDBRANCH  50  61
ENDBRANCH   1  51
BRANCH   1  81
ATOM     81  C   UNK     1      74.648  62.754 104.551  0.00  0.00    +0.000 C 
BRANCH  81  87
ATOM     82  H   UNK     1      73.033  64.795 108.253  0.00  0.00    +0.000 HD
ATOM     83  N   UNK     1      74.485  62.380 106.964  0.00  0.00    +0.000 NA
ATOM     84  C   UNK     1      74.012  63.003 107.957  0.00  0.00    +0.000 A 
ATOM     85  N   UNK     1      73.488  64.104 107.616  0.00  0.00    +0.000 N 
ATOM     86  C   UNK     1      73.616  64.222 106.362  0.00  0.00    +0.000 A 
ATOM     87  C   UNK     1      74.255  63.114 105.962  0.00  0.00    +0.000 A 
ENDBRANCH  81  87
BRANCH  81  88
ATOM     88  O   UNK     1      74.158  61.456 104.275  0.00  0.00    +0.000 OA
BRANCH  88  94
ATOM     89  C   UNK     1      72.821  62.377 102.517  0.00  0.00    +0.000 C 
ATOM     90  C   UNK     1      71.381  62.382 102.012  0.00  0.00    +0.000 C 
ATOM     91  C   UNK     1      70.458  62.776 103.152  0.00  0.00    +0.000 C 
ATOM     92  C   UNK     1      70.656  61.870 104.357  0.00  0.00    +0.000 C 
ATOM     93  O   UNK     1      72.005  61.874 104.723  0.00  0.00    +0.000 OA
ATOM     94  C   UNK     1      72.865  61.425 103.702  0.00  0.00    +0.000 C 
BRANCH  90  96
ATOM     95  H   UNK     1      70.469  63.909 101.288  0.00  0.00    +0.000 HD
ATOM     96  O   UNK     1      71.136  63.295 100.965  0.00  0.00    +0.000 OA
ENDBRANCH  90  96
BRANCH  91  98
ATOM     97  H   UNK     1      68.579  63.338 103.087  0.00  0.00    +0.000 HD
ATOM     98  O   UNK     1      69.140  62.686 102.666  0.00  0.00    +0.000 OA
ENDBRANCH  91  98
BRANCH  89  99
ATOM     99  O   UNK     1      73.728  61.888 101.566  0.00  0.00    +0.000 OA
BRANCH  99 105
ATOM    100  C   UNK     1      73.506  59.616 100.814  0.00  0.00    +0.000 C 
ATOM    101  C   UNK     1      72.709  58.785  99.811  0.00  0.00    +0.000 C 
ATOM    102  C   UNK     1      72.990  59.319  98.404  0.00  0.00    +0.000 C 
ATOM    103  C   UNK     1      72.953  60.844  98.274  0.00  0.00    +0.000 C 
ATOM    104  O   UNK     1      73.617  61.470  99.341  0.00  0.00    +0.000 OA
ATOM    105  C   UNK     1      73.132  61.063 100.594  0.00  0.00    +0.000 C 
BRANCH 100 107
ATOM    106  H   UNK     1      75.258  58.812 101.238  0.00  0.00    +0.000 HD
ATOM    107  O   UNK     1      74.896  59.458 100.623  0.00  0.00    +0.000 OA
ENDBRANCH 100 107
BRANCH 102 109
ATOM    108  H   UNK     1      74.256  58.482  97.119  0.00  0.00    +0.000 HD
ATOM    109  O   UNK     1      74.260  58.840  98.008  0.00  0.00    +0.000 OA
ENDBRANCH 102 109
BRANCH 101 110
ATOM    110  O   UNK     1      71.337  58.915 100.064  0.00  0.00    +0.000 OA
BRANCH 110 115
ATOM    111  H   UNK     1      71.627  56.440 100.251  0.00  0.00    +0.000 HD
ATOM    112  H   UNK     1      70.185  55.986  99.334  0.00  0.00    +0.000 HD
ATOM    113  O   UNK     1      69.590  58.267  98.781  0.00  0.00    +0.000 OA
ATOM    114  N   UNK     1      70.779  56.682  99.759  0.00  0.00    +0.000 N 
ATOM    115  C   UNK     1      70.495  57.989  99.529  0.00  0.00    +0.000 C 
ENDBRANCH 110 115
ENDBRANCH 101 110
BRANCH 103 116
ATOM    116  C   UNK     1      71.555  61.414  98.051  0.00  0.00    +0.000 C 
BRANCH 116 118
ATOM    117  H   UNK     1      70.034  60.195  97.833  0.00  0.00    +0.000 HD
ATOM    118  O   UNK     1      70.782  60.494  97.311  0.00  0.00    +0.000 OA
ENDBRANCH 116 118
ENDBRANCH 103 116
ENDBRANCH  99 105
ENDBRANCH  89  99
BRANCH  92 119
ATOM    119  C   UNK     1      69.869  62.334 105.575  0.00  0.00    +0.000 C 
BRANCH 119 121
ATOM    120  H   UNK     1      70.088  64.028 106.532  0.00  0.00    +0.000 HD
ATOM    121  O   UNK     1      69.872  63.744 105.642  0.00  0.00    +0.000 OA
ENDBRANCH 119 121
ENDBRANCH  92 119
ENDBRANCH  88  94
ENDBRANCH  81  88
ENDBRANCH   1  81
TORSDOF 45
ENDMDL
MODEL 20
REMARK VINA RESULT:      -6.6      6.235     11.420
REMARK  Name = ./1214.pdb
REMARK  51 active torsions:
REMARK  status: ('A' for Active; 'I' for Inactive)
REMARK    1  A    between atoms: C_85  and  S_87
REMARK    2  A    between atoms: C_86  and  S_87
REMARK    3  A    between atoms: S_87  and  C_88
REMARK    4  A    between atoms: C_88  and  C_89
REMARK    5  A    between atoms: C_89  and  C_90
REMARK    6  A    between atoms: C_90  and  N_91
REMARK    7  A    between atoms: C_93  and  C_96
REMARK    8  A    between atoms: C_98  and  C_101
REMARK    9  A    between atoms: C_103  and  C_104
REMARK   10  A    between atoms: C_104  and  C_105
REMARK   11  A    between atoms: C_105  and  N_106
REMARK   12  A    between atoms: C_108  and  C_177
REMARK   13  A    between atoms: C_113  and  C_140
REMARK   14  A    between atoms: O_114  and  C_115
REMARK   15  A    between atoms: C_118  and  O_119
REMARK   16  A    between atoms: O_119  and  C_120
REMARK   17  A    between atoms: O_121  and  C_122
REMARK   18  A    between atoms: O_123  and  C_124
REMARK   19  A    between atoms: C_124  and  C_125
REMARK   20  A    between atoms: C_127  and  O_128
REMARK   21  A    between atoms: O_128  and  C_129
REMARK   22  A    between atoms: O_130  and  C_131
REMARK   23  A    between atoms: O_132  and  C_133
REMARK   24  A    between atoms: O_134  and  C_135
REMARK   25  A    between atoms: C_135  and  C_136
REMARK   26  A    between atoms: C_138  and  O_139
REMARK   27  A    between atoms: O_139  and  C_140
REMARK   28  A    between atoms: C_140  and  C_164
REMARK   29  A    between atoms: C_144  and  C_146
REMARK   30  A    between atoms: N_145  and  C_146
REMARK   31  A    between atoms: C_146  and  C_147
REMARK   32  A    between atoms: C_147  and  N_148
REMARK   33  A    between atoms: N_148  and  C_153
REMARK   34  A    between atoms: C_151  and  C_152
REMARK   35  A    between atoms: C_152  and  C_153
REMARK   36  A    between atoms: C_153  and  C_155
REMARK   37  A    between atoms: C_158  and  C_159
REMARK   38  A    between atoms: C_160  and  C_162
REMARK   39  A    between atoms: N_163  and  C_164
REMARK   40  A    between atoms: C_164  and  C_166
REMARK   41  A    between atoms: N_167  and  C_169
REMARK   42  A    between atoms: C_168  and  C_169
REMARK   43  A    between atoms: C_169  and  C_171
REMARK   44  A    between atoms: O_170  and  C_171
REMARK   45  A    between atoms: C_171  and  C_173
REMARK   46  A    between atoms: C_172  and  C_173
REMARK   47  A    between atoms: C_173  and  C_175
REMARK   48  A    between atoms: N_176  and  C_177
REMARK   49  A    between atoms: C_177  and  C_179
REMARK   50  A    between atoms: O_178  and  C_179
REMARK   51  A    between atoms: C_179  and  C_180
REMARK                            x       y       z     vdW  Elec       q    Type
REMARK                         _______ _______ _______ _____ _____    ______ ____
ROOT
ATOM      1  C   UNK     1      74.780  65.786 108.179  0.00  0.00    +0.000 C 
ENDROOT
BRANCH   1   4
ATOM      2  H   UNK     1      75.027  64.041 105.250  0.00  0.00    +0.000 HD
ATOM      3  O   UNK     1      76.441  64.413 107.180  0.00  0.00    +0.000 OA
ATOM      4  C   UNK     1      75.347  64.904 107.055  0.00  0.00    +0.000 C 
ATOM      5  N   UNK     1      74.597  64.671 105.932  0.00  0.00    +0.000 N 
BRANCH   5   7
ATOM      6  C   UNK     1      73.635  66.164 104.235  0.00  0.00    +0.000 C 
ATOM      7  C   UNK     1      73.365  65.365 105.522  0.00  0.00    +0.000 C 
BRANCH   7   8
ATOM      8  C   UNK     1      72.243  64.335 105.304  0.00  0.00    +0.000 C 
BRANCH   8  10
ATOM      9  H   UNK     1      72.227  62.477 104.664  0.00  0.00    +0.000 HD
ATOM     10  O   UNK     1      72.777  63.258 104.570  0.00  0.00    +0.000 OA
ENDBRANCH   8  10
BRANCH   8  12
ATOM     11  C   UNK     1      70.237  64.452 106.841  0.00  0.00    +0.000 C 
ATOM     12  C   UNK     1      71.597  63.776 106.582  0.00  0.00    +0.000 C 
BRANCH  12  15
ATOM     13  H   UNK     1      73.240  62.091 107.486  0.00  0.00    +0.000 HD
ATOM     14  O   UNK     1      70.510  61.715 105.983  0.00  0.00    +0.000 OA
ATOM     15  C   UNK     1      71.449  62.260 106.502  0.00  0.00    +0.000 C 
ATOM     16  N   UNK     1      72.499  61.565 107.028  0.00  0.00    +0.000 N 
BRANCH  16  17
ATOM     17  C   UNK     1      72.636  60.103 106.979  0.00  0.00    +0.000 C 
BRANCH  17  21
ATOM     18  H   UNK     1      74.725  60.924 105.815  0.00  0.00    +0.000 HD
ATOM     19  N   UNK     1      74.237  60.303 105.167  0.00  0.00    +0.000 N 
ATOM     20  O   UNK     1      72.518  58.845 104.941  0.00  0.00    +0.000 OA
ATOM     21  C   UNK     1      73.108  59.667 105.598  0.00  0.00    +0.000 C 
BRANCH  19  22
ATOM     22  C   UNK     1      74.815  60.058 103.844  0.00  0.00    +0.000 C 
BRANCH  22  23
ATOM     23  C   UNK     1      74.623  61.275 102.922  0.00  0.00    +0.000 C 
BRANCH  23  28
ATOM     24  S   UNK     1      75.675  63.640 102.421  0.00  0.00    +0.000 S 
ATOM     25  C   UNK     1      76.963  64.039 102.993  0.00  0.00    +0.000 A 
ATOM     26  C   UNK     1      77.522  63.056 103.722  0.00  0.00    +0.000 A 
ATOM     27  N   UNK     1      76.757  62.048 103.708  0.00  0.00    +0.000 NA
ATOM     28  C   UNK     1      75.723  62.305 103.028  0.00  0.00    +0.000 A 
BRANCH  26  33
ATOM     29  S   UNK     1      79.408  64.398 104.636  0.00  0.00    +0.000 S 
ATOM     30  C   UNK     1      80.544  63.766 105.308  0.00  0.00    +0.000 A 
ATOM     31  C   UNK     1      80.395  62.432 105.350  0.00  0.00    +0.000 A 
ATOM     32  N   UNK     1      79.303  62.109 104.800  0.00  0.00    +0.000 NA
ATOM     33  C   UNK     1      78.700  63.138 104.374  0.00  0.00    +0.000 A 
BRANCH  31  37
ATOM     34  H   UNK     1      81.923  63.008 107.208  0.00  0.00    +0.000 HD
ATOM     35  N   UNK     1      82.037  62.036 106.924  0.00  0.00    +0.000 N 
ATOM     36  O   UNK     1      81.430  60.421 105.492  0.00  0.00    +0.000 OA
ATOM     37  C   UNK     1      81.283  61.553 105.890  0.00  0.00    +0.000 C 
BRANCH  35  38
ATOM     38  C   UNK     1      83.028  61.206 107.617  0.00  0.00    +0.000 C 
BRANCH  38  39
ATOM     39  C   UNK     1      84.460  61.528 107.155  0.00  0.00    +0.000 C 
BRANCH  39  40
ATOM     40  C   UNK     1      85.358  60.282 107.163  0.00  0.00    +0.000 C 
BRANCH  40  43
ATOM     41  C   UNK     1      85.710  57.521 107.266  0.00  0.00    +0.000 C 
ATOM     42  C   UNK     1      84.522  58.683 105.080  0.00  0.00    +0.000 C 
ATOM     43  S   UNK     1      84.432  58.744 106.886  0.00  0.00    +0.000 S 
ENDBRANCH  40  43
ENDBRANCH  39  40
ENDBRANCH  38  39
ENDBRANCH  35  38
ENDBRANCH  31  37
ENDBRANCH  26  33
ENDBRANCH  23  28
ENDBRANCH  22  23
ENDBRANCH  19  22
ENDBRANCH  17  21
BRANCH  17  44
ATOM     44  C   UNK     1      73.482  59.494 108.106  0.00  0.00    +0.000 C 
ATOM     45  C   UNK     1      74.348  60.531 108.818  0.00  0.00    +0.000 C 
BRANCH  44  47
ATOM     46  H   UNK     1      74.074  58.372 106.637  0.00  0.00    +0.000 HD
ATOM     47  O   UNK     1      74.308  58.485 107.567  0.00  0.00    +0.000 OA
ENDBRANCH  44  47
ENDBRANCH  17  44
ENDBRANCH  16  17
ENDBRANCH  12  15
ENDBRANCH   8  12
ENDBRANCH   7   8
ENDBRANCH   5   7
ENDBRANCH   1   4
BRANCH   1  51
ATOM     48  H   UNK     1      76.454  66.106 109.443  0.00  0.00    +0.000 HD
ATOM     49  O   UNK     1      77.393  68.107 108.950  0.00  0.00    +0.000 OA
ATOM     50  C   UNK     1      76.372  67.816 108.373  0.00  0.00    +0.000 C 
ATOM     51  N   UNK     1      75.940  66.547 108.678  0.00  0.00    +0.000 N 
BRANCH  50  61
ATOM     52  H   UNK     1      75.812  69.270 103.627  0.00  0.00    +0.000 HD
ATOM     53  H   UNK     1      74.609  70.577 103.807  0.00  0.00    +0.000 HD
ATOM     54  N   UNK     1      75.199  69.835 104.258  0.00  0.00    +0.000 N 
ATOM     55  N   UNK     1      74.906  69.501 108.056  0.00  0.00    +0.000 NA
ATOM     56  C   UNK     1      74.257  70.339 107.380  0.00  0.00    +0.000 A 
ATOM     57  N   UNK     1      74.349  70.455 106.130  0.00  0.00    +0.000 NA
ATOM     58  C   UNK     1      75.143  69.680 105.517  0.00  0.00    +0.000 A 
ATOM     59  C   UNK     1      76.801  67.824 105.417  0.00  0.00    +0.000 C 
ATOM     60  C   UNK     1      75.868  68.747 106.183  0.00  0.00    +0.000 A 
ATOM     61  C   UNK     1      75.714  68.683 107.534  0.00  0.00    +0.000 A 
BRANCH  56  62
ATOM     62  C   UNK     1      73.309  71.226 108.149  0.00  0.00    +0.000 C 
BRANCH  62  64
ATOM     63  H   UNK     1      71.341  71.802 107.935  0.00  0.00    +0.000 HD
ATOM     64  N   UNK     1      71.942  70.978 107.684  0.00  0.00    +0.000 NA
BRANCH  64  65
ATOM     65  C   UNK     1      71.347  69.755 108.227  0.00  0.00    +0.000 C 
BRANCH  65  66
ATOM     66  C   UNK     1      71.025  68.753 107.110  0.00  0.00    +0.000 C 
BRANCH  66  71
ATOM     67  H   UNK     1      72.465  69.038 105.024  0.00  0.00    +0.000 HD
ATOM     68  H   UNK     1      71.340  69.908 103.980  0.00  0.00    +0.000 HD
ATOM     69  O   UNK     1      69.519  69.919 105.613  0.00  0.00    +0.000 OA
ATOM     70  N   UNK     1      71.564  69.465 104.860  0.00  0.00    +0.000 N 
ATOM     71  C   UNK     1      70.602  69.438 105.821  0.00  0.00    +0.000 C 
ENDBRANCH  66  71
BRANCH  66  74
ATOM     72  H   UNK     1      69.588  68.176 108.485  0.00  0.00    +0.000 HD
ATOM     73  H   UNK     1      70.276  66.905 107.708  0.00  0.00    +0.000 HD
ATOM     74  N   UNK     1      69.935  67.871 107.559  0.00  0.00    +0.000 NA
ENDBRANCH  66  74
ENDBRANCH  65  66
ENDBRANCH  64  65
ENDBRANCH  62  64
BRANCH  62  75
ATOM     75  C   UNK     1      73.684  72.713 108.113  0.00  0.00    +0.000 C 
BRANCH  75  80
ATOM     76  H   UNK     1      74.816  74.411 109.779  0.00  0.00    +0.000 HD
ATOM     77  H   UNK     1      73.385  74.941 110.617  0.00  0.00    +0.000 HD
ATOM     78  O   UNK     1      71.816  73.541 109.381  0.00  0.00    +0.000 OA
ATOM     79  N   UNK     1      73.818  74.340 109.928  0.00  0.00    +0.000 N 
ATOM     80  C   UNK     1      73.000  73.552 109.180  0.00  0.00    +0.000 C 
ENDBRANCH  75  80
ENDBRANCH  62  75
ENDBRANCH  56  62
ENDBRANCH  50  61
ENDBRANCH   1  51
BRANCH   1  81
ATOM     81  C   UNK     1      74.207  64.881 109.302  0.00  0.00    +0.000 C 
BRANCH  81  87
ATOM     82  H   UNK     1      70.332  66.958 110.374  0.00  0.00    +0.000 HD
ATOM     83  N   UNK     1      72.013  64.357 110.251  0.00  0.00    +0.000 NA
ATOM     84  C   UNK     1      70.959  64.998 110.526  0.00  0.00    +0.000 A 
ATOM     85  N   UNK     1      71.066  66.226 110.239  0.00  0.00    +0.000 N 
ATOM     86  C   UNK     1      72.222  66.413 109.760  0.00  0.00    +0.000 A 
ATOM     87  C   UNK     1      72.815  65.210 109.776  0.00  0.00    +0.000 A 
ENDBRANCH  81  87
BRANCH  81  88
ATOM     88  O   UNK     1      75.069  64.892 110.424  0.00  0.00    +0.000 OA
BRANCH  88  94
ATOM     89  C   UNK     1      75.854  63.428 112.145  0.00  0.00    +0.000 C 
ATOM     90  C   UNK     1      76.697  62.168 112.326  0.00  0.00    +0.000 C 
ATOM     91  C   UNK     1      78.041  62.370 111.648  0.00  0.00    +0.000 C 
ATOM     92  C   UNK     1      77.866  62.757 110.188  0.00  0.00    +0.000 C 
ATOM     93  O   UNK     1      77.039  63.881 110.102  0.00  0.00    +0.000 OA
ATOM     94  C   UNK     1      75.757  63.677 110.649  0.00  0.00    +0.000 C 
BRANCH  90  96
ATOM     95  H   UNK     1      76.303  61.202 113.938  0.00  0.00    +0.000 HD
ATOM     96  O   UNK     1      76.971  61.841 113.671  0.00  0.00    +0.000 OA
ENDBRANCH  90  96
BRANCH  91  98
ATOM     97  H   UNK     1      78.317  60.465 111.269  0.00  0.00    +0.000 HD
ATOM     98  O   UNK     1      78.749  61.159 111.767  0.00  0.00    +0.000 OA
ENDBRANCH  91  98
BRANCH  89  99
ATOM     99  O   UNK     1      74.543  63.276 112.620  0.00  0.00    +0.000 OA
BRANCH  99 105
ATOM    100  C   UNK     1      72.909  64.088 114.184  0.00  0.00    +0.000 C 
ATOM    101  C   UNK     1      72.782  64.463 115.660  0.00  0.00    +0.000 C 
ATOM    102  C   UNK     1      73.766  65.597 115.960  0.00  0.00    +0.000 C 
ATOM    103  C   UNK     1      75.170  65.402 115.379  0.00  0.00    +0.000 C 
ATOM    104  O   UNK     1      75.122  64.930 114.058  0.00  0.00    +0.000 OA
ATOM    105  C   UNK     1      74.360  63.757 113.930  0.00  0.00    +0.000 C 
BRANCH 100 107
ATOM    106  H   UNK     1      72.061  64.832 112.564  0.00  0.00    +0.000 HD
ATOM    107  O   UNK     1      72.519  65.155 113.347  0.00  0.00    +0.000 OA
ENDBRANCH 100 107
BRANCH 102 109
ATOM    108  H   UNK     1      72.249  66.771 115.435  0.00  0.00    +0.000 HD
ATOM    109  O   UNK     1      73.207  66.795 115.460  0.00  0.00    +0.000 OA
ENDBRANCH 102 109
BRANCH 101 110
ATOM    110  O   UNK     1      73.117  63.365 116.464  0.00  0.00    +0.000 OA
BRANCH 110 115
ATOM    111  H   UNK     1      70.822  64.313 116.748  0.00  0.00    +0.000 HD
ATOM    112  H   UNK     1      70.324  63.267 118.084  0.00  0.00    +0.000 HD
ATOM    113  O   UNK     1      72.470  62.160 118.264  0.00  0.00    +0.000 OA
ATOM    114  N   UNK     1      70.991  63.542 117.380  0.00  0.00    +0.000 N 
ATOM    115  C   UNK     1      72.210  62.945 117.386  0.00  0.00    +0.000 C 
ENDBRANCH 110 115
ENDBRANCH 101 110
BRANCH 103 116
ATOM    116  C   UNK     1      76.094  64.565 116.257  0.00  0.00    +0.000 C 
BRANCH 116 118
ATOM    117  H   UNK     1      77.070  65.073 117.882  0.00  0.00    +0.000 HD
ATOM    118  O   UNK     1      76.944  65.417 116.996  0.00  0.00    +0.000 OA
ENDBRANCH 116 118
ENDBRANCH 103 116
ENDBRANCH  99 105
ENDBRANCH  89  99
BRANCH  92 119
ATOM    119  C   UNK     1      79.183  63.128 109.520  0.00  0.00    +0.000 C 
BRANCH 119 121
ATOM    120  H   UNK     1      79.292  63.430 107.588  0.00  0.00    +0.000 HD
ATOM    121  O   UNK     1      78.935  63.884 108.353  0.00  0.00    +0.000 OA
ENDBRANCH 119 121
ENDBRANCH  92 119
ENDBRANCH  88  94
ENDBRANCH  81  88
ENDBRANCH   1  81
TORSDOF 45
ENDMDL
