MODEL 1
REMARK VINA RESULT:      -6.5      0.000      0.000
REMARK  Name = ./1373.pdb
REMARK  46 active torsions:
REMARK  status: ('A' for Active; 'I' for Inactive)
REMARK    1  A    between atoms: C_1  and  C_2
REMARK    2  A    between atoms: C_2  and  C_3
REMARK    3  A    between atoms: C_3  and  C_4
REMARK    4  A    between atoms: C_4  and  C_5
REMARK    5  A    between atoms: C_5  and  C_6
REMARK    6  A    between atoms: C_6  and  C_7
REMARK    7  A    between atoms: C_7  and  C_8
REMARK    8  A    between atoms: C_8  and  C_9
REMARK    9  A    between atoms: C_9  and  C_10
REMARK   10  A    between atoms: N_12  and  C_13
REMARK   11  A    between atoms: C_13  and  C_14
REMARK   12  A    between atoms: C_13  and  C_24
REMARK   13  A    between atoms: C_14  and  C_15
REMARK   14  A    between atoms: N_26  and  C_27
REMARK   15  A    between atoms: C_27  and  C_28
REMARK   16  A    between atoms: C_27  and  C_32
REMARK   17  A    between atoms: C_28  and  C_29
REMARK   18  A    between atoms: N_34  and  C_35
REMARK   19  A    between atoms: C_35  and  C_36
REMARK   20  A    between atoms: C_35  and  C_40
REMARK   21  A    between atoms: C_36  and  C_37
REMARK   22  A    between atoms: C_37  and  O_38
REMARK   23  A    between atoms: N_42  and  C_43
REMARK   24  A    between atoms: C_44  and  C_45
REMARK   25  A    between atoms: C_49  and  C_50
REMARK   26  A    between atoms: C_50  and  C_51
REMARK   27  A    between atoms: C_51  and  C_53
REMARK   28  A    between atoms: C_58  and  N_59
REMARK   29  A    between atoms: C_63  and  C_110
REMARK   30  A    between atoms: C_67  and  C_68
REMARK   31  A    between atoms: C_68  and  O_69
REMARK   32  A    between atoms: C_77  and  C_78
REMARK   33  A    between atoms: C_78  and  C_79
REMARK   34  A    between atoms: C_79  and  O_80
REMARK   35  A    between atoms: C_85  and  C_86
REMARK   36  A    between atoms: C_90  and  C_91
REMARK   37  A    between atoms: C_91  and  C_92
REMARK   38  A    between atoms: C_92  and  O_93
REMARK   39  A    between atoms: C_98  and  C_99
REMARK   40  A    between atoms: C_99  and  C_100
REMARK   41  A    between atoms: C_100  and  C_101
REMARK   42  A    between atoms: C_101  and  N_102
REMARK   43  A    between atoms: C_110  and  C_111
REMARK   44  A    between atoms: C_110  and  C_112
REMARK   45  A    between atoms: C_112  and  C_113
REMARK   46  A    between atoms: C_113  and  O_114
REMARK                            x       y       z     vdW  Elec       q    Type
REMARK                         _______ _______ _______ _____ _____    ______ ____
ROOT
ATOM      1  C   UNK     1      73.353  69.398 106.735  0.00  0.00    +0.000 C 
ATOM      2  C   UNK     1      73.039  68.652 105.423  0.00  0.00    +0.000 C 
ATOM      3  C   UNK     1      71.656  68.998 104.864  0.00  0.00    +0.000 C 
ATOM      4  O   UNK     1      73.060  67.268 105.638  0.00  0.00    +0.000 OA
ATOM      5  C   UNK     1      74.241  66.597 105.647  0.00  0.00    +0.000 C 
ATOM      6  O   UNK     1      75.333  67.094 105.492  0.00  0.00    +0.000 OA
ATOM      7  C   UNK     1      74.038  65.100 105.914  0.00  0.00    +0.000 C 
ATOM      8  N   UNK     1      75.223  64.400 105.395  0.00  0.00    +0.000 N 
ATOM      9  C   UNK     1      75.695  63.181 105.801  0.00  0.00    +0.000 C 
ATOM     10  O   UNK     1      76.625  62.671 105.229  0.00  0.00    +0.000 OA
ATOM     11  C   UNK     1      75.015  62.538 107.014  0.00  0.00    +0.000 C 
ATOM     12  N   UNK     1      75.104  61.069 107.037  0.00  0.00    +0.000 N 
ATOM     13  C   UNK     1      74.763  60.264 105.980  0.00  0.00    +0.000 C 
ATOM     14  O   UNK     1      74.396  60.676 104.904  0.00  0.00    +0.000 OA
ATOM     15  C   UNK     1      74.880  58.764 106.270  0.00  0.00    +0.000 C 
ATOM     16  N   UNK     1      74.628  58.034 105.023  0.00  0.00    +0.000 N 
ATOM     17  C   UNK     1      74.968  56.722 104.836  0.00  0.00    +0.000 C 
ATOM     18  O   UNK     1      75.479  56.049 105.698  0.00  0.00    +0.000 OA
ATOM     19  C   UNK     1      74.657  56.172 103.449  0.00  0.00    +0.000 C 
ATOM     20  N   UNK     1      75.026  57.148 102.421  0.00  0.00    +0.000 N 
ATOM     21  C   UNK     1      74.236  58.217 102.110  0.00  0.00    +0.000 C 
ATOM     22  O   UNK     1      73.127  58.384 102.554  0.00  0.00    +0.000 OA
ATOM     23  C   UNK     1      74.891  59.261 101.223  0.00  0.00    +0.000 C 
ATOM     24  N   UNK     1      74.734  60.528 101.944  0.00  0.00    +0.000 N 
ATOM     25  C   UNK     1      75.469  61.629 101.632  0.00  0.00    +0.000 C 
ATOM     26  O   UNK     1      76.428  61.592 100.901  0.00  0.00    +0.000 OA
ATOM     27  C   UNK     1      74.933  62.934 102.194  0.00  0.00    +0.000 C 
ATOM     28  C   UNK     1      73.507  63.177 101.676  0.00  0.00    +0.000 C 
ATOM     29  N   UNK     1      75.853  63.965 101.722  0.00  0.00    +0.000 N 
ATOM     30  C   UNK     1      75.819  65.264 102.116  0.00  0.00    +0.000 C 
ATOM     31  O   UNK     1      75.029  65.682 102.924  0.00  0.00    +0.000 OA
ATOM     32  C   UNK     1      76.850  66.143 101.412  0.00  0.00    +0.000 C 
ATOM     33  N   UNK     1      76.370  67.529 101.404  0.00  0.00    +0.000 N 
ATOM     34  C   UNK     1      76.624  68.389 102.436  0.00  0.00    +0.000 C 
ATOM     35  O   UNK     1      77.325  68.104 103.375  0.00  0.00    +0.000 OA
ATOM     36  C   UNK     1      75.959  69.756 102.315  0.00  0.00    +0.000 C 
ATOM     37  N   UNK     1      75.919  70.360 103.654  0.00  0.00    +0.000 N 
ATOM     38  C   UNK     1      74.856  71.088 104.115  0.00  0.00    +0.000 C 
ATOM     39  O   UNK     1      73.865  71.299 103.463  0.00  0.00    +0.000 OA
ATOM     40  C   UNK     1      75.011  71.613 105.533  0.00  0.00    +0.000 C 
ATOM     41  N   UNK     1      73.722  71.822 106.186  0.00  0.00    +0.000 N 
ATOM     42  C   UNK     1      72.926  70.877 106.771  0.00  0.00    +0.000 C 
ATOM     43  O   UNK     1      71.879  71.226 107.261  0.00  0.00    +0.000 OA
ATOM     44  H   UNK     1      75.734  64.858 104.640  0.00  0.00    +0.000 HD
ATOM     45  H   UNK     1      75.301  60.620 107.935  0.00  0.00    +0.000 HD
ATOM     46  H   UNK     1      74.154  58.557 104.286  0.00  0.00    +0.000 HD
ATOM     47  H   UNK     1      75.947  57.074 101.986  0.00  0.00    +0.000 HD
ATOM     48  H   UNK     1      74.018  60.580 102.673  0.00  0.00    +0.000 HD
ATOM     49  H   UNK     1      76.493  63.686 100.975  0.00  0.00    +0.000 HD
ATOM     50  H   UNK     1      75.723  67.799 100.660  0.00  0.00    +0.000 HD
ATOM     51  H   UNK     1      76.712  70.169 104.269  0.00  0.00    +0.000 HD
ATOM     52  H   UNK     1      73.331  72.763 106.195  0.00  0.00    +0.000 HD
ENDROOT
BRANCH   1  55
ATOM     53  C   UNK     1      75.096  69.191 108.499  0.00  0.00    +0.000 C 
ATOM     54  O   UNK     1      74.493  69.876 109.288  0.00  0.00    +0.000 OA
ATOM     55  N   UNK     1      74.716  69.072 107.190  0.00  0.00    +0.000 N 
ATOM     56  H   UNK     1      75.372  68.648 106.527  0.00  0.00    +0.000 HD
BRANCH  53  57
ATOM     57  C   UNK     1      76.278  68.308 108.919  0.00  0.00    +0.000 C 
BRANCH  57  60
ATOM     58  C   UNK     1      78.302  68.724 107.543  0.00  0.00    +0.000 C 
ATOM     59  O   UNK     1      78.825  69.403 108.391  0.00  0.00    +0.000 OA
ATOM     60  N   UNK     1      77.123  68.063 107.742  0.00  0.00    +0.000 N 
ATOM     61  H   UNK     1      76.741  67.510 106.977  0.00  0.00    +0.000 HD
BRANCH  58  62
ATOM     62  C   UNK     1      78.875  68.572 106.132  0.00  0.00    +0.000 C 
BRANCH  62  65
ATOM     63  C   UNK     1      79.261  66.150 105.739  0.00  0.00    +0.000 C 
ATOM     64  O   UNK     1      78.101  65.949 105.474  0.00  0.00    +0.000 OA
ATOM     65  N   UNK     1      79.744  67.393 106.038  0.00  0.00    +0.000 N 
ATOM     66  H   UNK     1      80.735  67.507 106.245  0.00  0.00    +0.000 HD
BRANCH  63  67
ATOM     67  C   UNK     1      80.302  65.031 105.768  0.00  0.00    +0.000 C 
BRANCH  67  70
ATOM     68  C   UNK     1      80.712  64.711 103.324  0.00  0.00    +0.000 C 
ATOM     69  O   UNK     1      79.589  64.324 103.119  0.00  0.00    +0.000 OA
ATOM     70  N   UNK     1      81.136  65.126 104.558  0.00  0.00    +0.000 N 
ATOM     71  H   UNK     1      82.117  65.385 104.670  0.00  0.00    +0.000 HD
BRANCH  68  72
ATOM     72  C   UNK     1      81.789  64.779 102.252  0.00  0.00    +0.000 C 
BRANCH  72  73
ATOM     73  C   UNK     1      82.599  63.481 102.101  0.00  0.00    +0.000 C 
BRANCH  73  74
ATOM     74  C   UNK     1      83.999  63.590 102.725  0.00  0.00    +0.000 C 
BRANCH  74  75
ATOM     75  C   UNK     1      84.123  62.728 103.993  0.00  0.00    +0.000 C 
BRANCH  75  76
ATOM     76  C   UNK     1      84.839  63.468 105.133  0.00  0.00    +0.000 C 
BRANCH  76  77
ATOM     77  C   UNK     1      85.352  62.497 106.210  0.00  0.00    +0.000 C 
BRANCH  77  78
ATOM     78  C   UNK     1      86.540  63.077 106.995  0.00  0.00    +0.000 C 
BRANCH  78  80
ATOM     79  C   UNK     1      87.878  65.199 107.422  0.00  0.00    +0.000 C 
ATOM     80  C   UNK     1      86.995  64.431 106.429  0.00  0.00    +0.000 C 
ENDBRANCH  78  80
ENDBRANCH  77  78
ENDBRANCH  76  77
ENDBRANCH  75  76
ENDBRANCH  74  75
ENDBRANCH  73  74
ENDBRANCH  72  73
ENDBRANCH  68  72
ENDBRANCH  67  70
BRANCH  67  81
ATOM     81  C   UNK     1      79.717  63.607 105.861  0.00  0.00    +0.000 C 
BRANCH  81  82
ATOM     82  C   UNK     1      80.690  62.579 106.358  0.00  0.00    +0.000 A 
ATOM     83  C   UNK     1      81.284  62.561 107.562  0.00  0.00    +0.000 A 
ATOM     84  N   UNK     1      82.077  61.571 107.609  0.00  0.00    +0.000 N 
ATOM     85  C   UNK     1      82.056  60.922 106.522  0.00  0.00    +0.000 A 
ATOM     86  C   UNK     1      81.182  61.518 105.700  0.00  0.00    +0.000 A 
ATOM     87  C   UNK     1      80.965  61.043 104.469  0.00  0.00    +0.000 A 
ATOM     88  C   UNK     1      81.649  59.951 104.085  0.00  0.00    +0.000 A 
ATOM     89  C   UNK     1      82.526  59.355 104.914  0.00  0.00    +0.000 A 
ATOM     90  C   UNK     1      82.743  59.835 106.150  0.00  0.00    +0.000 A 
ATOM     91  H   UNK     1      82.676  61.328 108.432  0.00  0.00    +0.000 HD
ENDBRANCH  81  82
ENDBRANCH  67  81
ENDBRANCH  63  67
ENDBRANCH  62  65
BRANCH  62  92
ATOM     92  C   UNK     1      79.711  69.823 105.788  0.00  0.00    +0.000 C 
BRANCH  92  93
ATOM     93  C   UNK     1      79.302  70.522 104.502  0.00  0.00    +0.000 C 
ATOM     94  N   UNK     1      79.797  69.969 103.364  0.00  0.00    +0.000 N 
ATOM     95  O   UNK     1      78.610  71.505 104.463  0.00  0.00    +0.000 OA
ATOM     96  H   UNK     1      79.588  70.423 102.487  0.00  0.00    +0.000 HD
ATOM     97  H   UNK     1      80.432  69.184 103.399  0.00  0.00    +0.000 HD
ENDBRANCH  92  93
ENDBRANCH  62  92
ENDBRANCH  58  62
ENDBRANCH  57  60
BRANCH  57  98
ATOM     98  C   UNK     1      75.922  66.971 109.588  0.00  0.00    +0.000 C 
BRANCH  98  99
ATOM     99  C   UNK     1      75.465  67.148 111.023  0.00  0.00    +0.000 C 
ATOM    100  O   UNK     1      74.823  66.330 111.630  0.00  0.00    +0.000 OA
BRANCH  99 101
ATOM    101  O   UNK     1      75.791  68.357 111.514  0.00  0.00    +0.000 OA
ATOM    102  H   UNK     1      76.338  68.253 112.308  0.00  0.00    +0.000 HD
ENDBRANCH  99 101
ENDBRANCH  98  99
ENDBRANCH  57  98
ENDBRANCH  53  57
ENDBRANCH   1  55
BRANCH  11 103
ATOM    103  C   UNK     1      75.649  63.129 108.298  0.00  0.00    +0.000 C 
ATOM    104  C   UNK     1      76.897  63.979 108.002  0.00  0.00    +0.000 C 
BRANCH 103 105
ATOM    105  C   UNK     1      75.925  62.043 109.349  0.00  0.00    +0.000 C 
BRANCH 105 106
ATOM    106  C   UNK     1      74.723  61.666 110.184  0.00  0.00    +0.000 C 
ATOM    107  O   UNK     1      73.940  60.782 109.934  0.00  0.00    +0.000 OA
BRANCH 106 108
ATOM    108  O   UNK     1      74.628  62.410 111.303  0.00  0.00    +0.000 OA
ATOM    109  H   UNK     1      74.381  61.830 112.043  0.00  0.00    +0.000 HD
ENDBRANCH 106 108
ENDBRANCH 105 106
ENDBRANCH 103 105
ENDBRANCH  11 103
BRANCH   7 110
ATOM    110  C   UNK     1      72.725  64.544 105.300  0.00  0.00    +0.000 C 
BRANCH 110 111
ATOM    111  C   UNK     1      71.531  64.378 106.252  0.00  0.00    +0.000 C 
ATOM    112  O   UNK     1      70.599  63.773 105.759  0.00  0.00    +0.000 OA
BRANCH 111 113
ATOM    113  C   UNK     1      71.496  64.843 107.542  0.00  0.00    +0.000 A 
ATOM    114  C   UNK     1      72.109  64.098 108.491  0.00  0.00    +0.000 A 
ATOM    115  C   UNK     1      72.156  64.457 109.782  0.00  0.00    +0.000 A 
ATOM    116  C   UNK     1      71.579  65.598 110.174  0.00  0.00    +0.000 A 
ATOM    117  C   UNK     1      70.957  66.352 109.258  0.00  0.00    +0.000 A 
ATOM    118  C   UNK     1      70.906  65.988 107.960  0.00  0.00    +0.000 A 
BRANCH 118 119
ATOM    119  N   UNK     1      70.255  66.818 107.256  0.00  0.00    +0.000 N 
ATOM    120  H   UNK     1      70.216  66.842 106.216  0.00  0.00    +0.000 HD
ATOM    121  H   UNK     1      69.674  67.552 107.730  0.00  0.00    +0.000 HD
ENDBRANCH 118 119
ENDBRANCH 111 113
ENDBRANCH 110 111
ENDBRANCH   7 110
BRANCH  15 122
ATOM    122  C   UNK     1      73.892  58.321 107.351  0.00  0.00    +0.000 C 
BRANCH 122 123
ATOM    123  O   UNK     1      74.489  58.422 108.626  0.00  0.00    +0.000 OA
ATOM    124  H   UNK     1      75.171  57.750 108.692  0.00  0.00    +0.000 HD
ENDBRANCH 122 123
ENDBRANCH  15 122
BRANCH  23 125
ATOM    125  C   UNK     1      74.239  59.340  99.828  0.00  0.00    +0.000 C 
BRANCH 125 126
ATOM    126  C   UNK     1      73.112  60.362  99.755  0.00  0.00    +0.000 C 
ATOM    127  O   UNK     1      72.058  60.285 100.340  0.00  0.00    +0.000 OA
BRANCH 126 128
ATOM    128  O   UNK     1      73.389  61.381  98.911  0.00  0.00    +0.000 OA
ATOM    129  H   UNK     1      72.754  61.373  98.176  0.00  0.00    +0.000 HD
ENDBRANCH 126 128
ENDBRANCH 125 126
ENDBRANCH  23 125
BRANCH  36 130
ATOM    130  C   UNK     1      76.742  70.623 101.316  0.00  0.00    +0.000 C 
BRANCH 130 131
ATOM    131  C   UNK     1      75.834  71.396 100.347  0.00  0.00    +0.000 C 
BRANCH 131 132
ATOM    132  C   UNK     1      75.660  70.661  99.011  0.00  0.00    +0.000 C 
BRANCH 132 133
ATOM    133  N   UNK     1      74.725  69.534  99.156  0.00  0.00    +0.000 NA
ATOM    134  H   UNK     1      74.917  69.017 100.032  0.00  0.00    +0.000 HD
ATOM    135  H   UNK     1      73.754  69.881  99.254  0.00  0.00    +0.000 HD
ENDBRANCH 132 133
ENDBRANCH 131 132
ENDBRANCH 130 131
ENDBRANCH  36 130
BRANCH  32 136
ATOM    136  C   UNK     1      77.128  65.680  99.965  0.00  0.00    +0.000 C 
BRANCH 136 137
ATOM    137  C   UNK     1      76.678  66.754  98.993  0.00  0.00    +0.000 C 
ATOM    138  O   UNK     1      77.371  67.680  98.643  0.00  0.00    +0.000 OA
BRANCH 137 139
ATOM    139  O   UNK     1      75.387  66.609  98.622  0.00  0.00    +0.000 OA
ATOM    140  H   UNK     1      74.807  66.729  99.391  0.00  0.00    +0.000 HD
ENDBRANCH 137 139
ENDBRANCH 136 137
ENDBRANCH  32 136
TORSDOF 42
ENDMDL
MODEL 2
REMARK VINA RESULT:      -6.5      1.304      2.558
REMARK  Name = ./1373.pdb
REMARK  46 active torsions:
REMARK  status: ('A' for Active; 'I' for Inactive)
REMARK    1  A    between atoms: C_1  and  C_2
REMARK    2  A    between atoms: C_2  and  C_3
REMARK    3  A    between atoms: C_3  and  C_4
REMARK    4  A    between atoms: C_4  and  C_5
REMARK    5  A    between atoms: C_5  and  C_6
REMARK    6  A    between atoms: C_6  and  C_7
REMARK    7  A    between atoms: C_7  and  C_8
REMARK    8  A    between atoms: C_8  and  C_9
REMARK    9  A    between atoms: C_9  and  C_10
REMARK   10  A    between atoms: N_12  and  C_13
REMARK   11  A    between atoms: C_13  and  C_14
REMARK   12  A    between atoms: C_13  and  C_24
REMARK   13  A    between atoms: C_14  and  C_15
REMARK   14  A    between atoms: N_26  and  C_27
REMARK   15  A    between atoms: C_27  and  C_28
REMARK   16  A    between atoms: C_27  and  C_32
REMARK   17  A    between atoms: C_28  and  C_29
REMARK   18  A    between atoms: N_34  and  C_35
REMARK   19  A    between atoms: C_35  and  C_36
REMARK   20  A    between atoms: C_35  and  C_40
REMARK   21  A    between atoms: C_36  and  C_37
REMARK   22  A    between atoms: C_37  and  O_38
REMARK   23  A    between atoms: N_42  and  C_43
REMARK   24  A    between atoms: C_44  and  C_45
REMARK   25  A    between atoms: C_49  and  C_50
REMARK   26  A    between atoms: C_50  and  C_51
REMARK   27  A    between atoms: C_51  and  C_53
REMARK   28  A    between atoms: C_58  and  N_59
REMARK   29  A    between atoms: C_63  and  C_110
REMARK   30  A    between atoms: C_67  and  C_68
REMARK   31  A    between atoms: C_68  and  O_69
REMARK   32  A    between atoms: C_77  and  C_78
REMARK   33  A    between atoms: C_78  and  C_79
REMARK   34  A    between atoms: C_79  and  O_80
REMARK   35  A    between atoms: C_85  and  C_86
REMARK   36  A    between atoms: C_90  and  C_91
REMARK   37  A    between atoms: C_91  and  C_92
REMARK   38  A    between atoms: C_92  and  O_93
REMARK   39  A    between atoms: C_98  and  C_99
REMARK   40  A    between atoms: C_99  and  C_100
REMARK   41  A    between atoms: C_100  and  C_101
REMARK   42  A    between atoms: C_101  and  N_102
REMARK   43  A    between atoms: C_110  and  C_111
REMARK   44  A    between atoms: C_110  and  C_112
REMARK   45  A    between atoms: C_112  and  C_113
REMARK   46  A    between atoms: C_113  and  O_114
REMARK                            x       y       z     vdW  Elec       q    Type
REMARK                         _______ _______ _______ _____ _____    ______ ____
ROOT
ATOM      1  C   UNK     1      73.356  69.580 106.682  0.00  0.00    +0.000 C 
ATOM      2  C   UNK     1      73.080  68.818 105.369  0.00  0.00    +0.000 C 
ATOM      3  C   UNK     1      71.710  69.151 104.772  0.00  0.00    +0.000 C 
ATOM      4  O   UNK     1      73.102  67.437 105.599  0.00  0.00    +0.000 OA
ATOM      5  C   UNK     1      74.287  66.773 105.645  0.00  0.00    +0.000 C 
ATOM      6  O   UNK     1      75.380  67.275 105.513  0.00  0.00    +0.000 OA
ATOM      7  C   UNK     1      74.085  65.278 105.921  0.00  0.00    +0.000 C 
ATOM      8  N   UNK     1      75.287  64.579 105.440  0.00  0.00    +0.000 N 
ATOM      9  C   UNK     1      75.755  63.367 105.870  0.00  0.00    +0.000 C 
ATOM     10  O   UNK     1      76.702  62.856 105.327  0.00  0.00    +0.000 OA
ATOM     11  C   UNK     1      75.047  62.732 107.071  0.00  0.00    +0.000 C 
ATOM     12  N   UNK     1      75.143  61.263 107.111  0.00  0.00    +0.000 N 
ATOM     13  C   UNK     1      74.834  60.446 106.054  0.00  0.00    +0.000 C 
ATOM     14  O   UNK     1      74.492  60.846 104.966  0.00  0.00    +0.000 OA
ATOM     15  C   UNK     1      74.952  58.950 106.362  0.00  0.00    +0.000 C 
ATOM     16  N   UNK     1      74.736  58.206 105.117  0.00  0.00    +0.000 N 
ATOM     17  C   UNK     1      75.087  56.894 104.952  0.00  0.00    +0.000 C 
ATOM     18  O   UNK     1      75.579  56.233 105.833  0.00  0.00    +0.000 OA
ATOM     19  C   UNK     1      74.815  56.329 103.562  0.00  0.00    +0.000 C 
ATOM     20  N   UNK     1      75.205  57.297 102.535  0.00  0.00    +0.000 N 
ATOM     21  C   UNK     1      74.417  58.358 102.193  0.00  0.00    +0.000 C 
ATOM     22  O   UNK     1      73.297  58.524 102.607  0.00  0.00    +0.000 OA
ATOM     23  C   UNK     1      75.089  59.397 101.313  0.00  0.00    +0.000 C 
ATOM     24  N   UNK     1      74.907  60.671 102.016  0.00  0.00    +0.000 N 
ATOM     25  C   UNK     1      75.644  61.773 101.712  0.00  0.00    +0.000 C 
ATOM     26  O   UNK     1      76.621  61.734 101.007  0.00  0.00    +0.000 OA
ATOM     27  C   UNK     1      75.086  63.080 102.247  0.00  0.00    +0.000 C 
ATOM     28  C   UNK     1      73.673  63.310 101.691  0.00  0.00    +0.000 C 
ATOM     29  N   UNK     1      76.013  64.111 101.788  0.00  0.00    +0.000 N 
ATOM     30  C   UNK     1      75.962  65.414 102.168  0.00  0.00    +0.000 C 
ATOM     31  O   UNK     1      75.149  65.835 102.952  0.00  0.00    +0.000 OA
ATOM     32  C   UNK     1      77.006  66.291 101.482  0.00  0.00    +0.000 C 
ATOM     33  N   UNK     1      76.518  67.675 101.448  0.00  0.00    +0.000 N 
ATOM     34  C   UNK     1      76.741  68.547 102.478  0.00  0.00    +0.000 C 
ATOM     35  O   UNK     1      77.420  68.275 103.437  0.00  0.00    +0.000 OA
ATOM     36  C   UNK     1      76.072  69.908 102.326  0.00  0.00    +0.000 C 
ATOM     37  N   UNK     1      75.994  70.526 103.657  0.00  0.00    +0.000 N 
ATOM     38  C   UNK     1      74.917  71.251 104.084  0.00  0.00    +0.000 C 
ATOM     39  O   UNK     1      73.941  71.451 103.405  0.00  0.00    +0.000 OA
ATOM     40  C   UNK     1      75.032  71.791 105.500  0.00  0.00    +0.000 C 
ATOM     41  N   UNK     1      73.726  72.000 106.118  0.00  0.00    +0.000 N 
ATOM     42  C   UNK     1      72.920  71.056 106.691  0.00  0.00    +0.000 C 
ATOM     43  O   UNK     1      71.859  71.404 107.152  0.00  0.00    +0.000 OA
ATOM     44  H   UNK     1      75.815  65.032 104.694  0.00  0.00    +0.000 HD
ATOM     45  H   UNK     1      75.320  60.825 108.019  0.00  0.00    +0.000 HD
ATOM     46  H   UNK     1      74.278  58.720 104.363  0.00  0.00    +0.000 HD
ATOM     47  H   UNK     1      76.136  57.224 102.124  0.00  0.00    +0.000 HD
ATOM     48  H   UNK     1      74.172  60.726 102.727  0.00  0.00    +0.000 HD
ATOM     49  H   UNK     1      76.673  63.828 101.060  0.00  0.00    +0.000 HD
ATOM     50  H   UNK     1      75.889  67.934 100.685  0.00  0.00    +0.000 HD
ATOM     51  H   UNK     1      76.772  70.345 104.295  0.00  0.00    +0.000 HD
ATOM     52  H   UNK     1      73.330  72.939 106.107  0.00  0.00    +0.000 HD
ENDROOT
BRANCH   1  55
ATOM     53  C   UNK     1      75.016  69.259 108.507  0.00  0.00    +0.000 C 
ATOM     54  O   UNK     1      74.341  69.828 109.330  0.00  0.00    +0.000 OA
ATOM     55  N   UNK     1      74.709  69.266 107.174  0.00  0.00    +0.000 N 
ATOM     56  H   UNK     1      75.418  68.945 106.508  0.00  0.00    +0.000 HD
BRANCH  53  57
ATOM     57  C   UNK     1      76.217  68.388 108.897  0.00  0.00    +0.000 C 
BRANCH  57  60
ATOM     58  C   UNK     1      78.274  68.837 107.581  0.00  0.00    +0.000 C 
ATOM     59  O   UNK     1      78.810  69.426 108.486  0.00  0.00    +0.000 OA
ATOM     60  N   UNK     1      77.069  68.206 107.713  0.00  0.00    +0.000 N 
ATOM     61  H   UNK     1      76.679  67.730 106.902  0.00  0.00    +0.000 HD
BRANCH  58  62
ATOM     62  C   UNK     1      78.861  68.777 106.169  0.00  0.00    +0.000 C 
BRANCH  62  65
ATOM     63  C   UNK     1      79.307  66.360 105.804  0.00  0.00    +0.000 C 
ATOM     64  O   UNK     1      78.137  66.106 105.662  0.00  0.00    +0.000 OA
ATOM     65  N   UNK     1      79.765  67.630 106.020  0.00  0.00    +0.000 N 
ATOM     66  H   UNK     1      80.766  67.790 106.123  0.00  0.00    +0.000 HD
BRANCH  63  67
ATOM     67  C   UNK     1      80.392  65.284 105.758  0.00  0.00    +0.000 C 
BRANCH  67  70
ATOM     68  C   UNK     1      80.862  65.191 103.306  0.00  0.00    +0.000 C 
ATOM     69  O   UNK     1      79.761  64.777 103.043  0.00  0.00    +0.000 OA
ATOM     70  N   UNK     1      81.244  65.518 104.579  0.00  0.00    +0.000 N 
ATOM     71  H   UNK     1      82.210  65.807 104.735  0.00  0.00    +0.000 HD
BRANCH  68  72
ATOM     72  C   UNK     1      81.955  65.396 102.268  0.00  0.00    +0.000 C 
BRANCH  72  73
ATOM     73  C   UNK     1      82.630  64.093 101.812  0.00  0.00    +0.000 C 
BRANCH  73  74
ATOM     74  C   UNK     1      81.861  63.404 100.673  0.00  0.00    +0.000 C 
BRANCH  74  75
ATOM     75  C   UNK     1      81.447  64.407  99.583  0.00  0.00    +0.000 C 
BRANCH  75  76
ATOM     76  C   UNK     1      80.450  63.801  98.582  0.00  0.00    +0.000 C 
BRANCH  76  77
ATOM     77  C   UNK     1      79.978  64.837  97.549  0.00  0.00    +0.000 C 
BRANCH  77  78
ATOM     78  C   UNK     1      80.444  66.259  97.900  0.00  0.00    +0.000 C 
BRANCH  78  80
ATOM     79  C   UNK     1      82.417  66.825  96.395  0.00  0.00    +0.000 C 
ATOM     80  C   UNK     1      80.919  67.030  96.658  0.00  0.00    +0.000 C 
ENDBRANCH  78  80
ENDBRANCH  77  78
ENDBRANCH  76  77
ENDBRANCH  75  76
ENDBRANCH  74  75
ENDBRANCH  73  74
ENDBRANCH  72  73
ENDBRANCH  68  72
ENDBRANCH  67  70
BRANCH  67  81
ATOM     81  C   UNK     1      79.863  63.836 105.714  0.00  0.00    +0.000 C 
BRANCH  81  82
ATOM     82  C   UNK     1      80.799  62.827 106.312  0.00  0.00    +0.000 A 
ATOM     83  C   UNK     1      81.043  62.642 107.619  0.00  0.00    +0.000 A 
ATOM     84  N   UNK     1      81.923  61.737 107.745  0.00  0.00    +0.000 N 
ATOM     85  C   UNK     1      82.287  61.299 106.613  0.00  0.00    +0.000 A 
ATOM     86  C   UNK     1      81.593  61.954 105.673  0.00  0.00    +0.000 A 
ATOM     87  C   UNK     1      81.785  61.696 104.374  0.00  0.00    +0.000 A 
ATOM     88  C   UNK     1      82.693  60.760 104.046  0.00  0.00    +0.000 A 
ATOM     89  C   UNK     1      83.388  60.104 104.994  0.00  0.00    +0.000 A 
ATOM     90  C   UNK     1      83.193  60.366 106.297  0.00  0.00    +0.000 A 
ATOM     91  H   UNK     1      82.305  61.402 108.659  0.00  0.00    +0.000 HD
ENDBRANCH  81  82
ENDBRANCH  67  81
ENDBRANCH  63  67
ENDBRANCH  62  65
BRANCH  62  92
ATOM     92  C   UNK     1      79.662  70.068 105.899  0.00  0.00    +0.000 C 
BRANCH  92  93
ATOM     93  C   UNK     1      79.297  70.779 104.606  0.00  0.00    +0.000 C 
ATOM     94  N   UNK     1      79.832  70.236 103.481  0.00  0.00    +0.000 N 
ATOM     95  O   UNK     1      78.607  71.762 104.552  0.00  0.00    +0.000 OA
ATOM     96  H   UNK     1      79.652  70.698 102.602  0.00  0.00    +0.000 HD
ATOM     97  H   UNK     1      80.466  69.451 103.530  0.00  0.00    +0.000 HD
ENDBRANCH  92  93
ENDBRANCH  62  92
ENDBRANCH  58  62
ENDBRANCH  57  60
BRANCH  57  98
ATOM     98  C   UNK     1      75.891  67.019 109.514  0.00  0.00    +0.000 C 
BRANCH  98  99
ATOM     99  C   UNK     1      75.250  67.142 110.882  0.00  0.00    +0.000 C 
ATOM    100  O   UNK     1      74.343  66.447 111.266  0.00  0.00    +0.000 OA
BRANCH  99 101
ATOM    101  O   UNK     1      75.755  68.168 111.590  0.00  0.00    +0.000 OA
ATOM    102  H   UNK     1      76.722  68.095 111.629  0.00  0.00    +0.000 HD
ENDBRANCH  99 101
ENDBRANCH  98  99
ENDBRANCH  57  98
ENDBRANCH  53  57
ENDBRANCH   1  55
BRANCH  11 103
ATOM    103  C   UNK     1      75.645  63.340 108.365  0.00  0.00    +0.000 C 
ATOM    104  C   UNK     1      77.125  63.727 108.205  0.00  0.00    +0.000 C 
BRANCH 103 105
ATOM    105  C   UNK     1      75.414  62.429 109.582  0.00  0.00    +0.000 C 
BRANCH 105 106
ATOM    106  C   UNK     1      75.305  63.166 110.897  0.00  0.00    +0.000 C 
ATOM    107  O   UNK     1      76.232  63.524 111.582  0.00  0.00    +0.000 OA
BRANCH 106 108
ATOM    108  O   UNK     1      74.027  63.436 111.225  0.00  0.00    +0.000 OA
ATOM    109  H   UNK     1      73.442  62.897 110.667  0.00  0.00    +0.000 HD
ENDBRANCH 106 108
ENDBRANCH 105 106
ENDBRANCH 103 105
ENDBRANCH  11 103
BRANCH   7 110
ATOM    110  C   UNK     1      72.791  64.708 105.279  0.00  0.00    +0.000 C 
BRANCH 110 111
ATOM    111  C   UNK     1      71.614  64.427 106.226  0.00  0.00    +0.000 C 
ATOM    112  O   UNK     1      70.957  63.455 105.907  0.00  0.00    +0.000 OA
BRANCH 111 113
ATOM    113  C   UNK     1      71.317  65.174 107.338  0.00  0.00    +0.000 A 
ATOM    114  C   UNK     1      70.682  66.353 107.145  0.00  0.00    +0.000 A 
ATOM    115  C   UNK     1      70.325  67.162 108.154  0.00  0.00    +0.000 A 
ATOM    116  C   UNK     1      70.597  66.808 109.414  0.00  0.00    +0.000 A 
ATOM    117  C   UNK     1      71.232  65.650 109.635  0.00  0.00    +0.000 A 
ATOM    118  C   UNK     1      71.595  64.839 108.620  0.00  0.00    +0.000 A 
BRANCH 118 119
ATOM    119  N   UNK     1      72.205  63.805 109.029  0.00  0.00    +0.000 N 
ATOM    120  H   UNK     1      71.811  62.843 109.084  0.00  0.00    +0.000 HD
ATOM    121  H   UNK     1      73.207  63.882 109.331  0.00  0.00    +0.000 HD
ENDBRANCH 118 119
ENDBRANCH 111 113
ENDBRANCH 110 111
ENDBRANCH   7 110
BRANCH  15 122
ATOM    122  C   UNK     1      73.939  58.512 107.422  0.00  0.00    +0.000 C 
BRANCH 122 123
ATOM    123  O   UNK     1      74.441  58.779 108.714  0.00  0.00    +0.000 OA
ATOM    124  H   UNK     1      74.479  57.951 109.198  0.00  0.00    +0.000 HD
ENDBRANCH 122 123
ENDBRANCH  15 122
BRANCH  23 125
ATOM    125  C   UNK     1      74.472  59.459  99.900  0.00  0.00    +0.000 C 
BRANCH 125 126
ATOM    126  C   UNK     1      75.422  58.969  98.814  0.00  0.00    +0.000 C 
ATOM    127  O   UNK     1      75.231  58.018  98.095  0.00  0.00    +0.000 OA
BRANCH 126 128
ATOM    128  O   UNK     1      76.559  59.697  98.753  0.00  0.00    +0.000 OA
ATOM    129  H   UNK     1      77.217  59.222  98.219  0.00  0.00    +0.000 HD
ENDBRANCH 126 128
ENDBRANCH 125 126
ENDBRANCH  23 125
BRANCH  36 130
ATOM    130  C   UNK     1      76.876  70.770 101.338  0.00  0.00    +0.000 C 
BRANCH 130 131
ATOM    131  C   UNK     1      76.073  71.161 100.088  0.00  0.00    +0.000 C 
BRANCH 131 132
ATOM    132  C   UNK     1      74.679  70.517 100.076  0.00  0.00    +0.000 C 
BRANCH 132 133
ATOM    133  N   UNK     1      74.628  69.409  99.108  0.00  0.00    +0.000 NA
ATOM    134  H   UNK     1      73.681  69.331  98.699  0.00  0.00    +0.000 HD
ATOM    135  H   UNK     1      75.255  69.600  98.306  0.00  0.00    +0.000 HD
ENDBRANCH 132 133
ENDBRANCH 131 132
ENDBRANCH 130 131
ENDBRANCH  36 130
BRANCH  32 136
ATOM    136  C   UNK     1      77.323  65.816 100.048  0.00  0.00    +0.000 C 
BRANCH 136 137
ATOM    137  C   UNK     1      76.750  66.803  99.048  0.00  0.00    +0.000 C 
ATOM    138  O   UNK     1      77.330  67.793  98.670  0.00  0.00    +0.000 OA
BRANCH 137 139
ATOM    139  O   UNK     1      75.486  66.497  98.684  0.00  0.00    +0.000 OA
ATOM    140  H   UNK     1      75.477  66.157  97.775  0.00  0.00    +0.000 HD
ENDBRANCH 137 139
ENDBRANCH 136 137
ENDBRANCH  32 136
TORSDOF 42
ENDMDL
MODEL 3
REMARK VINA RESULT:      -6.5      5.673     10.056
REMARK  Name = ./1373.pdb
REMARK  46 active torsions:
REMARK  status: ('A' for Active; 'I' for Inactive)
REMARK    1  A    between atoms: C_1  and  C_2
REMARK    2  A    between atoms: C_2  and  C_3
REMARK    3  A    between atoms: C_3  and  C_4
REMARK    4  A    between atoms: C_4  and  C_5
REMARK    5  A    between atoms: C_5  and  C_6
REMARK    6  A    between atoms: C_6  and  C_7
REMARK    7  A    between atoms: C_7  and  C_8
REMARK    8  A    between atoms: C_8  and  C_9
REMARK    9  A    between atoms: C_9  and  C_10
REMARK   10  A    between atoms: N_12  and  C_13
REMARK   11  A    between atoms: C_13  and  C_14
REMARK   12  A    between atoms: C_13  and  C_24
REMARK   13  A    between atoms: C_14  and  C_15
REMARK   14  A    between atoms: N_26  and  C_27
REMARK   15  A    between atoms: C_27  and  C_28
REMARK   16  A    between atoms: C_27  and  C_32
REMARK   17  A    between atoms: C_28  and  C_29
REMARK   18  A    between atoms: N_34  and  C_35
REMARK   19  A    between atoms: C_35  and  C_36
REMARK   20  A    between atoms: C_35  and  C_40
REMARK   21  A    between atoms: C_36  and  C_37
REMARK   22  A    between atoms: C_37  and  O_38
REMARK   23  A    between atoms: N_42  and  C_43
REMARK   24  A    between atoms: C_44  and  C_45
REMARK   25  A    between atoms: C_49  and  C_50
REMARK   26  A    between atoms: C_50  and  C_51
REMARK   27  A    between atoms: C_51  and  C_53
REMARK   28  A    between atoms: C_58  and  N_59
REMARK   29  A    between atoms: C_63  and  C_110
REMARK   30  A    between atoms: C_67  and  C_68
REMARK   31  A    between atoms: C_68  and  O_69
REMARK   32  A    between atoms: C_77  and  C_78
REMARK   33  A    between atoms: C_78  and  C_79
REMARK   34  A    between atoms: C_79  and  O_80
REMARK   35  A    between atoms: C_85  and  C_86
REMARK   36  A    between atoms: C_90  and  C_91
REMARK   37  A    between atoms: C_91  and  C_92
REMARK   38  A    between atoms: C_92  and  O_93
REMARK   39  A    between atoms: C_98  and  C_99
REMARK   40  A    between atoms: C_99  and  C_100
REMARK   41  A    between atoms: C_100  and  C_101
REMARK   42  A    between atoms: C_101  and  N_102
REMARK   43  A    between atoms: C_110  and  C_111
REMARK   44  A    between atoms: C_110  and  C_112
REMARK   45  A    between atoms: C_112  and  C_113
REMARK   46  A    between atoms: C_113  and  O_114
REMARK                            x       y       z     vdW  Elec       q    Type
REMARK                         _______ _______ _______ _____ _____    ______ ____
ROOT
ATOM      1  C   UNK     1      79.518  75.231 101.967  0.00  0.00    +0.000 C 
ATOM      2  C   UNK     1      78.009  75.423 102.223  0.00  0.00    +0.000 C 
ATOM      3  C   UNK     1      77.666  76.840 102.689  0.00  0.00    +0.000 C 
ATOM      4  O   UNK     1      77.574  74.546 103.223  0.00  0.00    +0.000 OA
ATOM      5  C   UNK     1      77.279  73.255 102.918  0.00  0.00    +0.000 C 
ATOM      6  O   UNK     1      77.367  72.755 101.820  0.00  0.00    +0.000 OA
ATOM      7  C   UNK     1      76.838  72.468 104.159  0.00  0.00    +0.000 C 
ATOM      8  N   UNK     1      76.060  71.312 103.687  0.00  0.00    +0.000 N 
ATOM      9  C   UNK     1      75.870  70.129 104.350  0.00  0.00    +0.000 C 
ATOM     10  O   UNK     1      75.130  69.293 103.897  0.00  0.00    +0.000 OA
ATOM     11  C   UNK     1      76.659  69.922 105.647  0.00  0.00    +0.000 C 
ATOM     12  N   UNK     1      76.014  68.999 106.595  0.00  0.00    +0.000 N 
ATOM     13  C   UNK     1      74.707  69.103 106.997  0.00  0.00    +0.000 C 
ATOM     14  O   UNK     1      73.934  69.936 106.582  0.00  0.00    +0.000 OA
ATOM     15  C   UNK     1      74.286  68.063 108.040  0.00  0.00    +0.000 C 
ATOM     16  N   UNK     1      72.844  68.198 108.268  0.00  0.00    +0.000 N 
ATOM     17  C   UNK     1      72.083  67.236 108.874  0.00  0.00    +0.000 C 
ATOM     18  O   UNK     1      72.547  66.207 109.299  0.00  0.00    +0.000 OA
ATOM     19  C   UNK     1      70.596  67.562 108.969  0.00  0.00    +0.000 C 
ATOM     20  N   UNK     1      70.123  68.145 107.712  0.00  0.00    +0.000 N 
ATOM     21  C   UNK     1      70.329  69.455 107.390  0.00  0.00    +0.000 C 
ATOM     22  O   UNK     1      70.799  70.267 108.147  0.00  0.00    +0.000 OA
ATOM     23  C   UNK     1      70.012  69.818 105.950  0.00  0.00    +0.000 C 
ATOM     24  N   UNK     1      71.229  70.459 105.440  0.00  0.00    +0.000 N 
ATOM     25  C   UNK     1      71.450  70.625 104.108  0.00  0.00    +0.000 C 
ATOM     26  O   UNK     1      70.783  70.087 103.260  0.00  0.00    +0.000 OA
ATOM     27  C   UNK     1      72.542  71.623 103.764  0.00  0.00    +0.000 C 
ATOM     28  C   UNK     1      72.189  73.002 104.342  0.00  0.00    +0.000 C 
ATOM     29  N   UNK     1      72.589  71.655 102.304  0.00  0.00    +0.000 N 
ATOM     30  C   UNK     1      73.529  72.316 101.580  0.00  0.00    +0.000 C 
ATOM     31  O   UNK     1      74.438  72.923 102.087  0.00  0.00    +0.000 OA
ATOM     32  C   UNK     1      73.300  72.243 100.073  0.00  0.00    +0.000 C 
ATOM     33  N   UNK     1      73.921  73.412  99.439  0.00  0.00    +0.000 N 
ATOM     34  C   UNK     1      75.231  73.413  99.047  0.00  0.00    +0.000 C 
ATOM     35  O   UNK     1      75.940  72.439  99.112  0.00  0.00    +0.000 OA
ATOM     36  C   UNK     1      75.741  74.745  98.508  0.00  0.00    +0.000 C 
ATOM     37  N   UNK     1      77.209  74.732  98.586  0.00  0.00    +0.000 N 
ATOM     38  C   UNK     1      77.948  75.827  98.940  0.00  0.00    +0.000 C 
ATOM     39  O   UNK     1      77.462  76.896  99.212  0.00  0.00    +0.000 OA
ATOM     40  C   UNK     1      79.451  75.597  98.973  0.00  0.00    +0.000 C 
ATOM     41  N   UNK     1      80.126  76.510  99.891  0.00  0.00    +0.000 N 
ATOM     42  C   UNK     1      80.218  76.400 101.251  0.00  0.00    +0.000 C 
ATOM     43  O   UNK     1      80.813  77.256 101.861  0.00  0.00    +0.000 OA
ATOM     44  H   UNK     1      75.595  71.407 102.784  0.00  0.00    +0.000 HD
ATOM     45  H   UNK     1      76.612  68.327 107.083  0.00  0.00    +0.000 HD
ATOM     46  H   UNK     1      72.423  69.078 107.964  0.00  0.00    +0.000 HD
ATOM     47  H   UNK     1      69.703  67.528 107.016  0.00  0.00    +0.000 HD
ATOM     48  H   UNK     1      71.902  70.821 106.121  0.00  0.00    +0.000 HD
ATOM     49  H   UNK     1      71.797  71.225 101.821  0.00  0.00    +0.000 HD
ATOM     50  H   UNK     1      73.379  74.279  99.417  0.00  0.00    +0.000 HD
ATOM     51  H   UNK     1      77.672  73.838  98.416  0.00  0.00    +0.000 HD
ATOM     52  H   UNK     1      80.560  77.349  99.508  0.00  0.00    +0.000 HD
ENDROOT
BRANCH   1  55
ATOM     53  C   UNK     1      81.037  73.344 101.401  0.00  0.00    +0.000 C 
ATOM     54  O   UNK     1      82.028  74.033 101.413  0.00  0.00    +0.000 OA
ATOM     55  N   UNK     1      79.776  73.871 101.463  0.00  0.00    +0.000 N 
ATOM     56  H   UNK     1      78.981  73.262 101.246  0.00  0.00    +0.000 HD
BRANCH  53  57
ATOM     57  C   UNK     1      81.108  71.812 101.426  0.00  0.00    +0.000 C 
BRANCH  57  60
ATOM     58  C   UNK     1      80.118  71.040  99.283  0.00  0.00    +0.000 C 
ATOM     59  O   UNK     1      81.176  71.066  98.704  0.00  0.00    +0.000 OA
ATOM     60  N   UNK     1      79.998  71.278 100.623  0.00  0.00    +0.000 N 
ATOM     61  H   UNK     1      79.070  71.240 101.042  0.00  0.00    +0.000 HD
BRANCH  58  62
ATOM     62  C   UNK     1      78.788  70.791  98.570  0.00  0.00    +0.000 C 
BRANCH  62  65
ATOM     63  C   UNK     1      77.831  68.724  99.561  0.00  0.00    +0.000 C 
ATOM     64  O   UNK     1      77.437  69.307 100.541  0.00  0.00    +0.000 OA
ATOM     65  N   UNK     1      78.468  69.358  98.532  0.00  0.00    +0.000 N 
ATOM     66  H   UNK     1      78.772  68.818  97.723  0.00  0.00    +0.000 HD
BRANCH  63  67
ATOM     67  C   UNK     1      77.658  67.216  99.379  0.00  0.00    +0.000 C 
BRANCH  67  70
ATOM     68  C   UNK     1      79.256  65.593  98.354  0.00  0.00    +0.000 C 
ATOM     69  O   UNK     1      79.130  64.799  99.253  0.00  0.00    +0.000 OA
ATOM     70  N   UNK     1      78.549  66.763  98.297  0.00  0.00    +0.000 N 
ATOM     71  H   UNK     1      78.751  67.414  97.537  0.00  0.00    +0.000 HD
BRANCH  68  72
ATOM     72  C   UNK     1      80.213  65.399  97.188  0.00  0.00    +0.000 C 
BRANCH  72  73
ATOM     73  C   UNK     1      79.512  65.099  95.853  0.00  0.00    +0.000 C 
BRANCH  73  74
ATOM     74  C   UNK     1      79.807  66.165  94.786  0.00  0.00    +0.000 C 
BRANCH  74  75
ATOM     75  C   UNK     1      80.544  65.567  93.576  0.00  0.00    +0.000 C 
BRANCH  75  76
ATOM     76  C   UNK     1      81.441  66.597  92.871  0.00  0.00    +0.000 C 
BRANCH  76  77
ATOM     77  C   UNK     1      82.029  67.614  93.863  0.00  0.00    +0.000 C 
BRANCH  77  78
ATOM     78  C   UNK     1      83.098  68.506  93.211  0.00  0.00    +0.000 C 
BRANCH  78  80
ATOM     79  C   UNK     1      83.111  70.570  91.723  0.00  0.00    +0.000 C 
ATOM     80  C   UNK     1      82.599  69.135  91.900  0.00  0.00    +0.000 C 
ENDBRANCH  78  80
ENDBRANCH  77  78
ENDBRANCH  76  77
ENDBRANCH  75  76
ENDBRANCH  74  75
ENDBRANCH  73  74
ENDBRANCH  72  73
ENDBRANCH  68  72
ENDBRANCH  67  70
BRANCH  67  81
ATOM     81  C   UNK     1      76.217  66.765  99.063  0.00  0.00    +0.000 C 
BRANCH  81  82
ATOM     82  C   UNK     1      75.783  67.053  97.655  0.00  0.00    +0.000 A 
ATOM     83  C   UNK     1      75.916  66.237  96.597  0.00  0.00    +0.000 A 
ATOM     84  N   UNK     1      75.481  66.834  95.566  0.00  0.00    +0.000 N 
ATOM     85  C   UNK     1      75.063  67.994  95.857  0.00  0.00    +0.000 A 
ATOM     86  C   UNK     1      75.225  68.174  97.175  0.00  0.00    +0.000 A 
ATOM     87  C   UNK     1      74.872  69.325  97.758  0.00  0.00    +0.000 A 
ATOM     88  C   UNK     1      74.350  70.291  96.981  0.00  0.00    +0.000 A 
ATOM     89  C   UNK     1      74.189  70.105  95.657  0.00  0.00    +0.000 A 
ATOM     90  C   UNK     1      74.545  68.948  95.075  0.00  0.00    +0.000 A 
ATOM     91  H   UNK     1      75.475  66.428  94.602  0.00  0.00    +0.000 HD
ENDBRANCH  81  82
ENDBRANCH  67  81
ENDBRANCH  63  67
ENDBRANCH  62  65
BRANCH  62  92
ATOM     92  C   UNK     1      78.888  71.306  97.118  0.00  0.00    +0.000 C 
BRANCH  92  93
ATOM     93  C   UNK     1      79.023  70.215  96.068  0.00  0.00    +0.000 C 
ATOM     94  N   UNK     1      77.963  70.091  95.228  0.00  0.00    +0.000 N 
ATOM     95  O   UNK     1      79.974  69.485  95.978  0.00  0.00    +0.000 OA
ATOM     96  H   UNK     1      77.988  69.352  94.541  0.00  0.00    +0.000 HD
ATOM     97  H   UNK     1      77.135  70.659  95.344  0.00  0.00    +0.000 HD
ENDBRANCH  92  93
ENDBRANCH  62  92
ENDBRANCH  58  62
ENDBRANCH  57  60
BRANCH  57  98
ATOM     98  C   UNK     1      81.105  71.154 102.815  0.00  0.00    +0.000 C 
BRANCH  98  99
ATOM     99  C   UNK     1      81.550  69.706 102.767  0.00  0.00    +0.000 C 
ATOM    100  O   UNK     1      81.335  68.906 103.642  0.00  0.00    +0.000 OA
BRANCH  99 101
ATOM    101  O   UNK     1      82.282  69.435 101.672  0.00  0.00    +0.000 OA
ATOM    102  H   UNK     1      81.723  69.021 100.996  0.00  0.00    +0.000 HD
ENDBRANCH  99 101
ENDBRANCH  98  99
ENDBRANCH  57  98
ENDBRANCH  53  57
ENDBRANCH   1  55
BRANCH  11 103
ATOM    103  C   UNK     1      78.072  69.404 105.279  0.00  0.00    +0.000 C 
ATOM    104  C   UNK     1      78.031  68.078 104.500  0.00  0.00    +0.000 C 
BRANCH 103 105
ATOM    105  C   UNK     1      78.988  69.323 106.511  0.00  0.00    +0.000 C 
BRANCH 105 106
ATOM    106  C   UNK     1      80.100  70.346 106.527  0.00  0.00    +0.000 C 
ATOM    107  O   UNK     1      81.257  70.125 106.792  0.00  0.00    +0.000 OA
BRANCH 106 108
ATOM    108  O   UNK     1      79.671  71.569 106.160  0.00  0.00    +0.000 OA
ATOM    109  H   UNK     1      78.885  71.467 105.598  0.00  0.00    +0.000 HD
ENDBRANCH 106 108
ENDBRANCH 105 106
ENDBRANCH 103 105
ENDBRANCH  11 103
BRANCH   7 110
ATOM    110  C   UNK     1      76.037  73.327 105.174  0.00  0.00    +0.000 C 
BRANCH 110 111
ATOM    111  C   UNK     1      76.513  73.295 106.634  0.00  0.00    +0.000 C 
ATOM    112  O   UNK     1      77.675  73.624 106.773  0.00  0.00    +0.000 OA
BRANCH 111 113
ATOM    113  C   UNK     1      75.723  72.948 107.700  0.00  0.00    +0.000 A 
ATOM    114  C   UNK     1      74.479  73.477 107.754  0.00  0.00    +0.000 A 
ATOM    115  C   UNK     1      73.610  73.199 108.737  0.00  0.00    +0.000 A 
ATOM    116  C   UNK     1      73.966  72.364 109.719  0.00  0.00    +0.000 A 
ATOM    117  C   UNK     1      75.194  71.832 109.697  0.00  0.00    +0.000 A 
ATOM    118  C   UNK     1      76.069  72.115 108.711  0.00  0.00    +0.000 A 
BRANCH 118 119
ATOM    119  N   UNK     1      77.184  71.533 108.879  0.00  0.00    +0.000 N 
ATOM    120  H   UNK     1      77.603  71.264 109.793  0.00  0.00    +0.000 HD
ATOM    121  H   UNK     1      77.757  71.265 108.041  0.00  0.00    +0.000 HD
ENDBRANCH 118 119
ENDBRANCH 111 113
ENDBRANCH 110 111
ENDBRANCH   7 110
BRANCH  15 122
ATOM    122  C   UNK     1      75.048  68.244 109.354  0.00  0.00    +0.000 C 
BRANCH 122 123
ATOM    123  O   UNK     1      76.426  68.413 109.098  0.00  0.00    +0.000 OA
ATOM    124  H   UNK     1      76.855  67.558 109.189  0.00  0.00    +0.000 HD
ENDBRANCH 122 123
ENDBRANCH  15 122
BRANCH  23 125
ATOM    125  C   UNK     1      68.803  70.769 105.836  0.00  0.00    +0.000 C 
BRANCH 125 126
ATOM    126  C   UNK     1      69.199  72.240 105.856  0.00  0.00    +0.000 C 
ATOM    127  O   UNK     1      69.682  72.821 106.799  0.00  0.00    +0.000 OA
BRANCH 126 128
ATOM    128  O   UNK     1      68.912  72.871 104.697  0.00  0.00    +0.000 OA
ATOM    129  H   UNK     1      69.375  73.725 104.671  0.00  0.00    +0.000 HD
ENDBRANCH 126 128
ENDBRANCH 125 126
ENDBRANCH  23 125
BRANCH  36 130
ATOM    130  C   UNK     1      75.244  74.940  97.066  0.00  0.00    +0.000 C 
BRANCH 130 131
ATOM    131  C   UNK     1      74.431  76.231  96.880  0.00  0.00    +0.000 C 
BRANCH 131 132
ATOM    132  C   UNK     1      74.245  76.989  98.202  0.00  0.00    +0.000 C 
BRANCH 132 133
ATOM    133  N   UNK     1      74.986  78.260  98.179  0.00  0.00    +0.000 NA
ATOM    134  H   UNK     1      75.163  78.556  97.203  0.00  0.00    +0.000 HD
ATOM    135  H   UNK     1      74.417  79.019  98.594  0.00  0.00    +0.000 HD
ENDBRANCH 132 133
ENDBRANCH 131 132
ENDBRANCH 130 131
ENDBRANCH  36 130
BRANCH  32 136
ATOM    136  C   UNK     1      71.801  72.187  99.706  0.00  0.00    +0.000 C 
BRANCH 136 137
ATOM    137  C   UNK     1      71.451  70.798  99.209  0.00  0.00    +0.000 C 
ATOM    138  O   UNK     1      71.089  70.556  98.082  0.00  0.00    +0.000 OA
BRANCH 137 139
ATOM    139  O   UNK     1      71.510  69.867 100.186  0.00  0.00    +0.000 OA
ATOM    140  H   UNK     1      70.662  69.829 100.658  0.00  0.00    +0.000 HD
ENDBRANCH 137 139
ENDBRANCH 136 137
ENDBRANCH  32 136
TORSDOF 42
ENDMDL
MODEL 4
REMARK VINA RESULT:      -6.4      3.517     10.321
REMARK  Name = ./1373.pdb
REMARK  46 active torsions:
REMARK  status: ('A' for Active; 'I' for Inactive)
REMARK    1  A    between atoms: C_1  and  C_2
REMARK    2  A    between atoms: C_2  and  C_3
REMARK    3  A    between atoms: C_3  and  C_4
REMARK    4  A    between atoms: C_4  and  C_5
REMARK    5  A    between atoms: C_5  and  C_6
REMARK    6  A    between atoms: C_6  and  C_7
REMARK    7  A    between atoms: C_7  and  C_8
REMARK    8  A    between atoms: C_8  and  C_9
REMARK    9  A    between atoms: C_9  and  C_10
REMARK   10  A    between atoms: N_12  and  C_13
REMARK   11  A    between atoms: C_13  and  C_14
REMARK   12  A    between atoms: C_13  and  C_24
REMARK   13  A    between atoms: C_14  and  C_15
REMARK   14  A    between atoms: N_26  and  C_27
REMARK   15  A    between atoms: C_27  and  C_28
REMARK   16  A    between atoms: C_27  and  C_32
REMARK   17  A    between atoms: C_28  and  C_29
REMARK   18  A    between atoms: N_34  and  C_35
REMARK   19  A    between atoms: C_35  and  C_36
REMARK   20  A    between atoms: C_35  and  C_40
REMARK   21  A    between atoms: C_36  and  C_37
REMARK   22  A    between atoms: C_37  and  O_38
REMARK   23  A    between atoms: N_42  and  C_43
REMARK   24  A    between atoms: C_44  and  C_45
REMARK   25  A    between atoms: C_49  and  C_50
REMARK   26  A    between atoms: C_50  and  C_51
REMARK   27  A    between atoms: C_51  and  C_53
REMARK   28  A    between atoms: C_58  and  N_59
REMARK   29  A    between atoms: C_63  and  C_110
REMARK   30  A    between atoms: C_67  and  C_68
REMARK   31  A    between atoms: C_68  and  O_69
REMARK   32  A    between atoms: C_77  and  C_78
REMARK   33  A    between atoms: C_78  and  C_79
REMARK   34  A    between atoms: C_79  and  O_80
REMARK   35  A    between atoms: C_85  and  C_86
REMARK   36  A    between atoms: C_90  and  C_91
REMARK   37  A    between atoms: C_91  and  C_92
REMARK   38  A    between atoms: C_92  and  O_93
REMARK   39  A    between atoms: C_98  and  C_99
REMARK   40  A    between atoms: C_99  and  C_100
REMARK   41  A    between atoms: C_100  and  C_101
REMARK   42  A    between atoms: C_101  and  N_102
REMARK   43  A    between atoms: C_110  and  C_111
REMARK   44  A    between atoms: C_110  and  C_112
REMARK   45  A    between atoms: C_112  and  C_113
REMARK   46  A    between atoms: C_113  and  O_114
REMARK                            x       y       z     vdW  Elec       q    Type
REMARK                         _______ _______ _______ _____ _____    ______ ____
ROOT
ATOM      1  C   UNK     1      79.712  66.353 102.773  0.00  0.00    +0.000 C 
ATOM      2  C   UNK     1      79.448  67.701 102.072  0.00  0.00    +0.000 C 
ATOM      3  C   UNK     1      80.713  68.552 101.936  0.00  0.00    +0.000 C 
ATOM      4  O   UNK     1      78.524  68.454 102.807  0.00  0.00    +0.000 OA
ATOM      5  C   UNK     1      77.192  68.215 102.678  0.00  0.00    +0.000 C 
ATOM      6  O   UNK     1      76.696  67.370 101.968  0.00  0.00    +0.000 OA
ATOM      7  C   UNK     1      76.363  69.138 103.579  0.00  0.00    +0.000 C 
ATOM      8  N   UNK     1      75.006  69.195 103.014  0.00  0.00    +0.000 N 
ATOM      9  C   UNK     1      73.852  69.490 103.688  0.00  0.00    +0.000 C 
ATOM     10  O   UNK     1      72.812  69.598 103.088  0.00  0.00    +0.000 OA
ATOM     11  C   UNK     1      73.950  69.634 105.209  0.00  0.00    +0.000 C 
ATOM     12  N   UNK     1      72.916  70.506 105.792  0.00  0.00    +0.000 N 
ATOM     13  C   UNK     1      72.637  71.771 105.341  0.00  0.00    +0.000 C 
ATOM     14  O   UNK     1      73.177  72.286 104.390  0.00  0.00    +0.000 OA
ATOM     15  C   UNK     1      71.563  72.504 106.153  0.00  0.00    +0.000 C 
ATOM     16  N   UNK     1      71.265  73.772 105.480  0.00  0.00    +0.000 N 
ATOM     17  C   UNK     1      70.145  74.515 105.735  0.00  0.00    +0.000 C 
ATOM     18  O   UNK     1      69.324  74.198 106.560  0.00  0.00    +0.000 OA
ATOM     19  C   UNK     1      70.008  75.776 104.889  0.00  0.00    +0.000 C 
ATOM     20  N   UNK     1      70.365  75.496 103.497  0.00  0.00    +0.000 N 
ATOM     21  C   UNK     1      71.661  75.425 103.075  0.00  0.00    +0.000 C 
ATOM     22  O   UNK     1      72.609  75.703 103.765  0.00  0.00    +0.000 OA
ATOM     23  C   UNK     1      71.848  74.866 101.675  0.00  0.00    +0.000 C 
ATOM     24  N   UNK     1      72.805  73.766 101.826  0.00  0.00    +0.000 N 
ATOM     25  C   UNK     1      72.973  72.821 100.863  0.00  0.00    +0.000 C 
ATOM     26  O   UNK     1      72.222  72.696  99.928  0.00  0.00    +0.000 OA
ATOM     27  C   UNK     1      74.239  71.992 100.996  0.00  0.00    +0.000 C 
ATOM     28  C   UNK     1      75.470  72.911 100.952  0.00  0.00    +0.000 C 
ATOM     29  N   UNK     1      74.220  71.074  99.861  0.00  0.00    +0.000 N 
ATOM     30  C   UNK     1      75.103  70.057  99.681  0.00  0.00    +0.000 C 
ATOM     31  O   UNK     1      75.979  69.804 100.470  0.00  0.00    +0.000 OA
ATOM     32  C   UNK     1      74.899  69.296  98.374  0.00  0.00    +0.000 C 
ATOM     33  N   UNK     1      76.174  68.688  97.972  0.00  0.00    +0.000 N 
ATOM     34  C   UNK     1      76.554  67.450  98.410  0.00  0.00    +0.000 C 
ATOM     35  O   UNK     1      75.845  66.740  99.079  0.00  0.00    +0.000 OA
ATOM     36  C   UNK     1      77.953  67.019  97.985  0.00  0.00    +0.000 C 
ATOM     37  N   UNK     1      78.390  65.945  98.888  0.00  0.00    +0.000 N 
ATOM     38  C   UNK     1      79.672  65.832  99.351  0.00  0.00    +0.000 C 
ATOM     39  O   UNK     1      80.554  66.599  99.056  0.00  0.00    +0.000 OA
ATOM     40  C   UNK     1      79.910  64.657 100.286  0.00  0.00    +0.000 C 
ATOM     41  N   UNK     1      81.024  64.898 101.199  0.00  0.00    +0.000 N 
ATOM     42  C   UNK     1      81.005  65.634 102.352  0.00  0.00    +0.000 C 
ATOM     43  O   UNK     1      82.027  65.736 102.988  0.00  0.00    +0.000 OA
ATOM     44  H   UNK     1      74.917  69.020 102.012  0.00  0.00    +0.000 HD
ATOM     45  H   UNK     1      72.479  70.203 106.667  0.00  0.00    +0.000 HD
ATOM     46  H   UNK     1      71.961  74.097 104.807  0.00  0.00    +0.000 HD
ATOM     47  H   UNK     1      69.620  75.259 102.841  0.00  0.00    +0.000 HD
ATOM     48  H   UNK     1      73.384  73.745 102.671  0.00  0.00    +0.000 HD
ATOM     49  H   UNK     1      73.550  71.290  99.121  0.00  0.00    +0.000 HD
ATOM     50  H   UNK     1      76.833  69.275  97.456  0.00  0.00    +0.000 HD
ATOM     51  H   UNK     1      77.672  65.295  99.212  0.00  0.00    +0.000 HD
ATOM     52  H   UNK     1      81.937  64.515 100.961  0.00  0.00    +0.000 HD
ENDROOT
BRANCH   1  55
ATOM     53  C   UNK     1      78.318  64.497 103.672  0.00  0.00    +0.000 C 
ATOM     54  O   UNK     1      79.257  63.931 104.177  0.00  0.00    +0.000 OA
ATOM     55  N   UNK     1      78.473  65.555 102.818  0.00  0.00    +0.000 N 
ATOM     56  H   UNK     1      77.665  65.861 102.268  0.00  0.00    +0.000 HD
BRANCH  53  57
ATOM     57  C   UNK     1      76.867  64.150 104.027  0.00  0.00    +0.000 C 
BRANCH  57  60
ATOM     58  C   UNK     1      76.070  64.047 106.376  0.00  0.00    +0.000 C 
ATOM     59  O   UNK     1      75.221  64.885 106.199  0.00  0.00    +0.000 OA
ATOM     60  N   UNK     1      76.844  63.547 105.367  0.00  0.00    +0.000 N 
ATOM     61  H   UNK     1      77.543  62.842 105.595  0.00  0.00    +0.000 HD
BRANCH  58  62
ATOM     62  C   UNK     1      76.411  63.493 107.761  0.00  0.00    +0.000 C 
BRANCH  62  65
ATOM     63  C   UNK     1      74.537  63.489 109.392  0.00  0.00    +0.000 C 
ATOM     64  O   UNK     1      74.246  62.345 109.142  0.00  0.00    +0.000 OA
ATOM     65  N   UNK     1      75.592  64.127 108.801  0.00  0.00    +0.000 N 
ATOM     66  H   UNK     1      75.800  65.091 109.057  0.00  0.00    +0.000 HD
BRANCH  63  67
ATOM     67  C   UNK     1      73.751  64.336 110.393  0.00  0.00    +0.000 C 
BRANCH  67  70
ATOM     68  C   UNK     1      71.443  65.108 109.831  0.00  0.00    +0.000 C 
ATOM     69  O   UNK     1      70.934  64.414 110.674  0.00  0.00    +0.000 OA
ATOM     70  N   UNK     1      72.798  65.182 109.654  0.00  0.00    +0.000 N 
ATOM     71  H   UNK     1      73.155  65.746 108.882  0.00  0.00    +0.000 HD
BRANCH  68  72
ATOM     72  C   UNK     1      70.652  65.977 108.865  0.00  0.00    +0.000 C 
BRANCH  72  73
ATOM     73  C   UNK     1      70.954  65.693 107.384  0.00  0.00    +0.000 C 
BRANCH  73  74
ATOM     74  C   UNK     1      70.418  64.325 106.931  0.00  0.00    +0.000 C 
BRANCH  74  75
ATOM     75  C   UNK     1      71.560  63.337 106.641  0.00  0.00    +0.000 C 
BRANCH  75  76
ATOM     76  C   UNK     1      71.062  62.055 105.957  0.00  0.00    +0.000 C 
BRANCH  76  77
ATOM     77  C   UNK     1      70.003  62.355 104.883  0.00  0.00    +0.000 C 
BRANCH  77  78
ATOM     78  C   UNK     1      70.637  62.750 103.540  0.00  0.00    +0.000 C 
BRANCH  78  80
ATOM     79  C   UNK     1      70.494  62.557 101.006  0.00  0.00    +0.000 C 
ATOM     80  C   UNK     1      69.816  62.237 102.345  0.00  0.00    +0.000 C 
ENDBRANCH  78  80
ENDBRANCH  77  78
ENDBRANCH  76  77
ENDBRANCH  75  76
ENDBRANCH  74  75
ENDBRANCH  73  74
ENDBRANCH  72  73
ENDBRANCH  68  72
ENDBRANCH  67  70
BRANCH  67  81
ATOM     81  C   UNK     1      74.618  65.233 111.300  0.00  0.00    +0.000 C 
BRANCH  81  82
ATOM     82  C   UNK     1      75.010  64.590 112.598  0.00  0.00    +0.000 A 
ATOM     83  C   UNK     1      74.417  64.772 113.789  0.00  0.00    +0.000 A 
ATOM     84  N   UNK     1      75.049  64.106 114.664  0.00  0.00    +0.000 N 
ATOM     85  C   UNK     1      76.025  63.487 114.144  0.00  0.00    +0.000 A 
ATOM     86  C   UNK     1      76.034  63.756 112.832  0.00  0.00    +0.000 A 
ATOM     87  C   UNK     1      76.972  63.236 112.032  0.00  0.00    +0.000 A 
ATOM     88  C   UNK     1      77.900  62.436 112.586  0.00  0.00    +0.000 A 
ATOM     89  C   UNK     1      77.886  62.169 113.906  0.00  0.00    +0.000 A 
ATOM     90  C   UNK     1      76.944  62.693 114.706  0.00  0.00    +0.000 A 
ATOM     91  H   UNK     1      74.805  64.076 115.680  0.00  0.00    +0.000 HD
ENDBRANCH  81  82
ENDBRANCH  67  81
ENDBRANCH  63  67
ENDBRANCH  62  65
BRANCH  62  92
ATOM     92  C   UNK     1      77.897  63.779 108.068  0.00  0.00    +0.000 C 
BRANCH  92  93
ATOM     93  C   UNK     1      78.324  65.219 107.835  0.00  0.00    +0.000 C 
ATOM     94  N   UNK     1      79.426  65.373 107.056  0.00  0.00    +0.000 N 
ATOM     95  O   UNK     1      77.762  66.170 108.309  0.00  0.00    +0.000 OA
ATOM     96  H   UNK     1      79.773  66.309 106.908  0.00  0.00    +0.000 HD
ATOM     97  H   UNK     1      79.938  64.574 106.713  0.00  0.00    +0.000 HD
ENDBRANCH  92  93
ENDBRANCH  62  92
ENDBRANCH  58  62
ENDBRANCH  57  60
BRANCH  57  98
ATOM     98  C   UNK     1      76.125  63.238 103.037  0.00  0.00    +0.000 C 
BRANCH  98  99
ATOM     99  C   UNK     1      75.064  63.984 102.252  0.00  0.00    +0.000 C 
ATOM    100  O   UNK     1      73.894  63.699 102.263  0.00  0.00    +0.000 OA
BRANCH  99 101
ATOM    101  O   UNK     1      75.590  64.950 101.479  0.00  0.00    +0.000 OA
ATOM    102  H   UNK     1      75.037  65.746 101.525  0.00  0.00    +0.000 HD
ENDBRANCH  99 101
ENDBRANCH  98  99
ENDBRANCH  57  98
ENDBRANCH  53  57
ENDBRANCH   1  55
BRANCH  11 103
ATOM    103  C   UNK     1      73.870  68.221 105.838  0.00  0.00    +0.000 C 
ATOM    104  C   UNK     1      73.263  67.182 104.879  0.00  0.00    +0.000 C 
BRANCH 103 105
ATOM    105  C   UNK     1      73.152  68.242 107.198  0.00  0.00    +0.000 C 
BRANCH 105 106
ATOM    106  C   UNK     1      74.021  67.834 108.365  0.00  0.00    +0.000 C 
ATOM    107  O   UNK     1      73.837  68.136 109.519  0.00  0.00    +0.000 OA
BRANCH 106 108
ATOM    108  O   UNK     1      75.036  67.034 107.988  0.00  0.00    +0.000 OA
ATOM    109  H   UNK     1      74.666  66.219 107.608  0.00  0.00    +0.000 HD
ENDBRANCH 106 108
ENDBRANCH 105 106
ENDBRANCH 103 105
ENDBRANCH  11 103
BRANCH   7 110
ATOM    110  C   UNK     1      76.982  70.553 103.738  0.00  0.00    +0.000 C 
BRANCH 110 111
ATOM    111  C   UNK     1      77.655  70.867 105.082  0.00  0.00    +0.000 C 
ATOM    112  O   UNK     1      78.869  70.908 105.019  0.00  0.00    +0.000 OA
BRANCH 111 113
ATOM    113  C   UNK     1      76.980  71.098 106.254  0.00  0.00    +0.000 A 
ATOM    114  C   UNK     1      76.351  72.289 106.387  0.00  0.00    +0.000 A 
ATOM    115  C   UNK     1      75.645  72.623 107.478  0.00  0.00    +0.000 A 
ATOM    116  C   UNK     1      75.545  71.757 108.492  0.00  0.00    +0.000 A 
ATOM    117  C   UNK     1      76.165  70.574 108.392  0.00  0.00    +0.000 A 
ATOM    118  C   UNK     1      76.878  70.241 107.297  0.00  0.00    +0.000 A 
BRANCH 118 119
ATOM    119  N   UNK     1      77.407  69.092 107.402  0.00  0.00    +0.000 N 
ATOM    120  H   UNK     1      78.424  68.879 107.352  0.00  0.00    +0.000 HD
ATOM    121  H   UNK     1      76.795  68.258 107.575  0.00  0.00    +0.000 HD
ENDBRANCH 118 119
ENDBRANCH 111 113
ENDBRANCH 110 111
ENDBRANCH   7 110
BRANCH  15 122
ATOM    122  C   UNK     1      72.024  72.763 107.588  0.00  0.00    +0.000 C 
BRANCH 122 123
ATOM    123  O   UNK     1      71.852  71.601 108.372  0.00  0.00    +0.000 OA
ATOM    124  H   UNK     1      72.648  71.069 108.297  0.00  0.00    +0.000 HD
ENDBRANCH 122 123
ENDBRANCH  15 122
BRANCH  23 125
ATOM    125  C   UNK     1      72.382  75.924 100.686  0.00  0.00    +0.000 C 
BRANCH 125 126
ATOM    126  C   UNK     1      71.404  76.234  99.561  0.00  0.00    +0.000 C 
ATOM    127  O   UNK     1      70.278  75.804  99.474  0.00  0.00    +0.000 OA
BRANCH 126 128
ATOM    128  O   UNK     1      71.942  77.029  98.610  0.00  0.00    +0.000 OA
ATOM    129  H   UNK     1      72.699  76.577  98.203  0.00  0.00    +0.000 HD
ENDBRANCH 126 128
ENDBRANCH 125 126
ENDBRANCH  23 125
BRANCH  36 130
ATOM    130  C   UNK     1      77.927  66.561  96.517  0.00  0.00    +0.000 C 
BRANCH 130 131
ATOM    131  C   UNK     1      78.796  67.433  95.598  0.00  0.00    +0.000 C 
BRANCH 131 132
ATOM    132  C   UNK     1      78.120  67.694  94.245  0.00  0.00    +0.000 C 
BRANCH 132 133
ATOM    133  N   UNK     1      76.655  67.692  94.388  0.00  0.00    +0.000 NA
ATOM    134  H   UNK     1      76.219  67.151  93.621  0.00  0.00    +0.000 HD
ATOM    135  H   UNK     1      76.378  67.202  95.257  0.00  0.00    +0.000 HD
ENDBRANCH 132 133
ENDBRANCH 131 132
ENDBRANCH 130 131
ENDBRANCH  36 130
BRANCH  32 136
ATOM    136  C   UNK     1      74.376  70.204  97.240  0.00  0.00    +0.000 C 
BRANCH 136 137
ATOM    137  C   UNK     1      73.989  69.353  96.045  0.00  0.00    +0.000 C 
ATOM    138  O   UNK     1      74.082  68.149  96.017  0.00  0.00    +0.000 OA
BRANCH 137 139
ATOM    139  O   UNK     1      73.603  70.094  94.984  0.00  0.00    +0.000 OA
ATOM    140  H   UNK     1      73.203  70.924  95.289  0.00  0.00    +0.000 HD
ENDBRANCH 137 139
ENDBRANCH 136 137
ENDBRANCH  32 136
TORSDOF 42
ENDMDL
MODEL 5
REMARK VINA RESULT:      -6.4      3.017      9.166
REMARK  Name = ./1373.pdb
REMARK  46 active torsions:
REMARK  status: ('A' for Active; 'I' for Inactive)
REMARK    1  A    between atoms: C_1  and  C_2
REMARK    2  A    between atoms: C_2  and  C_3
REMARK    3  A    between atoms: C_3  and  C_4
REMARK    4  A    between atoms: C_4  and  C_5
REMARK    5  A    between atoms: C_5  and  C_6
REMARK    6  A    between atoms: C_6  and  C_7
REMARK    7  A    between atoms: C_7  and  C_8
REMARK    8  A    between atoms: C_8  and  C_9
REMARK    9  A    between atoms: C_9  and  C_10
REMARK   10  A    between atoms: N_12  and  C_13
REMARK   11  A    between atoms: C_13  and  C_14
REMARK   12  A    between atoms: C_13  and  C_24
REMARK   13  A    between atoms: C_14  and  C_15
REMARK   14  A    between atoms: N_26  and  C_27
REMARK   15  A    between atoms: C_27  and  C_28
REMARK   16  A    between atoms: C_27  and  C_32
REMARK   17  A    between atoms: C_28  and  C_29
REMARK   18  A    between atoms: N_34  and  C_35
REMARK   19  A    between atoms: C_35  and  C_36
REMARK   20  A    between atoms: C_35  and  C_40
REMARK   21  A    between atoms: C_36  and  C_37
REMARK   22  A    between atoms: C_37  and  O_38
REMARK   23  A    between atoms: N_42  and  C_43
REMARK   24  A    between atoms: C_44  and  C_45
REMARK   25  A    between atoms: C_49  and  C_50
REMARK   26  A    between atoms: C_50  and  C_51
REMARK   27  A    between atoms: C_51  and  C_53
REMARK   28  A    between atoms: C_58  and  N_59
REMARK   29  A    between atoms: C_63  and  C_110
REMARK   30  A    between atoms: C_67  and  C_68
REMARK   31  A    between atoms: C_68  and  O_69
REMARK   32  A    between atoms: C_77  and  C_78
REMARK   33  A    between atoms: C_78  and  C_79
REMARK   34  A    between atoms: C_79  and  O_80
REMARK   35  A    between atoms: C_85  and  C_86
REMARK   36  A    between atoms: C_90  and  C_91
REMARK   37  A    between atoms: C_91  and  C_92
REMARK   38  A    between atoms: C_92  and  O_93
REMARK   39  A    between atoms: C_98  and  C_99
REMARK   40  A    between atoms: C_99  and  C_100
REMARK   41  A    between atoms: C_100  and  C_101
REMARK   42  A    between atoms: C_101  and  N_102
REMARK   43  A    between atoms: C_110  and  C_111
REMARK   44  A    between atoms: C_110  and  C_112
REMARK   45  A    between atoms: C_112  and  C_113
REMARK   46  A    between atoms: C_113  and  O_114
REMARK                            x       y       z     vdW  Elec       q    Type
REMARK                         _______ _______ _______ _____ _____    ______ ____
ROOT
ATOM      1  C   UNK     1      77.868  69.143 104.999  0.00  0.00    +0.000 C 
ATOM      2  C   UNK     1      77.279  68.180 106.049  0.00  0.00    +0.000 C 
ATOM      3  C   UNK     1      78.085  68.162 107.350  0.00  0.00    +0.000 C 
ATOM      4  O   UNK     1      77.274  66.871 105.552  0.00  0.00    +0.000 OA
ATOM      5  C   UNK     1      76.276  66.458 104.727  0.00  0.00    +0.000 C 
ATOM      6  O   UNK     1      75.351  67.139 104.347  0.00  0.00    +0.000 OA
ATOM      7  C   UNK     1      76.471  65.000 104.290  0.00  0.00    +0.000 C 
ATOM      8  N   UNK     1      75.155  64.490 103.875  0.00  0.00    +0.000 N 
ATOM      9  C   UNK     1      74.915  63.457 103.010  0.00  0.00    +0.000 C 
ATOM     10  O   UNK     1      73.788  63.072 102.825  0.00  0.00    +0.000 OA
ATOM     11  C   UNK     1      76.124  62.859 102.285  0.00  0.00    +0.000 C 
ATOM     12  N   UNK     1      75.943  61.454 101.883  0.00  0.00    +0.000 N 
ATOM     13  C   UNK     1      75.522  60.462 102.732  0.00  0.00    +0.000 C 
ATOM     14  O   UNK     1      75.214  60.644 103.887  0.00  0.00    +0.000 OA
ATOM     15  C   UNK     1      75.473  59.069 102.096  0.00  0.00    +0.000 C 
ATOM     16  N   UNK     1      74.876  58.143 103.062  0.00  0.00    +0.000 N 
ATOM     17  C   UNK     1      74.382  56.913 102.722  0.00  0.00    +0.000 C 
ATOM     18  O   UNK     1      74.427  56.479 101.597  0.00  0.00    +0.000 OA
ATOM     19  C   UNK     1      73.763  56.131 103.875  0.00  0.00    +0.000 C 
ATOM     20  N   UNK     1      72.940  57.015 104.704  0.00  0.00    +0.000 N 
ATOM     21  C   UNK     1      73.479  57.851 105.639  0.00  0.00    +0.000 C 
ATOM     22  O   UNK     1      74.644  57.850 105.949  0.00  0.00    +0.000 OA
ATOM     23  C   UNK     1      72.516  58.877 106.211  0.00  0.00    +0.000 C 
ATOM     24  N   UNK     1      73.176  60.172 106.014  0.00  0.00    +0.000 N 
ATOM     25  C   UNK     1      72.495  61.346 106.097  0.00  0.00    +0.000 C 
ATOM     26  O   UNK     1      71.291  61.405 106.129  0.00  0.00    +0.000 OA
ATOM     27  C   UNK     1      73.368  62.580 106.249  0.00  0.00    +0.000 C 
ATOM     28  C   UNK     1      74.223  62.459 107.519  0.00  0.00    +0.000 C 
ATOM     29  N   UNK     1      72.437  63.701 106.339  0.00  0.00    +0.000 N 
ATOM     30  C   UNK     1      72.807  65.008 106.340  0.00  0.00    +0.000 C 
ATOM     31  O   UNK     1      73.954  65.363 106.238  0.00  0.00    +0.000 OA
ATOM     32  C   UNK     1      71.638  65.974 106.517  0.00  0.00    +0.000 C 
ATOM     33  N   UNK     1      72.135  67.221 107.109  0.00  0.00    +0.000 N 
ATOM     34  C   UNK     1      72.615  68.246 106.341  0.00  0.00    +0.000 C 
ATOM     35  O   UNK     1      72.586  68.236 105.135  0.00  0.00    +0.000 OA
ATOM     36  C   UNK     1      73.191  69.421 107.122  0.00  0.00    +0.000 C 
ATOM     37  N   UNK     1      74.068  70.180 106.218  0.00  0.00    +0.000 N 
ATOM     38  C   UNK     1      75.253  70.733 106.615  0.00  0.00    +0.000 C 
ATOM     39  O   UNK     1      75.679  70.652 107.740  0.00  0.00    +0.000 OA
ATOM     40  C   UNK     1      76.014  71.464 105.521  0.00  0.00    +0.000 C 
ATOM     41  N   UNK     1      77.451  71.496 105.777  0.00  0.00    +0.000 N 
ATOM     42  C   UNK     1      78.356  70.496 105.546  0.00  0.00    +0.000 C 
ATOM     43  O   UNK     1      79.514  70.691 105.826  0.00  0.00    +0.000 OA
ATOM     44  H   UNK     1      74.337  64.936 104.291  0.00  0.00    +0.000 HD
ATOM     45  H   UNK     1      76.280  61.179 100.957  0.00  0.00    +0.000 HD
ATOM     46  H   UNK     1      74.863  58.457 104.034  0.00  0.00    +0.000 HD
ATOM     47  H   UNK     1      71.939  57.070 104.514  0.00  0.00    +0.000 HD
ATOM     48  H   UNK     1      74.187  60.176 105.850  0.00  0.00    +0.000 HD
ATOM     49  H   UNK     1      71.458  63.459 106.509  0.00  0.00    +0.000 HD
ATOM     50  H   UNK     1      72.235  67.253 108.126  0.00  0.00    +0.000 HD
ATOM     51  H   UNK     1      73.781  70.236 105.239  0.00  0.00    +0.000 HD
ATOM     52  H   UNK     1      77.849  72.331 106.203  0.00  0.00    +0.000 HD
ENDROOT
BRANCH   1  55
ATOM     53  C   UNK     1      77.527  69.391 102.546  0.00  0.00    +0.000 C 
ATOM     54  O   UNK     1      78.596  69.925 102.371  0.00  0.00    +0.000 OA
ATOM     55  N   UNK     1      77.018  69.162 103.795  0.00  0.00    +0.000 N 
ATOM     56  H   UNK     1      76.032  68.897 103.879  0.00  0.00    +0.000 HD
BRANCH  53  57
ATOM     57  C   UNK     1      76.696  68.826 101.387  0.00  0.00    +0.000 C 
BRANCH  57  60
ATOM     58  C   UNK     1      77.494  67.782  99.280  0.00  0.00    +0.000 C 
ATOM     59  O   UNK     1      76.658  66.913  99.312  0.00  0.00    +0.000 OA
ATOM     60  N   UNK     1      77.529  68.813 100.176  0.00  0.00    +0.000 N 
ATOM     61  H   UNK     1      78.267  69.509 100.086  0.00  0.00    +0.000 HD
BRANCH  58  62
ATOM     62  C   UNK     1      78.639  67.794  98.266  0.00  0.00    +0.000 C 
BRANCH  62  65
ATOM     63  C   UNK     1      79.607  69.796  97.158  0.00  0.00    +0.000 C 
ATOM     64  O   UNK     1      80.700  69.599  97.628  0.00  0.00    +0.000 OA
ATOM     65  N   UNK     1      78.548  68.961  97.379  0.00  0.00    +0.000 N 
ATOM     66  H   UNK     1      77.648  69.170  96.949  0.00  0.00    +0.000 HD
BRANCH  63  67
ATOM     67  C   UNK     1      79.300  71.004  96.272  0.00  0.00    +0.000 C 
BRANCH  67  70
ATOM     68  C   UNK     1      77.613  72.386  97.490  0.00  0.00    +0.000 C 
ATOM     69  O   UNK     1      78.454  72.983  98.114  0.00  0.00    +0.000 OA
ATOM     70  N   UNK     1      77.923  71.451  96.539  0.00  0.00    +0.000 N 
ATOM     71  H   UNK     1      77.158  70.944  96.093  0.00  0.00    +0.000 HD
BRANCH  68  72
ATOM     72  C   UNK     1      76.118  72.589  97.684  0.00  0.00    +0.000 C 
BRANCH  72  73
ATOM     73  C   UNK     1      75.321  71.279  97.787  0.00  0.00    +0.000 C 
BRANCH  73  74
ATOM     74  C   UNK     1      73.835  71.471  97.442  0.00  0.00    +0.000 C 
BRANCH  74  75
ATOM     75  C   UNK     1      72.944  71.348  98.689  0.00  0.00    +0.000 C 
BRANCH  75  76
ATOM     76  C   UNK     1      72.208  70.001  98.749  0.00  0.00    +0.000 C 
BRANCH  76  77
ATOM     77  C   UNK     1      71.181  69.963  99.893  0.00  0.00    +0.000 C 
BRANCH  77  78
ATOM     78  C   UNK     1      71.323  71.166 100.840  0.00  0.00    +0.000 C 
BRANCH  78  80
ATOM     79  C   UNK     1      69.686  70.676 102.725  0.00  0.00    +0.000 C 
ATOM     80  C   UNK     1      71.162  70.760 102.313  0.00  0.00    +0.000 C 
ENDBRANCH  78  80
ENDBRANCH  77  78
ENDBRANCH  76  77
ENDBRANCH  75  76
ENDBRANCH  74  75
ENDBRANCH  73  74
ENDBRANCH  72  73
ENDBRANCH  68  72
ENDBRANCH  67  70
BRANCH  67  81
ATOM     81  C   UNK     1      79.460  70.751  94.759  0.00  0.00    +0.000 C 
BRANCH  81  82
ATOM     82  C   UNK     1      79.169  69.339  94.342  0.00  0.00    +0.000 A 
ATOM     83  C   UNK     1      77.961  68.756  94.290  0.00  0.00    +0.000 A 
ATOM     84  N   UNK     1      78.108  67.546  93.941  0.00  0.00    +0.000 N 
ATOM     85  C   UNK     1      79.331  67.274  93.752  0.00  0.00    +0.000 A 
ATOM     86  C   UNK     1      80.043  68.386  93.985  0.00  0.00    +0.000 A 
ATOM     87  C   UNK     1      81.375  68.384  93.869  0.00  0.00    +0.000 A 
ATOM     88  C   UNK     1      81.974  67.235  93.510  0.00  0.00    +0.000 A 
ATOM     89  C   UNK     1      81.255  66.121  93.277  0.00  0.00    +0.000 A 
ATOM     90  C   UNK     1      79.917  66.126  93.395  0.00  0.00    +0.000 A 
ATOM     91  H   UNK     1      77.327  66.859  93.831  0.00  0.00    +0.000 HD
ENDBRANCH  81  82
ENDBRANCH  67  81
ENDBRANCH  63  67
ENDBRANCH  62  65
BRANCH  62  92
ATOM     92  C   UNK     1      78.563  66.517  97.401  0.00  0.00    +0.000 C 
BRANCH  92  93
ATOM     93  C   UNK     1      79.908  65.872  97.109  0.00  0.00    +0.000 C 
ATOM     94  N   UNK     1      79.936  64.520  97.234  0.00  0.00    +0.000 N 
ATOM     95  O   UNK     1      80.897  66.488  96.811  0.00  0.00    +0.000 OA
ATOM     96  H   UNK     1      80.818  64.050  97.092  0.00  0.00    +0.000 HD
ATOM     97  H   UNK     1      79.125  64.007  97.549  0.00  0.00    +0.000 HD
ENDBRANCH  92  93
ENDBRANCH  62  92
ENDBRANCH  58  62
ENDBRANCH  57  60
BRANCH  57  98
ATOM     98  C   UNK     1      75.367  69.539 101.094  0.00  0.00    +0.000 C 
BRANCH  98  99
ATOM     99  C   UNK     1      74.771  70.179 102.332  0.00  0.00    +0.000 C 
ATOM    100  O   UNK     1      74.853  71.353 102.588  0.00  0.00    +0.000 OA
BRANCH  99 101
ATOM    101  O   UNK     1      74.210  69.273 103.151  0.00  0.00    +0.000 OA
ATOM    102  H   UNK     1      74.068  69.666 104.027  0.00  0.00    +0.000 HD
ENDBRANCH  99 101
ENDBRANCH  98  99
ENDBRANCH  57  98
ENDBRANCH  53  57
ENDBRANCH   1  55
BRANCH  11 103
ATOM    103  C   UNK     1      76.427  63.732 101.042  0.00  0.00    +0.000 C 
ATOM    104  C   UNK     1      75.463  63.453  99.876  0.00  0.00    +0.000 C 
BRANCH 103 105
ATOM    105  C   UNK     1      77.900  63.624 100.614  0.00  0.00    +0.000 C 
BRANCH 105 106
ATOM    106  C   UNK     1      78.749  64.811 101.005  0.00  0.00    +0.000 C 
ATOM    107  O   UNK     1      78.459  65.644 101.828  0.00  0.00    +0.000 OA
BRANCH 106 108
ATOM    108  O   UNK     1      79.929  64.828 100.355  0.00  0.00    +0.000 OA
ATOM    109  H   UNK     1      80.526  64.187 100.776  0.00  0.00    +0.000 HD
ENDBRANCH 106 108
ENDBRANCH 105 106
ENDBRANCH 103 105
ENDBRANCH  11 103
BRANCH   7 110
ATOM    110  C   UNK     1      77.112  64.114 105.392  0.00  0.00    +0.000 C 
BRANCH 110 111
ATOM    111  C   UNK     1      78.175  63.104 104.936  0.00  0.00    +0.000 C 
ATOM    112  O   UNK     1      77.823  61.945 105.050  0.00  0.00    +0.000 OA
BRANCH 111 113
ATOM    113  C   UNK     1      79.405  63.444 104.432  0.00  0.00    +0.000 A 
ATOM    114  C   UNK     1      79.954  64.605 104.859  0.00  0.00    +0.000 A 
ATOM    115  C   UNK     1      81.158  65.035 104.452  0.00  0.00    +0.000 A 
ATOM    116  C   UNK     1      81.864  64.303 103.584  0.00  0.00    +0.000 A 
ATOM    117  C   UNK     1      81.341  63.154 103.137  0.00  0.00    +0.000 A 
ATOM    118  C   UNK     1      80.129  62.724 103.544  0.00  0.00    +0.000 A 
BRANCH 118 119
ATOM    119  N   UNK     1      79.800  61.630 102.991  0.00  0.00    +0.000 N 
ATOM    120  H   UNK     1      80.375  60.763 102.958  0.00  0.00    +0.000 HD
ATOM    121  H   UNK     1      78.860  61.547 102.532  0.00  0.00    +0.000 HD
ENDBRANCH 118 119
ENDBRANCH 111 113
ENDBRANCH 110 111
ENDBRANCH   7 110
BRANCH  15 122
ATOM    122  C   UNK     1      76.868  58.586 101.694  0.00  0.00    +0.000 C 
BRANCH 122 123
ATOM    123  O   UNK     1      77.850  59.227 102.480  0.00  0.00    +0.000 OA
ATOM    124  H   UNK     1      77.733  58.950 103.392  0.00  0.00    +0.000 HD
ENDBRANCH 122 123
ENDBRANCH  15 122
BRANCH  23 125
ATOM    125  C   UNK     1      72.219  58.635 107.705  0.00  0.00    +0.000 C 
BRANCH 125 126
ATOM    126  C   UNK     1      73.304  59.182 108.624  0.00  0.00    +0.000 C 
ATOM    127  O   UNK     1      73.207  60.173 109.307  0.00  0.00    +0.000 OA
BRANCH 126 128
ATOM    128  O   UNK     1      74.443  58.456 108.572  0.00  0.00    +0.000 OA
ATOM    129  H   UNK     1      74.939  58.693 107.771  0.00  0.00    +0.000 HD
ENDBRANCH 126 128
ENDBRANCH 125 126
ENDBRANCH  23 125
BRANCH  36 130
ATOM    130  C   UNK     1      72.044  70.286 107.671  0.00  0.00    +0.000 C 
BRANCH 130 131
ATOM    131  C   UNK     1      71.277  71.036 106.571  0.00  0.00    +0.000 C 
BRANCH 131 132
ATOM    132  C   UNK     1      69.765  70.776 106.645  0.00  0.00    +0.000 C 
BRANCH 132 133
ATOM    133  N   UNK     1      69.485  69.332 106.596  0.00  0.00    +0.000 NA
ATOM    134  H   UNK     1      68.511  69.144 106.891  0.00  0.00    +0.000 HD
ATOM    135  H   UNK     1      69.546  68.984 105.623  0.00  0.00    +0.000 HD
ENDBRANCH 132 133
ENDBRANCH 131 132
ENDBRANCH 130 131
ENDBRANCH  36 130
BRANCH  32 136
ATOM    136  C   UNK     1      70.519  65.387 107.405  0.00  0.00    +0.000 C 
BRANCH 136 137
ATOM    137  C   UNK     1      70.446  66.160 108.707  0.00  0.00    +0.000 C 
ATOM    138  O   UNK     1      70.907  65.767 109.752  0.00  0.00    +0.000 OA
BRANCH 137 139
ATOM    139  O   UNK     1      69.736  67.304 108.592  0.00  0.00    +0.000 OA
ATOM    140  H   UNK     1      68.839  67.106 108.278  0.00  0.00    +0.000 HD
ENDBRANCH 137 139
ENDBRANCH 136 137
ENDBRANCH  32 136
TORSDOF 42
ENDMDL
MODEL 6
REMARK VINA RESULT:      -6.4      1.250      2.262
REMARK  Name = ./1373.pdb
REMARK  46 active torsions:
REMARK  status: ('A' for Active; 'I' for Inactive)
REMARK    1  A    between atoms: C_1  and  C_2
REMARK    2  A    between atoms: C_2  and  C_3
REMARK    3  A    between atoms: C_3  and  C_4
REMARK    4  A    between atoms: C_4  and  C_5
REMARK    5  A    between atoms: C_5  and  C_6
REMARK    6  A    between atoms: C_6  and  C_7
REMARK    7  A    between atoms: C_7  and  C_8
REMARK    8  A    between atoms: C_8  and  C_9
REMARK    9  A    between atoms: C_9  and  C_10
REMARK   10  A    between atoms: N_12  and  C_13
REMARK   11  A    between atoms: C_13  and  C_14
REMARK   12  A    between atoms: C_13  and  C_24
REMARK   13  A    between atoms: C_14  and  C_15
REMARK   14  A    between atoms: N_26  and  C_27
REMARK   15  A    between atoms: C_27  and  C_28
REMARK   16  A    between atoms: C_27  and  C_32
REMARK   17  A    between atoms: C_28  and  C_29
REMARK   18  A    between atoms: N_34  and  C_35
REMARK   19  A    between atoms: C_35  and  C_36
REMARK   20  A    between atoms: C_35  and  C_40
REMARK   21  A    between atoms: C_36  and  C_37
REMARK   22  A    between atoms: C_37  and  O_38
REMARK   23  A    between atoms: N_42  and  C_43
REMARK   24  A    between atoms: C_44  and  C_45
REMARK   25  A    between atoms: C_49  and  C_50
REMARK   26  A    between atoms: C_50  and  C_51
REMARK   27  A    between atoms: C_51  and  C_53
REMARK   28  A    between atoms: C_58  and  N_59
REMARK   29  A    between atoms: C_63  and  C_110
REMARK   30  A    between atoms: C_67  and  C_68
REMARK   31  A    between atoms: C_68  and  O_69
REMARK   32  A    between atoms: C_77  and  C_78
REMARK   33  A    between atoms: C_78  and  C_79
REMARK   34  A    between atoms: C_79  and  O_80
REMARK   35  A    between atoms: C_85  and  C_86
REMARK   36  A    between atoms: C_90  and  C_91
REMARK   37  A    between atoms: C_91  and  C_92
REMARK   38  A    between atoms: C_92  and  O_93
REMARK   39  A    between atoms: C_98  and  C_99
REMARK   40  A    between atoms: C_99  and  C_100
REMARK   41  A    between atoms: C_100  and  C_101
REMARK   42  A    between atoms: C_101  and  N_102
REMARK   43  A    between atoms: C_110  and  C_111
REMARK   44  A    between atoms: C_110  and  C_112
REMARK   45  A    between atoms: C_112  and  C_113
REMARK   46  A    between atoms: C_113  and  O_114
REMARK                            x       y       z     vdW  Elec       q    Type
REMARK                         _______ _______ _______ _____ _____    ______ ____
ROOT
ATOM      1  C   UNK     1      73.413  69.884 106.500  0.00  0.00    +0.000 C 
ATOM      2  C   UNK     1      73.086  69.085 105.221  0.00  0.00    +0.000 C 
ATOM      3  C   UNK     1      71.715  69.440 104.639  0.00  0.00    +0.000 C 
ATOM      4  O   UNK     1      73.071  67.713 105.501  0.00  0.00    +0.000 OA
ATOM      5  C   UNK     1      74.234  67.013 105.547  0.00  0.00    +0.000 C 
ATOM      6  O   UNK     1      75.340  67.475 105.376  0.00  0.00    +0.000 OA
ATOM      7  C   UNK     1      73.991  65.536 105.882  0.00  0.00    +0.000 C 
ATOM      8  N   UNK     1      75.160  64.783 105.403  0.00  0.00    +0.000 N 
ATOM      9  C   UNK     1      75.599  63.572 105.867  0.00  0.00    +0.000 C 
ATOM     10  O   UNK     1      76.518  63.012 105.325  0.00  0.00    +0.000 OA
ATOM     11  C   UNK     1      74.897  63.004 107.104  0.00  0.00    +0.000 C 
ATOM     12  N   UNK     1      74.948  61.535 107.196  0.00  0.00    +0.000 N 
ATOM     13  C   UNK     1      74.591  60.691 106.175  0.00  0.00    +0.000 C 
ATOM     14  O   UNK     1      74.240  61.062 105.080  0.00  0.00    +0.000 OA
ATOM     15  C   UNK     1      74.669  59.203 106.535  0.00  0.00    +0.000 C 
ATOM     16  N   UNK     1      74.404  58.423 105.322  0.00  0.00    +0.000 N 
ATOM     17  C   UNK     1      74.711  57.096 105.198  0.00  0.00    +0.000 C 
ATOM     18  O   UNK     1      75.200  56.451 106.092  0.00  0.00    +0.000 OA
ATOM     19  C   UNK     1      74.392  56.490 103.836  0.00  0.00    +0.000 C 
ATOM     20  N   UNK     1      74.791  57.408 102.766  0.00  0.00    +0.000 N 
ATOM     21  C   UNK     1      74.029  58.481 102.402  0.00  0.00    +0.000 C 
ATOM     22  O   UNK     1      72.924  58.697 102.831  0.00  0.00    +0.000 OA
ATOM     23  C   UNK     1      74.715  59.466 101.471  0.00  0.00    +0.000 C 
ATOM     24  N   UNK     1      74.588  60.769 102.131  0.00  0.00    +0.000 N 
ATOM     25  C   UNK     1      75.352  61.835 101.773  0.00  0.00    +0.000 C 
ATOM     26  O   UNK     1      76.313  61.740 101.050  0.00  0.00    +0.000 OA
ATOM     27  C   UNK     1      74.847  63.178 102.271  0.00  0.00    +0.000 C 
ATOM     28  C   UNK     1      73.430  63.433 101.735  0.00  0.00    +0.000 C 
ATOM     29  N   UNK     1      75.796  64.162 101.757  0.00  0.00    +0.000 N 
ATOM     30  C   UNK     1      75.793  65.478 102.090  0.00  0.00    +0.000 C 
ATOM     31  O   UNK     1      75.011  65.953 102.874  0.00  0.00    +0.000 OA
ATOM     32  C   UNK     1      76.850  66.297 101.352  0.00  0.00    +0.000 C 
ATOM     33  N   UNK     1      76.405  67.693 101.278  0.00  0.00    +0.000 N 
ATOM     34  C   UNK     1      76.677  68.593 102.270  0.00  0.00    +0.000 C 
ATOM     35  O   UNK     1      77.366  68.334 103.226  0.00  0.00    +0.000 OA
ATOM     36  C   UNK     1      76.047  69.969 102.082  0.00  0.00    +0.000 C 
ATOM     37  N   UNK     1      76.017  70.636 103.392  0.00  0.00    +0.000 N 
ATOM     38  C   UNK     1      74.971  71.411 103.813  0.00  0.00    +0.000 C 
ATOM     39  O   UNK     1      73.989  71.617 103.146  0.00  0.00    +0.000 OA
ATOM     40  C   UNK     1      75.133  71.997 105.206  0.00  0.00    +0.000 C 
ATOM     41  N   UNK     1      73.847  72.269 105.841  0.00  0.00    +0.000 N 
ATOM     42  C   UNK     1      73.024  71.372 106.464  0.00  0.00    +0.000 C 
ATOM     43  O   UNK     1      71.985  71.771 106.932  0.00  0.00    +0.000 OA
ATOM     44  H   UNK     1      75.687  65.192 104.630  0.00  0.00    +0.000 HD
ATOM     45  H   UNK     1      75.130  61.123 108.115  0.00  0.00    +0.000 HD
ATOM     46  H   UNK     1      73.947  58.924 104.559  0.00  0.00    +0.000 HD
ATOM     47  H   UNK     1      75.711  57.291 102.340  0.00  0.00    +0.000 HD
ATOM     48  H   UNK     1      73.869  60.873 102.854  0.00  0.00    +0.000 HD
ATOM     49  H   UNK     1      76.431  63.832 101.027  0.00  0.00    +0.000 HD
ATOM     50  H   UNK     1      75.768  67.944 100.518  0.00  0.00    +0.000 HD
ATOM     51  H   UNK     1      76.802  70.454 104.020  0.00  0.00    +0.000 HD
ATOM     52  H   UNK     1      73.480  73.219 105.804  0.00  0.00    +0.000 HD
ENDROOT
BRANCH   1  55
ATOM     53  C   UNK     1      75.060  69.419 108.307  0.00  0.00    +0.000 C 
ATOM     54  O   UNK     1      74.368  69.900 109.171  0.00  0.00    +0.000 OA
ATOM     55  N   UNK     1      74.766  69.544 106.977  0.00  0.00    +0.000 N 
ATOM     56  H   UNK     1      75.486  69.295 106.292  0.00  0.00    +0.000 HD
BRANCH  53  57
ATOM     57  C   UNK     1      76.269  68.532 108.629  0.00  0.00    +0.000 C 
BRANCH  57  60
ATOM     58  C   UNK     1      78.321  68.830 107.262  0.00  0.00    +0.000 C 
ATOM     59  O   UNK     1      78.955  69.277 108.184  0.00  0.00    +0.000 OA
ATOM     60  N   UNK     1      77.052  68.341 107.399  0.00  0.00    +0.000 N 
ATOM     61  H   UNK     1      76.578  67.981 106.573  0.00  0.00    +0.000 HD
BRANCH  58  62
ATOM     62  C   UNK     1      78.847  68.809 105.826  0.00  0.00    +0.000 C 
BRANCH  62  65
ATOM     63  C   UNK     1      79.138  66.375 105.425  0.00  0.00    +0.000 C 
ATOM     64  O   UNK     1      77.949  66.175 105.418  0.00  0.00    +0.000 OA
ATOM     65  N   UNK     1      79.675  67.622 105.582  0.00  0.00    +0.000 N 
ATOM     66  H   UNK     1      80.688  67.735 105.571  0.00  0.00    +0.000 HD
BRANCH  63  67
ATOM     67  C   UNK     1      80.160  65.249 105.264  0.00  0.00    +0.000 C 
BRANCH  67  70
ATOM     68  C   UNK     1      81.931  65.244 103.503  0.00  0.00    +0.000 C 
ATOM     69  O   UNK     1      82.827  65.204 104.308  0.00  0.00    +0.000 OA
ATOM     70  N   UNK     1      80.611  65.214 103.863  0.00  0.00    +0.000 N 
ATOM     71  H   UNK     1      79.908  65.310 103.129  0.00  0.00    +0.000 HD
BRANCH  68  72
ATOM     72  C   UNK     1      82.153  65.337 102.001  0.00  0.00    +0.000 C 
BRANCH  72  73
ATOM     73  C   UNK     1      81.810  64.045 101.240  0.00  0.00    +0.000 C 
BRANCH  73  74
ATOM     74  C   UNK     1      80.409  64.094 100.610  0.00  0.00    +0.000 C 
BRANCH  74  75
ATOM     75  C   UNK     1      79.681  62.746 100.745  0.00  0.00    +0.000 C 
BRANCH  75  76
ATOM     76  C   UNK     1      79.221  62.473 102.185  0.00  0.00    +0.000 C 
BRANCH  76  77
ATOM     77  C   UNK     1      79.430  61.003 102.583  0.00  0.00    +0.000 C 
BRANCH  77  78
ATOM     78  C   UNK     1      78.832  60.685 103.963  0.00  0.00    +0.000 C 
BRANCH  78  80
ATOM     79  C   UNK     1      77.934  58.351 104.435  0.00  0.00    +0.000 C 
ATOM     80  C   UNK     1      77.624  59.740 103.861  0.00  0.00    +0.000 C 
ENDBRANCH  78  80
ENDBRANCH  77  78
ENDBRANCH  76  77
ENDBRANCH  75  76
ENDBRANCH  74  75
ENDBRANCH  73  74
ENDBRANCH  72  73
ENDBRANCH  68  72
ENDBRANCH  67  70
BRANCH  67  81
ATOM     81  C   UNK     1      79.648  63.850 105.661  0.00  0.00    +0.000 C 
BRANCH  81  82
ATOM     82  C   UNK     1      80.620  63.055 106.483  0.00  0.00    +0.000 A 
ATOM     83  C   UNK     1      80.687  63.019 107.824  0.00  0.00    +0.000 A 
ATOM     84  N   UNK     1      81.660  62.279 108.162  0.00  0.00    +0.000 N 
ATOM     85  C   UNK     1      82.251  61.813 107.143  0.00  0.00    +0.000 A 
ATOM     86  C   UNK     1      81.619  62.270 106.053  0.00  0.00    +0.000 A 
ATOM     87  C   UNK     1      82.041  61.941 104.827  0.00  0.00    +0.000 A 
ATOM     88  C   UNK     1      83.114  61.137 104.725  0.00  0.00    +0.000 A 
ATOM     89  C   UNK     1      83.745  60.680 105.823  0.00  0.00    +0.000 A 
ATOM     90  C   UNK     1      83.320  61.014 107.053  0.00  0.00    +0.000 A 
ATOM     91  H   UNK     1      81.944  62.085 109.150  0.00  0.00    +0.000 HD
ENDBRANCH  81  82
ENDBRANCH  67  81
ENDBRANCH  63  67
ENDBRANCH  62  65
BRANCH  62  92
ATOM     92  C   UNK     1      79.713  70.065 105.586  0.00  0.00    +0.000 C 
BRANCH  92  93
ATOM     93  C   UNK     1      79.345  70.858 104.342  0.00  0.00    +0.000 C 
ATOM     94  N   UNK     1      79.798  70.336 103.173  0.00  0.00    +0.000 N 
ATOM     95  O   UNK     1      78.720  71.884 104.362  0.00  0.00    +0.000 OA
ATOM     96  H   UNK     1      79.615  70.849 102.323  0.00  0.00    +0.000 HD
ATOM     97  H   UNK     1      80.380  69.510 103.160  0.00  0.00    +0.000 HD
ENDBRANCH  92  93
ENDBRANCH  62  92
ENDBRANCH  58  62
ENDBRANCH  57  60
BRANCH  57  98
ATOM     98  C   UNK     1      75.961  67.166 109.262  0.00  0.00    +0.000 C 
BRANCH  98  99
ATOM     99  C   UNK     1      75.465  67.292 110.689  0.00  0.00    +0.000 C 
ATOM    100  O   UNK     1      74.658  66.551 111.189  0.00  0.00    +0.000 OA
BRANCH  99 101
ATOM    101  O   UNK     1      75.971  68.373 111.309  0.00  0.00    +0.000 OA
ATOM    102  H   UNK     1      76.938  68.376 111.229  0.00  0.00    +0.000 HD
ENDBRANCH  99 101
ENDBRANCH  98  99
ENDBRANCH  57  98
ENDBRANCH  53  57
ENDBRANCH   1  55
BRANCH  11 103
ATOM    103  C   UNK     1      75.540  63.637 108.363  0.00  0.00    +0.000 C 
ATOM    104  C   UNK     1      77.057  63.389 108.440  0.00  0.00    +0.000 C 
BRANCH 103 105
ATOM    105  C   UNK     1      74.818  63.207 109.650  0.00  0.00    +0.000 C 
BRANCH 105 106
ATOM    106  C   UNK     1      75.035  61.760 110.030  0.00  0.00    +0.000 C 
ATOM    107  O   UNK     1      74.179  60.912 110.090  0.00  0.00    +0.000 OA
BRANCH 106 108
ATOM    108  O   UNK     1      76.333  61.484 110.261  0.00  0.00    +0.000 OA
ATOM    109  H   UNK     1      76.440  60.520 110.321  0.00  0.00    +0.000 HD
ENDBRANCH 106 108
ENDBRANCH 105 106
ENDBRANCH 103 105
ENDBRANCH  11 103
BRANCH   7 110
ATOM    110  C   UNK     1      72.667  64.985 105.287  0.00  0.00    +0.000 C 
BRANCH 110 111
ATOM    111  C   UNK     1      71.580  64.566 106.287  0.00  0.00    +0.000 C 
ATOM    112  O   UNK     1      70.877  63.659 105.887  0.00  0.00    +0.000 OA
BRANCH 111 113
ATOM    113  C   UNK     1      71.403  65.133 107.524  0.00  0.00    +0.000 A 
ATOM    114  C   UNK     1      71.774  64.405 108.602  0.00  0.00    +0.000 A 
ATOM    115  C   UNK     1      71.666  64.858 109.860  0.00  0.00    +0.000 A 
ATOM    116  C   UNK     1      71.171  66.080 110.084  0.00  0.00    +0.000 A 
ATOM    117  C   UNK     1      70.786  66.820 109.036  0.00  0.00    +0.000 A 
ATOM    118  C   UNK     1      70.892  66.362 107.771  0.00  0.00    +0.000 A 
BRANCH 118 119
ATOM    119  N   UNK     1      70.455  67.198 106.923  0.00  0.00    +0.000 N 
ATOM    120  H   UNK     1      70.040  66.970 105.995  0.00  0.00    +0.000 HD
ATOM    121  H   UNK     1      70.479  68.222 107.149  0.00  0.00    +0.000 HD
ENDBRANCH 118 119
ENDBRANCH 111 113
ENDBRANCH 110 111
ENDBRANCH   7 110
BRANCH  15 122
ATOM    122  C   UNK     1      73.665  58.836 107.629  0.00  0.00    +0.000 C 
BRANCH 122 123
ATOM    123  O   UNK     1      74.329  58.219 108.712  0.00  0.00    +0.000 OA
ATOM    124  H   UNK     1      73.896  57.380 108.890  0.00  0.00    +0.000 HD
ENDBRANCH 122 123
ENDBRANCH  15 122
BRANCH  23 125
ATOM    125  C   UNK     1      74.071  59.496 100.069  0.00  0.00    +0.000 C 
BRANCH 125 126
ATOM    126  C   UNK     1      75.028  59.063  98.965  0.00  0.00    +0.000 C 
ATOM    127  O   UNK     1      74.825  58.174  98.173  0.00  0.00    +0.000 OA
BRANCH 126 128
ATOM    128  O   UNK     1      76.185  59.760  98.979  0.00  0.00    +0.000 OA
ATOM    129  H   UNK     1      75.989  60.711  98.972  0.00  0.00    +0.000 HD
ENDBRANCH 126 128
ENDBRANCH 125 126
ENDBRANCH  23 125
BRANCH  36 130
ATOM    130  C   UNK     1      76.857  70.769 101.048  0.00  0.00    +0.000 C 
BRANCH 130 131
ATOM    131  C   UNK     1      76.158  70.871  99.684  0.00  0.00    +0.000 C 
BRANCH 131 132
ATOM    132  C   UNK     1      74.645  70.632  99.794  0.00  0.00    +0.000 C 
BRANCH 132 133
ATOM    133  N   UNK     1      74.236  69.500  98.946  0.00  0.00    +0.000 NA
ATOM    134  H   UNK     1      75.016  68.828  98.843  0.00  0.00    +0.000 HD
ATOM    135  H   UNK     1      73.475  68.965  99.400  0.00  0.00    +0.000 HD
ENDBRANCH 132 133
ENDBRANCH 131 132
ENDBRANCH 130 131
ENDBRANCH  36 130
BRANCH  32 136
ATOM    136  C   UNK     1      77.122  65.761  99.930  0.00  0.00    +0.000 C 
BRANCH 136 137
ATOM    137  C   UNK     1      76.507  66.697  98.908  0.00  0.00    +0.000 C 
ATOM    138  O   UNK     1      75.351  66.648  98.558  0.00  0.00    +0.000 OA
BRANCH 137 139
ATOM    139  O   UNK     1      77.411  67.544  98.369  0.00  0.00    +0.000 OA
ATOM    140  H   UNK     1      77.260  68.443  98.702  0.00  0.00    +0.000 HD
ENDBRANCH 137 139
ENDBRANCH 136 137
ENDBRANCH  32 136
TORSDOF 42
ENDMDL
MODEL 7
REMARK VINA RESULT:      -6.4      3.119      6.866
REMARK  Name = ./1373.pdb
REMARK  46 active torsions:
REMARK  status: ('A' for Active; 'I' for Inactive)
REMARK    1  A    between atoms: C_1  and  C_2
REMARK    2  A    between atoms: C_2  and  C_3
REMARK    3  A    between atoms: C_3  and  C_4
REMARK    4  A    between atoms: C_4  and  C_5
REMARK    5  A    between atoms: C_5  and  C_6
REMARK    6  A    between atoms: C_6  and  C_7
REMARK    7  A    between atoms: C_7  and  C_8
REMARK    8  A    between atoms: C_8  and  C_9
REMARK    9  A    between atoms: C_9  and  C_10
REMARK   10  A    between atoms: N_12  and  C_13
REMARK   11  A    between atoms: C_13  and  C_14
REMARK   12  A    between atoms: C_13  and  C_24
REMARK   13  A    between atoms: C_14  and  C_15
REMARK   14  A    between atoms: N_26  and  C_27
REMARK   15  A    between atoms: C_27  and  C_28
REMARK   16  A    between atoms: C_27  and  C_32
REMARK   17  A    between atoms: C_28  and  C_29
REMARK   18  A    between atoms: N_34  and  C_35
REMARK   19  A    between atoms: C_35  and  C_36
REMARK   20  A    between atoms: C_35  and  C_40
REMARK   21  A    between atoms: C_36  and  C_37
REMARK   22  A    between atoms: C_37  and  O_38
REMARK   23  A    between atoms: N_42  and  C_43
REMARK   24  A    between atoms: C_44  and  C_45
REMARK   25  A    between atoms: C_49  and  C_50
REMARK   26  A    between atoms: C_50  and  C_51
REMARK   27  A    between atoms: C_51  and  C_53
REMARK   28  A    between atoms: C_58  and  N_59
REMARK   29  A    between atoms: C_63  and  C_110
REMARK   30  A    between atoms: C_67  and  C_68
REMARK   31  A    between atoms: C_68  and  O_69
REMARK   32  A    between atoms: C_77  and  C_78
REMARK   33  A    between atoms: C_78  and  C_79
REMARK   34  A    between atoms: C_79  and  O_80
REMARK   35  A    between atoms: C_85  and  C_86
REMARK   36  A    between atoms: C_90  and  C_91
REMARK   37  A    between atoms: C_91  and  C_92
REMARK   38  A    between atoms: C_92  and  O_93
REMARK   39  A    between atoms: C_98  and  C_99
REMARK   40  A    between atoms: C_99  and  C_100
REMARK   41  A    between atoms: C_100  and  C_101
REMARK   42  A    between atoms: C_101  and  N_102
REMARK   43  A    between atoms: C_110  and  C_111
REMARK   44  A    between atoms: C_110  and  C_112
REMARK   45  A    between atoms: C_112  and  C_113
REMARK   46  A    between atoms: C_113  and  O_114
REMARK                            x       y       z     vdW  Elec       q    Type
REMARK                         _______ _______ _______ _____ _____    ______ ____
ROOT
ATOM      1  C   UNK     1      75.693  70.363 104.275  0.00  0.00    +0.000 C 
ATOM      2  C   UNK     1      75.430  69.449 103.061  0.00  0.00    +0.000 C 
ATOM      3  C   UNK     1      74.195  69.871 102.261  0.00  0.00    +0.000 C 
ATOM      4  O   UNK     1      75.213  68.133 103.486  0.00  0.00    +0.000 OA
ATOM      5  C   UNK     1      76.267  67.324 103.769  0.00  0.00    +0.000 C 
ATOM      6  O   UNK     1      77.433  67.639 103.700  0.00  0.00    +0.000 OA
ATOM      7  C   UNK     1      75.806  65.935 104.229  0.00  0.00    +0.000 C 
ATOM      8  N   UNK     1      76.924  65.007 104.001  0.00  0.00    +0.000 N 
ATOM      9  C   UNK     1      77.151  63.825 104.653  0.00  0.00    +0.000 C 
ATOM     10  O   UNK     1      78.055  63.106 104.307  0.00  0.00    +0.000 OA
ATOM     11  C   UNK     1      76.239  63.496 105.838  0.00  0.00    +0.000 C 
ATOM     12  N   UNK     1      76.098  62.053 106.099  0.00  0.00    +0.000 N 
ATOM     13  C   UNK     1      75.769  61.130 105.140  0.00  0.00    +0.000 C 
ATOM     14  O   UNK     1      75.603  61.395 103.972  0.00  0.00    +0.000 OA
ATOM     15  C   UNK     1      75.619  59.700 105.670  0.00  0.00    +0.000 C 
ATOM     16  N   UNK     1      75.412  58.806 104.527  0.00  0.00    +0.000 N 
ATOM     17  C   UNK     1      75.567  57.448 104.594  0.00  0.00    +0.000 C 
ATOM     18  O   UNK     1      75.860  56.873 105.613  0.00  0.00    +0.000 OA
ATOM     19  C   UNK     1      75.346  56.713 103.277  0.00  0.00    +0.000 C 
ATOM     20  N   UNK     1      75.982  57.440 102.176  0.00  0.00    +0.000 N 
ATOM     21  C   UNK     1      75.408  58.534 101.594  0.00  0.00    +0.000 C 
ATOM     22  O   UNK     1      74.293  58.919 101.841  0.00  0.00    +0.000 OA
ATOM     23  C   UNK     1      76.319  59.314 100.662  0.00  0.00    +0.000 C 
ATOM     24  N   UNK     1      76.271  60.696 101.150  0.00  0.00    +0.000 N 
ATOM     25  C   UNK     1      77.199  61.621 100.783  0.00  0.00    +0.000 C 
ATOM     26  O   UNK     1      78.222  61.333 100.213  0.00  0.00    +0.000 OA
ATOM     27  C   UNK     1      76.804  63.062 101.055  0.00  0.00    +0.000 C 
ATOM     28  C   UNK     1      75.506  63.397 100.305  0.00  0.00    +0.000 C 
ATOM     29  N   UNK     1      77.922  63.866 100.568  0.00  0.00    +0.000 N 
ATOM     30  C   UNK     1      78.040  65.207 100.750  0.00  0.00    +0.000 C 
ATOM     31  O   UNK     1      77.231  65.858 101.362  0.00  0.00    +0.000 OA
ATOM     32  C   UNK     1      79.271  65.808 100.077  0.00  0.00    +0.000 C 
ATOM     33  N   UNK     1      79.012  67.224  99.787  0.00  0.00    +0.000 N 
ATOM     34  C   UNK     1      79.269  68.208 100.701  0.00  0.00    +0.000 C 
ATOM     35  O   UNK     1      79.798  67.999 101.764  0.00  0.00    +0.000 OA
ATOM     36  C   UNK     1      78.840  69.608 100.277  0.00  0.00    +0.000 C 
ATOM     37  N   UNK     1      78.731  70.435 101.487  0.00  0.00    +0.000 N 
ATOM     38  C   UNK     1      77.744  71.363 101.673  0.00  0.00    +0.000 C 
ATOM     39  O   UNK     1      76.884  71.587 100.859  0.00  0.00    +0.000 OA
ATOM     40  C   UNK     1      77.804  72.100 103.001  0.00  0.00    +0.000 C 
ATOM     41  N   UNK     1      76.493  72.586 103.420  0.00  0.00    +0.000 N 
ATOM     42  C   UNK     1      75.496  71.868 104.021  0.00  0.00    +0.000 C 
ATOM     43  O   UNK     1      74.463  72.431 104.295  0.00  0.00    +0.000 OA
ATOM     44  H   UNK     1      77.588  65.257 103.267  0.00  0.00    +0.000 HD
ATOM     45  H   UNK     1      76.114  61.744 107.075  0.00  0.00    +0.000 HD
ATOM     46  H   UNK     1      75.116  59.252 103.657  0.00  0.00    +0.000 HD
ATOM     47  H   UNK     1      76.926  57.173 101.896  0.00  0.00    +0.000 HD
ATOM     48  H   UNK     1      75.488  60.967 101.751  0.00  0.00    +0.000 HD
ATOM     49  H   UNK     1      78.597  63.381  99.974  0.00  0.00    +0.000 HD
ATOM     50  H   UNK     1      78.510  67.443  98.924  0.00  0.00    +0.000 HD
ATOM     51  H   UNK     1      79.404  70.250 102.233  0.00  0.00    +0.000 HD
ATOM     52  H   UNK     1      76.252  73.557 103.228  0.00  0.00    +0.000 HD
ENDROOT
BRANCH   1  55
ATOM     53  C   UNK     1      77.350  70.540 106.122  0.00  0.00    +0.000 C 
ATOM     54  O   UNK     1      76.973  71.634 106.463  0.00  0.00    +0.000 OA
ATOM     55  N   UNK     1      76.925  69.944 104.967  0.00  0.00    +0.000 N 
ATOM     56  H   UNK     1      77.427  69.117 104.630  0.00  0.00    +0.000 HD
BRANCH  53  57
ATOM     57  C   UNK     1      78.255  69.675 107.009  0.00  0.00    +0.000 C 
BRANCH  57  60
ATOM     58  C   UNK     1      76.704  68.578 108.608  0.00  0.00    +0.000 C 
ATOM     59  O   UNK     1      76.474  67.658 107.864  0.00  0.00    +0.000 OA
ATOM     60  N   UNK     1      77.629  69.546 108.333  0.00  0.00    +0.000 N 
ATOM     61  H   UNK     1      77.766  70.293 109.011  0.00  0.00    +0.000 HD
BRANCH  58  62
ATOM     62  C   UNK     1      75.944  68.794 109.918  0.00  0.00    +0.000 C 
BRANCH  62  65
ATOM     63  C   UNK     1      74.477  67.419 111.378  0.00  0.00    +0.000 C 
ATOM     64  O   UNK     1      74.795  68.027 112.369  0.00  0.00    +0.000 OA
ATOM     65  N   UNK     1      74.952  67.734 110.135  0.00  0.00    +0.000 N 
ATOM     66  H   UNK     1      74.642  67.192 109.330  0.00  0.00    +0.000 HD
BRANCH  63  67
ATOM     67  C   UNK     1      73.514  66.232 111.417  0.00  0.00    +0.000 C 
BRANCH  67  70
ATOM     68  C   UNK     1      71.458  65.656 110.121  0.00  0.00    +0.000 C 
ATOM     69  O   UNK     1      71.611  64.471 110.276  0.00  0.00    +0.000 OA
ATOM     70  N   UNK     1      72.291  66.589 110.678  0.00  0.00    +0.000 N 
ATOM     71  H   UNK     1      72.134  67.572 110.455  0.00  0.00    +0.000 HD
BRANCH  68  72
ATOM     72  C   UNK     1      70.334  66.259 109.291  0.00  0.00    +0.000 C 
BRANCH  72  73
ATOM     73  C   UNK     1      70.716  67.571 108.587  0.00  0.00    +0.000 C 
BRANCH  73  74
ATOM     74  C   UNK     1      70.637  67.457 107.056  0.00  0.00    +0.000 C 
BRANCH  74  75
ATOM     75  C   UNK     1      70.825  68.824 106.377  0.00  0.00    +0.000 C 
BRANCH  75  76
ATOM     76  C   UNK     1      69.931  69.910 106.996  0.00  0.00    +0.000 C 
BRANCH  76  77
ATOM     77  C   UNK     1      68.695  70.196 106.128  0.00  0.00    +0.000 C 
BRANCH  77  78
ATOM     78  C   UNK     1      68.841  71.497 105.322  0.00  0.00    +0.000 C 
BRANCH  78  80
ATOM     79  C   UNK     1      69.601  70.552 103.085  0.00  0.00    +0.000 C 
ATOM     80  C   UNK     1      68.491  71.295 103.839  0.00  0.00    +0.000 C 
ENDBRANCH  78  80
ENDBRANCH  77  78
ENDBRANCH  76  77
ENDBRANCH  75  76
ENDBRANCH  74  75
ENDBRANCH  73  74
ENDBRANCH  72  73
ENDBRANCH  68  72
ENDBRANCH  67  70
BRANCH  67  81
ATOM     81  C   UNK     1      73.124  65.764 112.834  0.00  0.00    +0.000 C 
BRANCH  81  82
ATOM     82  C   UNK     1      74.202  64.997 113.541  0.00  0.00    +0.000 A 
ATOM     83  C   UNK     1      74.706  65.266 114.756  0.00  0.00    +0.000 A 
ATOM     84  N   UNK     1      75.633  64.436 115.005  0.00  0.00    +0.000 N 
ATOM     85  C   UNK     1      75.786  63.626 114.043  0.00  0.00    +0.000 A 
ATOM     86  C   UNK     1      74.893  63.937 113.094  0.00  0.00    +0.000 A 
ATOM     87  C   UNK     1      74.836  63.243 111.952  0.00  0.00    +0.000 A 
ATOM     88  C   UNK     1      75.702  62.227 111.789  0.00  0.00    +0.000 A 
ATOM     89  C   UNK     1      76.598  61.918 112.746  0.00  0.00    +0.000 A 
ATOM     90  C   UNK     1      76.652  62.618 113.891  0.00  0.00    +0.000 A 
ATOM     91  H   UNK     1      76.201  64.426 115.883  0.00  0.00    +0.000 HD
ENDBRANCH  81  82
ENDBRANCH  67  81
ENDBRANCH  63  67
ENDBRANCH  62  65
BRANCH  62  92
ATOM     92  C   UNK     1      75.205  70.148 109.858  0.00  0.00    +0.000 C 
BRANCH  92  93
ATOM     93  C   UNK     1      74.228  70.283 108.701  0.00  0.00    +0.000 C 
ATOM     94  N   UNK     1      74.370  71.410 107.956  0.00  0.00    +0.000 N 
ATOM     95  O   UNK     1      73.368  69.480 108.453  0.00  0.00    +0.000 OA
ATOM     96  H   UNK     1      73.716  71.564 107.203  0.00  0.00    +0.000 HD
ATOM     97  H   UNK     1      75.047  72.117 108.204  0.00  0.00    +0.000 HD
ENDBRANCH  92  93
ENDBRANCH  62  92
ENDBRANCH  58  62
ENDBRANCH  57  60
BRANCH  57  98
ATOM     98  C   UNK     1      79.707  70.153 107.168  0.00  0.00    +0.000 C 
BRANCH  98  99
ATOM     99  C   UNK     1      79.918  70.936 108.449  0.00  0.00    +0.000 C 
ATOM    100  O   UNK     1      80.432  70.480 109.439  0.00  0.00    +0.000 OA
BRANCH  99 101
ATOM    101  O   UNK     1      79.395  72.172 108.381  0.00  0.00    +0.000 OA
ATOM    102  H   UNK     1      80.071  72.800 108.082  0.00  0.00    +0.000 HD
ENDBRANCH  99 101
ENDBRANCH  98  99
ENDBRANCH  57  98
ENDBRANCH  53  57
ENDBRANCH   1  55
BRANCH  11 103
ATOM    103  C   UNK     1      76.795  64.211 107.095  0.00  0.00    +0.000 C 
ATOM    104  C   UNK     1      78.307  63.994 107.276  0.00  0.00    +0.000 C 
BRANCH 103 105
ATOM    105  C   UNK     1      76.002  63.842 108.359  0.00  0.00    +0.000 C 
BRANCH 105 106
ATOM    106  C   UNK     1      74.559  64.290 108.340  0.00  0.00    +0.000 C 
ATOM    107  O   UNK     1      74.173  65.413 108.124  0.00  0.00    +0.000 OA
BRANCH 106 108
ATOM    108  O   UNK     1      73.706  63.269 108.551  0.00  0.00    +0.000 OA
ATOM    109  H   UNK     1      73.022  63.287 107.861  0.00  0.00    +0.000 HD
ENDBRANCH 106 108
ENDBRANCH 105 106
ENDBRANCH 103 105
ENDBRANCH  11 103
BRANCH   7 110
ATOM    110  C   UNK     1      74.508  65.458 103.524  0.00  0.00    +0.000 C 
BRANCH 110 111
ATOM    111  C   UNK     1      73.299  65.165 104.424  0.00  0.00    +0.000 C 
ATOM    112  O   UNK     1      72.989  66.098 105.140  0.00  0.00    +0.000 OA
BRANCH 111 113
ATOM    113  C   UNK     1      72.606  63.981 104.433  0.00  0.00    +0.000 A 
ATOM    114  C   UNK     1      72.678  63.208 103.325  0.00  0.00    +0.000 A 
ATOM    115  C   UNK     1      72.059  62.022 103.221  0.00  0.00    +0.000 A 
ATOM    116  C   UNK     1      71.332  61.563 104.245  0.00  0.00    +0.000 A 
ATOM    117  C   UNK     1      71.235  62.312 105.351  0.00  0.00    +0.000 A 
ATOM    118  C   UNK     1      71.854  63.505 105.454  0.00  0.00    +0.000 A 
BRANCH 118 119
ATOM    119  N   UNK     1      71.623  64.070 106.566  0.00  0.00    +0.000 N 
ATOM    120  H   UNK     1      70.924  64.822 106.738  0.00  0.00    +0.000 HD
ATOM    121  H   UNK     1      72.153  63.764 107.419  0.00  0.00    +0.000 HD
ENDBRANCH 118 119
ENDBRANCH 111 113
ENDBRANCH 110 111
ENDBRANCH   7 110
BRANCH  15 122
ATOM    122  C   UNK     1      74.451  59.584 106.651  0.00  0.00    +0.000 C 
BRANCH 122 123
ATOM    123  O   UNK     1      74.926  59.628 107.980  0.00  0.00    +0.000 OA
ATOM    124  H   UNK     1      74.195  59.418 108.567  0.00  0.00    +0.000 HD
ENDBRANCH 122 123
ENDBRANCH  15 122
BRANCH  23 125
ATOM    125  C   UNK     1      75.860  59.236  99.191  0.00  0.00    +0.000 C 
BRANCH 125 126
ATOM    126  C   UNK     1      76.585  58.156  98.399  0.00  0.00    +0.000 C 
ATOM    127  O   UNK     1      77.044  58.291  97.289  0.00  0.00    +0.000 OA
BRANCH 126 128
ATOM    128  O   UNK     1      76.633  56.975  99.054  0.00  0.00    +0.000 OA
ATOM    129  H   UNK     1      77.560  56.710  99.173  0.00  0.00    +0.000 HD
ENDBRANCH 126 128
ENDBRANCH 125 126
ENDBRANCH  23 125
BRANCH  36 130
ATOM    130  C   UNK     1      79.863  70.180  99.281  0.00  0.00    +0.000 C 
BRANCH 130 131
ATOM    131  C   UNK     1      79.207  70.836  98.055  0.00  0.00    +0.000 C 
BRANCH 131 132
ATOM    132  C   UNK     1      79.317  69.954  96.803  0.00  0.00    +0.000 C 
BRANCH 132 133
ATOM    133  N   UNK     1      78.175  69.031  96.718  0.00  0.00    +0.000 NA
ATOM    134  H   UNK     1      77.287  69.560  96.673  0.00  0.00    +0.000 HD
ATOM    135  H   UNK     1      78.213  68.489  95.837  0.00  0.00    +0.000 HD
ENDBRANCH 132 133
ENDBRANCH 131 132
ENDBRANCH 130 131
ENDBRANCH  36 130
BRANCH  32 136
ATOM    136  C   UNK     1      79.648  65.071  98.774  0.00  0.00    +0.000 C 
BRANCH 136 137
ATOM    137  C   UNK     1      79.195  65.888  97.578  0.00  0.00    +0.000 C 
ATOM    138  O   UNK     1      78.063  65.895  97.157  0.00  0.00    +0.000 OA
BRANCH 137 139
ATOM    139  O   UNK     1      80.214  66.547  96.985  0.00  0.00    +0.000 OA
ATOM    140  H   UNK     1      80.660  67.117  97.631  0.00  0.00    +0.000 HD
ENDBRANCH 137 139
ENDBRANCH 136 137
ENDBRANCH  32 136
TORSDOF 42
ENDMDL
MODEL 8
REMARK VINA RESULT:      -6.3      3.891     11.701
REMARK  Name = ./1373.pdb
REMARK  46 active torsions:
REMARK  status: ('A' for Active; 'I' for Inactive)
REMARK    1  A    between atoms: C_1  and  C_2
REMARK    2  A    between atoms: C_2  and  C_3
REMARK    3  A    between atoms: C_3  and  C_4
REMARK    4  A    between atoms: C_4  and  C_5
REMARK    5  A    between atoms: C_5  and  C_6
REMARK    6  A    between atoms: C_6  and  C_7
REMARK    7  A    between atoms: C_7  and  C_8
REMARK    8  A    between atoms: C_8  and  C_9
REMARK    9  A    between atoms: C_9  and  C_10
REMARK   10  A    between atoms: N_12  and  C_13
REMARK   11  A    between atoms: C_13  and  C_14
REMARK   12  A    between atoms: C_13  and  C_24
REMARK   13  A    between atoms: C_14  and  C_15
REMARK   14  A    between atoms: N_26  and  C_27
REMARK   15  A    between atoms: C_27  and  C_28
REMARK   16  A    between atoms: C_27  and  C_32
REMARK   17  A    between atoms: C_28  and  C_29
REMARK   18  A    between atoms: N_34  and  C_35
REMARK   19  A    between atoms: C_35  and  C_36
REMARK   20  A    between atoms: C_35  and  C_40
REMARK   21  A    between atoms: C_36  and  C_37
REMARK   22  A    between atoms: C_37  and  O_38
REMARK   23  A    between atoms: N_42  and  C_43
REMARK   24  A    between atoms: C_44  and  C_45
REMARK   25  A    between atoms: C_49  and  C_50
REMARK   26  A    between atoms: C_50  and  C_51
REMARK   27  A    between atoms: C_51  and  C_53
REMARK   28  A    between atoms: C_58  and  N_59
REMARK   29  A    between atoms: C_63  and  C_110
REMARK   30  A    between atoms: C_67  and  C_68
REMARK   31  A    between atoms: C_68  and  O_69
REMARK   32  A    between atoms: C_77  and  C_78
REMARK   33  A    between atoms: C_78  and  C_79
REMARK   34  A    between atoms: C_79  and  O_80
REMARK   35  A    between atoms: C_85  and  C_86
REMARK   36  A    between atoms: C_90  and  C_91
REMARK   37  A    between atoms: C_91  and  C_92
REMARK   38  A    between atoms: C_92  and  O_93
REMARK   39  A    between atoms: C_98  and  C_99
REMARK   40  A    between atoms: C_99  and  C_100
REMARK   41  A    between atoms: C_100  and  C_101
REMARK   42  A    between atoms: C_101  and  N_102
REMARK   43  A    between atoms: C_110  and  C_111
REMARK   44  A    between atoms: C_110  and  C_112
REMARK   45  A    between atoms: C_112  and  C_113
REMARK   46  A    between atoms: C_113  and  O_114
REMARK                            x       y       z     vdW  Elec       q    Type
REMARK                         _______ _______ _______ _____ _____    ______ ____
ROOT
ATOM      1  C   UNK     1      72.954  60.463 106.995  0.00  0.00    +0.000 C 
ATOM      2  C   UNK     1      74.436  60.892 106.997  0.00  0.00    +0.000 C 
ATOM      3  C   UNK     1      75.292  60.046 107.943  0.00  0.00    +0.000 C 
ATOM      4  O   UNK     1      74.553  62.222 107.419  0.00  0.00    +0.000 OA
ATOM      5  C   UNK     1      74.341  63.237 106.540  0.00  0.00    +0.000 C 
ATOM      6  O   UNK     1      74.036  63.107 105.376  0.00  0.00    +0.000 OA
ATOM      7  C   UNK     1      74.505  64.607 107.210  0.00  0.00    +0.000 C 
ATOM      8  N   UNK     1      74.787  65.582 106.145  0.00  0.00    +0.000 N 
ATOM      9  C   UNK     1      74.552  66.930 106.187  0.00  0.00    +0.000 C 
ATOM     10  O   UNK     1      74.916  67.637 105.282  0.00  0.00    +0.000 OA
ATOM     11  C   UNK     1      73.788  67.466 107.402  0.00  0.00    +0.000 C 
ATOM     12  N   UNK     1      74.082  68.875 107.715  0.00  0.00    +0.000 N 
ATOM     13  C   UNK     1      75.349  69.382 107.850  0.00  0.00    +0.000 C 
ATOM     14  O   UNK     1      76.358  68.738 107.682  0.00  0.00    +0.000 OA
ATOM     15  C   UNK     1      75.395  70.863 108.241  0.00  0.00    +0.000 C 
ATOM     16  N   UNK     1      76.793  71.304 108.208  0.00  0.00    +0.000 N 
ATOM     17  C   UNK     1      77.167  72.619 108.179  0.00  0.00    +0.000 C 
ATOM     18  O   UNK     1      76.373  73.526 108.209  0.00  0.00    +0.000 OA
ATOM     19  C   UNK     1      78.672  72.854 108.101  0.00  0.00    +0.000 C 
ATOM     20  N   UNK     1      79.282  71.928 107.145  0.00  0.00    +0.000 N 
ATOM     21  C   UNK     1      79.560  70.629 107.461  0.00  0.00    +0.000 C 
ATOM     22  O   UNK     1      79.449  70.169 108.569  0.00  0.00    +0.000 OA
ATOM     23  C   UNK     1      79.937  69.750 106.281  0.00  0.00    +0.000 C 
ATOM     24  N   UNK     1      79.025  68.605 106.350  0.00  0.00    +0.000 N 
ATOM     25  C   UNK     1      78.833  67.773 105.291  0.00  0.00    +0.000 C 
ATOM     26  O   UNK     1      79.225  68.025 104.179  0.00  0.00    +0.000 OA
ATOM     27  C   UNK     1      78.173  66.448 105.633  0.00  0.00    +0.000 C 
ATOM     28  C   UNK     1      79.028  65.689 106.659  0.00  0.00    +0.000 C 
ATOM     29  N   UNK     1      78.090  65.722 104.369  0.00  0.00    +0.000 N 
ATOM     30  C   UNK     1      77.433  64.544 104.202  0.00  0.00    +0.000 C 
ATOM     31  O   UNK     1      76.830  64.000 105.092  0.00  0.00    +0.000 OA
ATOM     32  C   UNK     1      77.565  63.966 102.795  0.00  0.00    +0.000 C 
ATOM     33  N   UNK     1      77.396  62.510 102.860  0.00  0.00    +0.000 N 
ATOM     34  C   UNK     1      76.165  61.920 102.779  0.00  0.00    +0.000 C 
ATOM     35  O   UNK     1      75.151  62.537 102.565  0.00  0.00    +0.000 OA
ATOM     36  C   UNK     1      76.162  60.408 102.974  0.00  0.00    +0.000 C 
ATOM     37  N   UNK     1      74.796  60.001 103.335  0.00  0.00    +0.000 N 
ATOM     38  C   UNK     1      74.524  59.033 104.262  0.00  0.00    +0.000 C 
ATOM     39  O   UNK     1      75.379  58.428 104.859  0.00  0.00    +0.000 OA
ATOM     40  C   UNK     1      73.045  58.775 104.497  0.00  0.00    +0.000 C 
ATOM     41  N   UNK     1      72.785  58.242 105.832  0.00  0.00    +0.000 N 
ATOM     42  C   UNK     1      72.708  58.944 107.003  0.00  0.00    +0.000 C 
ATOM     43  O   UNK     1      72.491  58.339 108.026  0.00  0.00    +0.000 OA
ATOM     44  H   UNK     1      75.222  65.222 105.295  0.00  0.00    +0.000 HD
ATOM     45  H   UNK     1      73.296  69.475 107.980  0.00  0.00    +0.000 HD
ATOM     46  H   UNK     1      77.496  70.564 108.230  0.00  0.00    +0.000 HD
ATOM     47  H   UNK     1      79.420  72.240 106.183  0.00  0.00    +0.000 HD
ATOM     48  H   UNK     1      78.557  68.417 107.241  0.00  0.00    +0.000 HD
ATOM     49  H   UNK     1      78.650  66.095 103.600  0.00  0.00    +0.000 HD
ATOM     50  H   UNK     1      78.218  61.951 103.100  0.00  0.00    +0.000 HD
ATOM     51  H   UNK     1      74.031  60.517 102.897  0.00  0.00    +0.000 HD
ATOM     52  H   UNK     1      72.677  57.235 105.939  0.00  0.00    +0.000 HD
ENDROOT
BRANCH   1  55
ATOM     53  C   UNK     1      70.867  61.057 105.777  0.00  0.00    +0.000 C 
ATOM     54  O   UNK     1      70.318  60.017 106.049  0.00  0.00    +0.000 OA
ATOM     55  N   UNK     1      72.196  61.272 106.023  0.00  0.00    +0.000 N 
ATOM     56  H   UNK     1      72.648  62.083 105.592  0.00  0.00    +0.000 HD
BRANCH  53  57
ATOM     57  C   UNK     1      70.099  62.268 105.232  0.00  0.00    +0.000 C 
BRANCH  57  60
ATOM     58  C   UNK     1      70.862  61.877 102.901  0.00  0.00    +0.000 C 
ATOM     59  O   UNK     1      72.006  61.690 103.232  0.00  0.00    +0.000 OA
ATOM     60  N   UNK     1      69.847  62.057 103.799  0.00  0.00    +0.000 N 
ATOM     61  H   UNK     1      68.906  62.212 103.443  0.00  0.00    +0.000 HD
BRANCH  58  62
ATOM     62  C   UNK     1      70.430  61.988 101.438  0.00  0.00    +0.000 C 
BRANCH  62  65
ATOM     63  C   UNK     1      68.730  60.519 100.379  0.00  0.00    +0.000 C 
ATOM     64  O   UNK     1      67.951  61.428 100.233  0.00  0.00    +0.000 OA
ATOM     65  N   UNK     1      69.972  60.693 100.922  0.00  0.00    +0.000 N 
ATOM     66  H   UNK     1      70.595  59.891 101.013  0.00  0.00    +0.000 HD
BRANCH  63  67
ATOM     67  C   UNK     1      68.401  59.082  99.972  0.00  0.00    +0.000 C 
BRANCH  67  70
ATOM     68  C   UNK     1      70.236  57.689  99.008  0.00  0.00    +0.000 C 
ATOM     69  O   UNK     1      70.328  57.007  99.997  0.00  0.00    +0.000 OA
ATOM     70  N   UNK     1      69.300  58.680  98.878  0.00  0.00    +0.000 N 
ATOM     71  H   UNK     1      69.320  59.256  98.036  0.00  0.00    +0.000 HD
BRANCH  68  72
ATOM     72  C   UNK     1      71.142  57.541  97.795  0.00  0.00    +0.000 C 
BRANCH  72  73
ATOM     73  C   UNK     1      72.182  58.664  97.655  0.00  0.00    +0.000 C 
BRANCH  73  74
ATOM     74  C   UNK     1      71.974  59.497  96.379  0.00  0.00    +0.000 C 
BRANCH  74  75
ATOM     75  C   UNK     1      71.644  60.962  96.708  0.00  0.00    +0.000 C 
BRANCH  75  76
ATOM     76  C   UNK     1      70.410  61.468  95.944  0.00  0.00    +0.000 C 
BRANCH  76  77
ATOM     77  C   UNK     1      69.135  61.384  96.801  0.00  0.00    +0.000 C 
BRANCH  77  78
ATOM     78  C   UNK     1      68.057  60.502  96.149  0.00  0.00    +0.000 C 
BRANCH  78  80
ATOM     79  C   UNK     1      68.643  58.293  95.032  0.00  0.00    +0.000 C 
ATOM     80  C   UNK     1      68.570  59.817  94.873  0.00  0.00    +0.000 C 
ENDBRANCH  78  80
ENDBRANCH  77  78
ENDBRANCH  76  77
ENDBRANCH  75  76
ENDBRANCH  74  75
ENDBRANCH  73  74
ENDBRANCH  72  73
ENDBRANCH  68  72
ENDBRANCH  67  70
BRANCH  67  81
ATOM     81  C   UNK     1      66.941  58.856  99.529  0.00  0.00    +0.000 C 
BRANCH  81  82
ATOM     82  C   UNK     1      66.034  58.390 100.630  0.00  0.00    +0.000 A 
ATOM     83  C   UNK     1      66.109  57.218 101.282  0.00  0.00    +0.000 A 
ATOM     84  N   UNK     1      65.150  57.153 102.111  0.00  0.00    +0.000 N 
ATOM     85  C   UNK     1      64.437  58.199 102.063  0.00  0.00    +0.000 A 
ATOM     86  C   UNK     1      64.966  59.018 101.143  0.00  0.00    +0.000 A 
ATOM     87  C   UNK     1      64.404  60.203 100.876  0.00  0.00    +0.000 A 
ATOM     88  C   UNK     1      63.297  60.543 101.560  0.00  0.00    +0.000 A 
ATOM     89  C   UNK     1      62.770  59.717 102.483  0.00  0.00    +0.000 A 
ATOM     90  C   UNK     1      63.336  58.528 102.748  0.00  0.00    +0.000 A 
ATOM     91  H   UNK     1      64.966  56.341 102.744  0.00  0.00    +0.000 HD
ENDBRANCH  81  82
ENDBRANCH  67  81
ENDBRANCH  63  67
ENDBRANCH  62  65
BRANCH  62  92
ATOM     92  C   UNK     1      71.633  62.454 100.589  0.00  0.00    +0.000 C 
BRANCH  92  93
ATOM     93  C   UNK     1      72.669  61.376 100.318  0.00  0.00    +0.000 C 
ATOM     94  N   UNK     1      73.867  61.830  99.867  0.00  0.00    +0.000 N 
ATOM     95  O   UNK     1      72.466  60.199 100.462  0.00  0.00    +0.000 OA
ATOM     96  H   UNK     1      74.573  61.149  99.632  0.00  0.00    +0.000 HD
ATOM     97  H   UNK     1      74.017  62.812  99.681  0.00  0.00    +0.000 HD
ENDBRANCH  92  93
ENDBRANCH  62  92
ENDBRANCH  58  62
ENDBRANCH  57  60
BRANCH  57  98
ATOM     98  C   UNK     1      70.757  63.641 105.444  0.00  0.00    +0.000 C 
BRANCH  98  99
ATOM     99  C   UNK     1      70.565  64.158 106.856  0.00  0.00    +0.000 C 
ATOM    100  O   UNK     1      71.178  63.753 107.811  0.00  0.00    +0.000 OA
BRANCH  99 101
ATOM    101  O   UNK     1      69.577  65.067 106.934  0.00  0.00    +0.000 OA
ATOM    102  H   UNK     1      69.792  65.835 106.382  0.00  0.00    +0.000 HD
ENDBRANCH  99 101
ENDBRANCH  98  99
ENDBRANCH  57  98
ENDBRANCH  53  57
ENDBRANCH   1  55
BRANCH  11 103
ATOM    103  C   UNK     1      72.272  67.284 107.143  0.00  0.00    +0.000 C 
ATOM    104  C   UNK     1      71.860  67.714 105.724  0.00  0.00    +0.000 C 
BRANCH 103 105
ATOM    105  C   UNK     1      71.422  67.972 108.224  0.00  0.00    +0.000 C 
BRANCH 105 106
ATOM    106  C   UNK     1      71.058  67.079 109.388  0.00  0.00    +0.000 C 
ATOM    107  O   UNK     1      70.076  66.382 109.461  0.00  0.00    +0.000 OA
BRANCH 106 108
ATOM    108  O   UNK     1      71.992  67.102 110.358  0.00  0.00    +0.000 OA
ATOM    109  H   UNK     1      72.807  67.491 109.997  0.00  0.00    +0.000 HD
ENDBRANCH 106 108
ENDBRANCH 105 106
ENDBRANCH 103 105
ENDBRANCH  11 103
BRANCH   7 110
ATOM    110  C   UNK     1      75.601  64.621 108.309  0.00  0.00    +0.000 C 
BRANCH 110 111
ATOM    111  C   UNK     1      75.129  64.446 109.760  0.00  0.00    +0.000 C 
ATOM    112  O   UNK     1      74.779  63.311 110.021  0.00  0.00    +0.000 OA
BRANCH 111 113
ATOM    113  C   UNK     1      75.106  65.448 110.696  0.00  0.00    +0.000 A 
ATOM    114  C   UNK     1      75.518  66.677 110.305  0.00  0.00    +0.000 A 
ATOM    115  C   UNK     1      75.525  67.739 111.124  0.00  0.00    +0.000 A 
ATOM    116  C   UNK     1      75.112  67.602 112.389  0.00  0.00    +0.000 A 
ATOM    117  C   UNK     1      74.708  66.395 112.807  0.00  0.00    +0.000 A 
ATOM    118  C   UNK     1      74.705  65.327 111.984  0.00  0.00    +0.000 A 
BRANCH 118 119
ATOM    119  N   UNK     1      74.311  64.273 112.570  0.00  0.00    +0.000 N 
ATOM    120  H   UNK     1      74.056  64.190 113.576  0.00  0.00    +0.000 HD
ATOM    121  H   UNK     1      74.201  63.387 112.018  0.00  0.00    +0.000 HD
ENDBRANCH 118 119
ENDBRANCH 111 113
ENDBRANCH 110 111
ENDBRANCH   7 110
BRANCH  15 122
ATOM    122  C   UNK     1      74.800  71.095 109.632  0.00  0.00    +0.000 C 
BRANCH 122 123
ATOM    123  O   UNK     1      73.957  72.227 109.617  0.00  0.00    +0.000 OA
ATOM    124  H   UNK     1      74.209  72.779 108.873  0.00  0.00    +0.000 HD
ENDBRANCH 122 123
ENDBRANCH  15 122
BRANCH  23 125
ATOM    125  C   UNK     1      81.407  69.284 106.341  0.00  0.00    +0.000 C 
BRANCH 125 126
ATOM    126  C   UNK     1      82.315  70.053 105.389  0.00  0.00    +0.000 C 
ATOM    127  O   UNK     1      82.008  71.055 104.788  0.00  0.00    +0.000 OA
BRANCH 126 128
ATOM    128  O   UNK     1      83.524  69.469 105.240  0.00  0.00    +0.000 OA
ATOM    129  H   UNK     1      83.460  68.531 105.481  0.00  0.00    +0.000 HD
ENDBRANCH 126 128
ENDBRANCH 125 126
ENDBRANCH  23 125
BRANCH  36 130
ATOM    130  C   UNK     1      76.644  59.722 101.685  0.00  0.00    +0.000 C 
BRANCH 130 131
ATOM    131  C   UNK     1      75.593  58.783 101.073  0.00  0.00    +0.000 C 
BRANCH 131 132
ATOM    132  C   UNK     1      75.918  58.430  99.614  0.00  0.00    +0.000 C 
BRANCH 132 133
ATOM    133  N   UNK     1      75.635  59.572  98.729  0.00  0.00    +0.000 NA
ATOM    134  H   UNK     1      75.652  60.456  99.267  0.00  0.00    +0.000 HD
ATOM    135  H   UNK     1      76.381  59.672  98.018  0.00  0.00    +0.000 HD
ENDBRANCH 132 133
ENDBRANCH 131 132
ENDBRANCH 130 131
ENDBRANCH  36 130
BRANCH  32 136
ATOM    136  C   UNK     1      78.925  64.304 102.145  0.00  0.00    +0.000 C 
BRANCH 136 137
ATOM    137  C   UNK     1      79.604  63.024 101.695  0.00  0.00    +0.000 C 
ATOM    138  O   UNK     1      79.415  62.502 100.622  0.00  0.00    +0.000 OA
BRANCH 137 139
ATOM    139  O   UNK     1      80.385  62.485 102.657  0.00  0.00    +0.000 OA
ATOM    140  H   UNK     1      81.034  63.140 102.961  0.00  0.00    +0.000 HD
ENDBRANCH 137 139
ENDBRANCH 136 137
ENDBRANCH  32 136
TORSDOF 42
ENDMDL
MODEL 9
REMARK VINA RESULT:      -6.3      3.399      8.396
REMARK  Name = ./1373.pdb
REMARK  46 active torsions:
REMARK  status: ('A' for Active; 'I' for Inactive)
REMARK    1  A    between atoms: C_1  and  C_2
REMARK    2  A    between atoms: C_2  and  C_3
REMARK    3  A    between atoms: C_3  and  C_4
REMARK    4  A    between atoms: C_4  and  C_5
REMARK    5  A    between atoms: C_5  and  C_6
REMARK    6  A    between atoms: C_6  and  C_7
REMARK    7  A    between atoms: C_7  and  C_8
REMARK    8  A    between atoms: C_8  and  C_9
REMARK    9  A    between atoms: C_9  and  C_10
REMARK   10  A    between atoms: N_12  and  C_13
REMARK   11  A    between atoms: C_13  and  C_14
REMARK   12  A    between atoms: C_13  and  C_24
REMARK   13  A    between atoms: C_14  and  C_15
REMARK   14  A    between atoms: N_26  and  C_27
REMARK   15  A    between atoms: C_27  and  C_28
REMARK   16  A    between atoms: C_27  and  C_32
REMARK   17  A    between atoms: C_28  and  C_29
REMARK   18  A    between atoms: N_34  and  C_35
REMARK   19  A    between atoms: C_35  and  C_36
REMARK   20  A    between atoms: C_35  and  C_40
REMARK   21  A    between atoms: C_36  and  C_37
REMARK   22  A    between atoms: C_37  and  O_38
REMARK   23  A    between atoms: N_42  and  C_43
REMARK   24  A    between atoms: C_44  and  C_45
REMARK   25  A    between atoms: C_49  and  C_50
REMARK   26  A    between atoms: C_50  and  C_51
REMARK   27  A    between atoms: C_51  and  C_53
REMARK   28  A    between atoms: C_58  and  N_59
REMARK   29  A    between atoms: C_63  and  C_110
REMARK   30  A    between atoms: C_67  and  C_68
REMARK   31  A    between atoms: C_68  and  O_69
REMARK   32  A    between atoms: C_77  and  C_78
REMARK   33  A    between atoms: C_78  and  C_79
REMARK   34  A    between atoms: C_79  and  O_80
REMARK   35  A    between atoms: C_85  and  C_86
REMARK   36  A    between atoms: C_90  and  C_91
REMARK   37  A    between atoms: C_91  and  C_92
REMARK   38  A    between atoms: C_92  and  O_93
REMARK   39  A    between atoms: C_98  and  C_99
REMARK   40  A    between atoms: C_99  and  C_100
REMARK   41  A    between atoms: C_100  and  C_101
REMARK   42  A    between atoms: C_101  and  N_102
REMARK   43  A    between atoms: C_110  and  C_111
REMARK   44  A    between atoms: C_110  and  C_112
REMARK   45  A    between atoms: C_112  and  C_113
REMARK   46  A    between atoms: C_113  and  O_114
REMARK                            x       y       z     vdW  Elec       q    Type
REMARK                         _______ _______ _______ _____ _____    ______ ____
ROOT
ATOM      1  C   UNK     1      77.362  71.356 106.382  0.00  0.00    +0.000 C 
ATOM      2  C   UNK     1      76.841  70.134 107.165  0.00  0.00    +0.000 C 
ATOM      3  C   UNK     1      77.435  70.040 108.573  0.00  0.00    +0.000 C 
ATOM      4  O   UNK     1      77.182  68.951 106.497  0.00  0.00    +0.000 OA
ATOM      5  C   UNK     1      76.423  68.512 105.459  0.00  0.00    +0.000 C 
ATOM      6  O   UNK     1      75.441  69.067 105.021  0.00  0.00    +0.000 OA
ATOM      7  C   UNK     1      76.980  67.212 104.863  0.00  0.00    +0.000 C 
ATOM      8  N   UNK     1      75.875  66.549 104.155  0.00  0.00    +0.000 N 
ATOM      9  C   UNK     1      75.984  65.654 103.125  0.00  0.00    +0.000 C 
ATOM     10  O   UNK     1      75.002  65.106 102.692  0.00  0.00    +0.000 OA
ATOM     11  C   UNK     1      77.384  65.422 102.548  0.00  0.00    +0.000 C 
ATOM     12  N   UNK     1      77.561  64.099 101.928  0.00  0.00    +0.000 N 
ATOM     13  C   UNK     1      77.239  62.916 102.541  0.00  0.00    +0.000 C 
ATOM     14  O   UNK     1      76.735  62.836 103.637  0.00  0.00    +0.000 OA
ATOM     15  C   UNK     1      77.575  61.668 101.717  0.00  0.00    +0.000 C 
ATOM     16  N   UNK     1      77.051  60.495 102.423  0.00  0.00    +0.000 N 
ATOM     17  C   UNK     1      76.880  59.274 101.831  0.00  0.00    +0.000 C 
ATOM     18  O   UNK     1      77.178  59.056 100.683  0.00  0.00    +0.000 OA
ATOM     19  C   UNK     1      76.278  58.204 102.736  0.00  0.00    +0.000 C 
ATOM     20  N   UNK     1      75.178  58.765 103.523  0.00  0.00    +0.000 N 
ATOM     21  C   UNK     1      75.388  59.511 104.646  0.00  0.00    +0.000 C 
ATOM     22  O   UNK     1      76.470  59.671 105.154  0.00  0.00    +0.000 OA
ATOM     23  C   UNK     1      74.159  60.229 105.177  0.00  0.00    +0.000 C 
ATOM     24  N   UNK     1      74.555  61.637 105.284  0.00  0.00    +0.000 N 
ATOM     25  C   UNK     1      73.638  62.634 105.409  0.00  0.00    +0.000 C 
ATOM     26  O   UNK     1      72.457  62.464 105.236  0.00  0.00    +0.000 OA
ATOM     27  C   UNK     1      74.202  63.962 105.884  0.00  0.00    +0.000 C 
ATOM     28  C   UNK     1      74.870  63.783 107.256  0.00  0.00    +0.000 C 
ATOM     29  N   UNK     1      73.054  64.861 105.965  0.00  0.00    +0.000 N 
ATOM     30  C   UNK     1      73.138  66.193 106.215  0.00  0.00    +0.000 C 
ATOM     31  O   UNK     1      74.188  66.765 106.368  0.00  0.00    +0.000 OA
ATOM     32  C   UNK     1      71.780  66.882 106.317  0.00  0.00    +0.000 C 
ATOM     33  N   UNK     1      71.914  68.079 107.156  0.00  0.00    +0.000 N 
ATOM     34  C   UNK     1      72.275  69.291 106.636  0.00  0.00    +0.000 C 
ATOM     35  O   UNK     1      72.424  69.484 105.455  0.00  0.00    +0.000 OA
ATOM     36  C   UNK     1      72.472  70.399 107.664  0.00  0.00    +0.000 C 
ATOM     37  N   UNK     1      73.292  71.450 107.044  0.00  0.00    +0.000 N 
ATOM     38  C   UNK     1      74.265  72.135 107.718  0.00  0.00    +0.000 C 
ATOM     39  O   UNK     1      74.531  71.940 108.878  0.00  0.00    +0.000 OA
ATOM     40  C   UNK     1      75.006  73.171 106.889  0.00  0.00    +0.000 C 
ATOM     41  N   UNK     1      76.353  73.421 107.396  0.00  0.00    +0.000 N 
ATOM     42  C   UNK     1      77.470  72.660 107.191  0.00  0.00    +0.000 C 
ATOM     43  O   UNK     1      78.509  73.013 107.695  0.00  0.00    +0.000 OA
ATOM     44  H   UNK     1      74.930  66.758 104.478  0.00  0.00    +0.000 HD
ATOM     45  H   UNK     1      78.079  64.054 101.046  0.00  0.00    +0.000 HD
ATOM     46  H   UNK     1      76.832  60.629 103.411  0.00  0.00    +0.000 HD
ATOM     47  H   UNK     1      74.225  58.667 103.168  0.00  0.00    +0.000 HD
ATOM     48  H   UNK     1      75.555  61.854 105.303  0.00  0.00    +0.000 HD
ATOM     49  H   UNK     1      72.134  64.417 105.924  0.00  0.00    +0.000 HD
ATOM     50  H   UNK     1      71.856  67.952 108.169  0.00  0.00    +0.000 HD
ATOM     51  H   UNK     1      73.145  71.622 106.048  0.00  0.00    +0.000 HD
ATOM     52  H   UNK     1      76.500  74.229 107.999  0.00  0.00    +0.000 HD
ENDROOT
BRANCH   1  55
ATOM     53  C   UNK     1      77.386  71.803 103.934  0.00  0.00    +0.000 C 
ATOM     54  O   UNK     1      78.420  72.423 103.977  0.00  0.00    +0.000 OA
ATOM     55  N   UNK     1      76.709  71.426 105.062  0.00  0.00    +0.000 N 
ATOM     56  H   UNK     1      75.748  71.086 104.964  0.00  0.00    +0.000 HD
BRANCH  53  57
ATOM     57  C   UNK     1      76.795  71.290 102.614  0.00  0.00    +0.000 C 
BRANCH  57  60
ATOM     58  C   UNK     1      77.853  70.504 100.510  0.00  0.00    +0.000 C 
ATOM     59  O   UNK     1      76.933  69.774 100.237  0.00  0.00    +0.000 OA
ATOM     60  N   UNK     1      77.835  71.356 101.578  0.00  0.00    +0.000 N 
ATOM     61  H   UNK     1      78.651  71.942 101.745  0.00  0.00    +0.000 HD
BRANCH  58  62
ATOM     62  C   UNK     1      79.163  70.516  99.721  0.00  0.00    +0.000 C 
BRANCH  62  65
ATOM     63  C   UNK     1      79.383  69.133  97.668  0.00  0.00    +0.000 C 
ATOM     64  O   UNK     1      79.271  70.089  96.942  0.00  0.00    +0.000 OA
ATOM     65  N   UNK     1      79.378  69.238  99.031  0.00  0.00    +0.000 N 
ATOM     66  H   UNK     1      79.486  68.397  99.598  0.00  0.00    +0.000 HD
BRANCH  63  67
ATOM     67  C   UNK     1      79.538  67.710  97.133  0.00  0.00    +0.000 C 
BRANCH  67  70
ATOM     68  C   UNK     1      81.289  65.993  97.609  0.00  0.00    +0.000 C 
ATOM     69  O   UNK     1      80.490  65.091  97.644  0.00  0.00    +0.000 OA
ATOM     70  N   UNK     1      80.935  67.283  97.317  0.00  0.00    +0.000 N 
ATOM     71  H   UNK     1      81.656  68.004  97.363  0.00  0.00    +0.000 HD
BRANCH  68  72
ATOM     72  C   UNK     1      82.773  65.814  97.890  0.00  0.00    +0.000 C 
BRANCH  72  73
ATOM     73  C   UNK     1      83.655  66.931  97.307  0.00  0.00    +0.000 C 
BRANCH  73  74
ATOM     74  C   UNK     1      84.201  66.576  95.914  0.00  0.00    +0.000 C 
BRANCH  74  75
ATOM     75  C   UNK     1      83.505  67.389  94.810  0.00  0.00    +0.000 C 
BRANCH  75  76
ATOM     76  C   UNK     1      82.350  66.615  94.156  0.00  0.00    +0.000 C 
BRANCH  76  77
ATOM     77  C   UNK     1      81.665  67.437  93.051  0.00  0.00    +0.000 C 
BRANCH  77  78
ATOM     78  C   UNK     1      82.096  68.913  93.076  0.00  0.00    +0.000 C 
BRANCH  78  80
ATOM     79  C   UNK     1      82.961  70.811  91.619  0.00  0.00    +0.000 C 
ATOM     80  C   UNK     1      82.915  69.293  91.832  0.00  0.00    +0.000 C 
ENDBRANCH  78  80
ENDBRANCH  77  78
ENDBRANCH  76  77
ENDBRANCH  75  76
ENDBRANCH  74  75
ENDBRANCH  73  74
ENDBRANCH  72  73
ENDBRANCH  68  72
ENDBRANCH  67  70
BRANCH  67  81
ATOM     81  C   UNK     1      79.151  67.532  95.651  0.00  0.00    +0.000 C 
BRANCH  81  82
ATOM     82  C   UNK     1      77.711  67.834  95.355  0.00  0.00    +0.000 A 
ATOM     83  C   UNK     1      77.250  68.792  94.535  0.00  0.00    +0.000 A 
ATOM     84  N   UNK     1      75.982  68.782  94.572  0.00  0.00    +0.000 N 
ATOM     85  C   UNK     1      75.558  67.884  95.359  0.00  0.00    +0.000 A 
ATOM     86  C   UNK     1      76.620  67.249  95.872  0.00  0.00    +0.000 A 
ATOM     87  C   UNK     1      76.465  66.250  96.749  0.00  0.00    +0.000 A 
ATOM     88  C   UNK     1      75.212  65.906  97.095  0.00  0.00    +0.000 A 
ATOM     89  C   UNK     1      74.148  66.547  96.576  0.00  0.00    +0.000 A 
ATOM     90  C   UNK     1      74.307  67.549  95.696  0.00  0.00    +0.000 A 
ATOM     91  H   UNK     1      75.366  69.434  94.033  0.00  0.00    +0.000 HD
ENDBRANCH  81  82
ENDBRANCH  67  81
ENDBRANCH  63  67
ENDBRANCH  62  65
BRANCH  62  92
ATOM     92  C   UNK     1      80.338  70.748 100.694  0.00  0.00    +0.000 C 
BRANCH  92  93
ATOM     93  C   UNK     1      81.710  70.446 100.112  0.00  0.00    +0.000 C 
ATOM     94  N   UNK     1      82.492  69.637 100.873  0.00  0.00    +0.000 N 
ATOM     95  O   UNK     1      82.109  70.892  99.070  0.00  0.00    +0.000 OA
ATOM     96  H   UNK     1      83.427  69.442 100.549  0.00  0.00    +0.000 HD
ATOM     97  H   UNK     1      82.184  69.316 101.780  0.00  0.00    +0.000 HD
ENDBRANCH  92  93
ENDBRANCH  62  92
ENDBRANCH  58  62
ENDBRANCH  57  60
BRANCH  57  98
ATOM     98  C   UNK     1      75.525  71.998 102.118  0.00  0.00    +0.000 C 
BRANCH  98  99
ATOM     99  C   UNK     1      74.283  71.147 102.300  0.00  0.00    +0.000 C 
ATOM    100  O   UNK     1      73.200  71.589 102.588  0.00  0.00    +0.000 OA
BRANCH  99 101
ATOM    101  O   UNK     1      74.546  69.834 102.180  0.00  0.00    +0.000 OA
ATOM    102  H   UNK     1      75.417  69.708 101.773  0.00  0.00    +0.000 HD
ENDBRANCH  99 101
ENDBRANCH  98  99
ENDBRANCH  57  98
ENDBRANCH  53  57
ENDBRANCH   1  55
BRANCH  11 103
ATOM    103  C   UNK     1      77.674  66.538 101.513  0.00  0.00    +0.000 C 
ATOM    104  C   UNK     1      77.699  66.010 100.068  0.00  0.00    +0.000 C 
BRANCH 103 105
ATOM    105  C   UNK     1      78.948  67.324 101.864  0.00  0.00    +0.000 C 
BRANCH 105 106
ATOM    106  C   UNK     1      80.231  66.652 101.432  0.00  0.00    +0.000 C 
ATOM    107  O   UNK     1      80.995  67.065 100.594  0.00  0.00    +0.000 OA
BRANCH 106 108
ATOM    108  O   UNK     1      80.475  65.526 102.130  0.00  0.00    +0.000 OA
ATOM    109  H   UNK     1      79.673  64.977 102.126  0.00  0.00    +0.000 HD
ENDBRANCH 106 108
ENDBRANCH 105 106
ENDBRANCH 103 105
ENDBRANCH  11 103
BRANCH   7 110
ATOM    110  C   UNK     1      77.626  66.282 105.926  0.00  0.00    +0.000 C 
BRANCH 110 111
ATOM    111  C   UNK     1      79.103  65.917 105.720  0.00  0.00    +0.000 C 
ATOM    112  O   UNK     1      79.692  66.680 104.978  0.00  0.00    +0.000 OA
BRANCH 111 113
ATOM    113  C   UNK     1      79.730  64.849 106.311  0.00  0.00    +0.000 A 
ATOM    114  C   UNK     1      79.551  64.680 107.641  0.00  0.00    +0.000 A 
ATOM    115  C   UNK     1      80.097  63.665 108.327  0.00  0.00    +0.000 A 
ATOM    116  C   UNK     1      80.857  62.768 107.690  0.00  0.00    +0.000 A 
ATOM    117  C   UNK     1      81.059  62.915 106.374  0.00  0.00    +0.000 A 
ATOM    118  C   UNK     1      80.513  63.938 105.686  0.00  0.00    +0.000 A 
BRANCH 118 119
ATOM    119  N   UNK     1      80.839  63.918 104.460  0.00  0.00    +0.000 N 
ATOM    120  H   UNK     1      80.402  63.332 103.719  0.00  0.00    +0.000 HD
ATOM    121  H   UNK     1      81.603  64.551 104.120  0.00  0.00    +0.000 HD
ENDBRANCH 118 119
ENDBRANCH 111 113
ENDBRANCH 110 111
ENDBRANCH   7 110
BRANCH  15 122
ATOM    122  C   UNK     1      79.084  61.526 101.504  0.00  0.00    +0.000 C 
BRANCH 122 123
ATOM    123  O   UNK     1      79.780  62.428 102.338  0.00  0.00    +0.000 OA
ATOM    124  H   UNK     1      80.693  62.466 102.043  0.00  0.00    +0.000 HD
ENDBRANCH 122 123
ENDBRANCH  15 122
BRANCH  23 125
ATOM    125  C   UNK     1      73.706  59.682 106.546  0.00  0.00    +0.000 C 
BRANCH 125 126
ATOM    126  C   UNK     1      72.419  58.871 106.466  0.00  0.00    +0.000 C 
ATOM    127  O   UNK     1      71.962  58.194 107.357  0.00  0.00    +0.000 OA
BRANCH 126 128
ATOM    128  O   UNK     1      71.834  58.944 105.250  0.00  0.00    +0.000 OA
ATOM    129  H   UNK     1      71.591  58.051 104.956  0.00  0.00    +0.000 HD
ENDBRANCH 126 128
ENDBRANCH 125 126
ENDBRANCH  23 125
BRANCH  36 130
ATOM    130  C   UNK     1      71.103  70.931 108.117  0.00  0.00    +0.000 C 
BRANCH 130 131
ATOM    131  C   UNK     1      70.414  71.803 107.056  0.00  0.00    +0.000 C 
BRANCH 131 132
ATOM    132  C   UNK     1      69.085  71.195 106.586  0.00  0.00    +0.000 C 
BRANCH 132 133
ATOM    133  N   UNK     1      69.207  69.737 106.434  0.00  0.00    +0.000 NA
ATOM    134  H   UNK     1      69.455  69.497 105.458  0.00  0.00    +0.000 HD
ATOM    135  H   UNK     1      69.990  69.377 107.008  0.00  0.00    +0.000 HD
ENDBRANCH 132 133
ENDBRANCH 131 132
ENDBRANCH 130 131
ENDBRANCH  36 130
BRANCH  32 136
ATOM    136  C   UNK     1      70.692  65.956 106.901  0.00  0.00    +0.000 C 
BRANCH 136 137
ATOM    137  C   UNK     1      70.421  66.338 108.344  0.00  0.00    +0.000 C 
ATOM    138  O   UNK     1      70.885  65.755 109.295  0.00  0.00    +0.000 OA
BRANCH 137 139
ATOM    139  O   UNK     1      69.538  67.354 108.454  0.00  0.00    +0.000 OA
ATOM    140  H   UNK     1      69.148  67.358 109.343  0.00  0.00    +0.000 HD
ENDBRANCH 137 139
ENDBRANCH 136 137
ENDBRANCH  32 136
TORSDOF 42
ENDMDL
MODEL 10
REMARK VINA RESULT:      -6.3      3.048      9.059
REMARK  Name = ./1373.pdb
REMARK  46 active torsions:
REMARK  status: ('A' for Active; 'I' for Inactive)
REMARK    1  A    between atoms: C_1  and  C_2
REMARK    2  A    between atoms: C_2  and  C_3
REMARK    3  A    between atoms: C_3  and  C_4
REMARK    4  A    between atoms: C_4  and  C_5
REMARK    5  A    between atoms: C_5  and  C_6
REMARK    6  A    between atoms: C_6  and  C_7
REMARK    7  A    between atoms: C_7  and  C_8
REMARK    8  A    between atoms: C_8  and  C_9
REMARK    9  A    between atoms: C_9  and  C_10
REMARK   10  A    between atoms: N_12  and  C_13
REMARK   11  A    between atoms: C_13  and  C_14
REMARK   12  A    between atoms: C_13  and  C_24
REMARK   13  A    between atoms: C_14  and  C_15
REMARK   14  A    between atoms: N_26  and  C_27
REMARK   15  A    between atoms: C_27  and  C_28
REMARK   16  A    between atoms: C_27  and  C_32
REMARK   17  A    between atoms: C_28  and  C_29
REMARK   18  A    between atoms: N_34  and  C_35
REMARK   19  A    between atoms: C_35  and  C_36
REMARK   20  A    between atoms: C_35  and  C_40
REMARK   21  A    between atoms: C_36  and  C_37
REMARK   22  A    between atoms: C_37  and  O_38
REMARK   23  A    between atoms: N_42  and  C_43
REMARK   24  A    between atoms: C_44  and  C_45
REMARK   25  A    between atoms: C_49  and  C_50
REMARK   26  A    between atoms: C_50  and  C_51
REMARK   27  A    between atoms: C_51  and  C_53
REMARK   28  A    between atoms: C_58  and  N_59
REMARK   29  A    between atoms: C_63  and  C_110
REMARK   30  A    between atoms: C_67  and  C_68
REMARK   31  A    between atoms: C_68  and  O_69
REMARK   32  A    between atoms: C_77  and  C_78
REMARK   33  A    between atoms: C_78  and  C_79
REMARK   34  A    between atoms: C_79  and  O_80
REMARK   35  A    between atoms: C_85  and  C_86
REMARK   36  A    between atoms: C_90  and  C_91
REMARK   37  A    between atoms: C_91  and  C_92
REMARK   38  A    between atoms: C_92  and  O_93
REMARK   39  A    between atoms: C_98  and  C_99
REMARK   40  A    between atoms: C_99  and  C_100
REMARK   41  A    between atoms: C_100  and  C_101
REMARK   42  A    between atoms: C_101  and  N_102
REMARK   43  A    between atoms: C_110  and  C_111
REMARK   44  A    between atoms: C_110  and  C_112
REMARK   45  A    between atoms: C_112  and  C_113
REMARK   46  A    between atoms: C_113  and  O_114
REMARK                            x       y       z     vdW  Elec       q    Type
REMARK                         _______ _______ _______ _____ _____    ______ ____
ROOT
ATOM      1  C   UNK     1      77.458  70.379 105.481  0.00  0.00    +0.000 C 
ATOM      2  C   UNK     1      76.889  69.358 106.488  0.00  0.00    +0.000 C 
ATOM      3  C   UNK     1      77.643  69.362 107.821  0.00  0.00    +0.000 C 
ATOM      4  O   UNK     1      76.985  68.062 105.967  0.00  0.00    +0.000 OA
ATOM      5  C   UNK     1      76.048  67.607 105.095  0.00  0.00    +0.000 C 
ATOM      6  O   UNK     1      75.098  68.238 104.691  0.00  0.00    +0.000 OA
ATOM      7  C   UNK     1      76.351  66.174 104.639  0.00  0.00    +0.000 C 
ATOM      8  N   UNK     1      75.087  65.592 104.162  0.00  0.00    +0.000 N 
ATOM      9  C   UNK     1      74.946  64.564 103.268  0.00  0.00    +0.000 C 
ATOM     10  O   UNK     1      73.853  64.115 103.030  0.00  0.00    +0.000 OA
ATOM     11  C   UNK     1      76.217  64.058 102.581  0.00  0.00    +0.000 C 
ATOM     12  N   UNK     1      76.140  62.653 102.146  0.00  0.00    +0.000 N 
ATOM     13  C   UNK     1      75.749  61.620 102.958  0.00  0.00    +0.000 C 
ATOM     14  O   UNK     1      75.385  61.758 104.103  0.00  0.00    +0.000 OA
ATOM     15  C   UNK     1      75.812  60.241 102.294  0.00  0.00    +0.000 C 
ATOM     16  N   UNK     1      75.236  59.259 103.218  0.00  0.00    +0.000 N 
ATOM     17  C   UNK     1      74.834  58.009 102.834  0.00  0.00    +0.000 C 
ATOM     18  O   UNK     1      74.950  57.602 101.705  0.00  0.00    +0.000 OA
ATOM     19  C   UNK     1      74.221  57.165 103.946  0.00  0.00    +0.000 C 
ATOM     20  N   UNK     1      73.313  57.978 104.759  0.00  0.00    +0.000 N 
ATOM     21  C   UNK     1      73.762  58.826 105.730  0.00  0.00    +0.000 C 
ATOM     22  O   UNK     1      74.911  58.890 106.087  0.00  0.00    +0.000 OA
ATOM     23  C   UNK     1      72.715  59.778 106.282  0.00  0.00    +0.000 C 
ATOM     24  N   UNK     1      73.300  61.115 106.137  0.00  0.00    +0.000 N 
ATOM     25  C   UNK     1      72.544  62.243 106.215  0.00  0.00    +0.000 C 
ATOM     26  O   UNK     1      71.338  62.227 106.199  0.00  0.00    +0.000 OA
ATOM     27  C   UNK     1      73.331  63.524 106.425  0.00  0.00    +0.000 C 
ATOM     28  C   UNK     1      74.142  63.430 107.726  0.00  0.00    +0.000 C 
ATOM     29  N   UNK     1      72.329  64.584 106.499  0.00  0.00    +0.000 N 
ATOM     30  C   UNK     1      72.617  65.912 106.539  0.00  0.00    +0.000 C 
ATOM     31  O   UNK     1      73.743  66.338 106.490  0.00  0.00    +0.000 OA
ATOM     32  C   UNK     1      71.383  66.799 106.687  0.00  0.00    +0.000 C 
ATOM     33  N   UNK     1      71.778  68.062 107.322  0.00  0.00    +0.000 N 
ATOM     34  C   UNK     1      72.223  69.130 106.593  0.00  0.00    +0.000 C 
ATOM     35  O   UNK     1      72.241  69.144 105.387  0.00  0.00    +0.000 OA
ATOM     36  C   UNK     1      72.693  70.322 107.420  0.00  0.00    +0.000 C 
ATOM     37  N   UNK     1      73.555  71.152 106.566  0.00  0.00    +0.000 N 
ATOM     38  C   UNK     1      74.688  71.769 107.021  0.00  0.00    +0.000 C 
ATOM     39  O   UNK     1      75.073  71.690 108.160  0.00  0.00    +0.000 OA
ATOM     40  C   UNK     1      75.443  72.569 105.972  0.00  0.00    +0.000 C 
ATOM     41  N   UNK     1      76.864  72.684 106.286  0.00  0.00    +0.000 N 
ATOM     42  C   UNK     1      77.838  71.747 106.074  0.00  0.00    +0.000 C 
ATOM     43  O   UNK     1      78.971  72.007 106.403  0.00  0.00    +0.000 OA
ATOM     44  H   UNK     1      74.226  65.977 104.552  0.00  0.00    +0.000 HD
ATOM     45  H   UNK     1      76.529  62.420 101.228  0.00  0.00    +0.000 HD
ATOM     46  H   UNK     1      75.166  59.550 104.194  0.00  0.00    +0.000 HD
ATOM     47  H   UNK     1      72.318  57.976 104.529  0.00  0.00    +0.000 HD
ATOM     48  H   UNK     1      74.314  61.185 106.014  0.00  0.00    +0.000 HD
ATOM     49  H   UNK     1      71.362  64.279 106.624  0.00  0.00    +0.000 HD
ATOM     50  H   UNK     1      71.836  68.077 108.343  0.00  0.00    +0.000 HD
ATOM     51  H   UNK     1      73.304  71.212 105.577  0.00  0.00    +0.000 HD
ATOM     52  H   UNK     1      77.192  73.533 106.744  0.00  0.00    +0.000 HD
ENDROOT
BRANCH   1  55
ATOM     53  C   UNK     1      77.226  70.457 103.005  0.00  0.00    +0.000 C 
ATOM     54  O   UNK     1      78.342  70.885 102.834  0.00  0.00    +0.000 OA
ATOM     55  N   UNK     1      76.655  70.371 104.245  0.00  0.00    +0.000 N 
ATOM     56  H   UNK     1      75.648  70.195 104.308  0.00  0.00    +0.000 HD
BRANCH  53  57
ATOM     57  C   UNK     1      76.393  69.870 101.859  0.00  0.00    +0.000 C 
BRANCH  57  60
ATOM     58  C   UNK     1      76.918  68.782  99.689  0.00  0.00    +0.000 C 
ATOM     59  O   UNK     1      75.792  68.378  99.539  0.00  0.00    +0.000 OA
ATOM     60  N   UNK     1      77.283  69.601 100.721  0.00  0.00    +0.000 N 
ATOM     61  H   UNK     1      78.255  69.900 100.783  0.00  0.00    +0.000 HD
BRANCH  58  62
ATOM     62  C   UNK     1      78.073  68.377  98.772  0.00  0.00    +0.000 C 
BRANCH  62  65
ATOM     63  C   UNK     1      79.389  69.803  97.221  0.00  0.00    +0.000 C 
ATOM     64  O   UNK     1      80.437  69.489  97.729  0.00  0.00    +0.000 OA
ATOM     65  N   UNK     1      78.189  69.294  97.631  0.00  0.00    +0.000 N 
ATOM     66  H   UNK     1      77.334  69.587  97.160  0.00  0.00    +0.000 HD
BRANCH  63  67
ATOM     67  C   UNK     1      79.303  70.805  96.070  0.00  0.00    +0.000 C 
BRANCH  67  70
ATOM     68  C   UNK     1      79.192  73.300  96.146  0.00  0.00    +0.000 C 
ATOM     69  O   UNK     1      79.973  73.429  95.237  0.00  0.00    +0.000 OA
ATOM     70  N   UNK     1      78.765  72.076  96.585  0.00  0.00    +0.000 N 
ATOM     71  H   UNK     1      78.148  72.042  97.398  0.00  0.00    +0.000 HD
BRANCH  68  72
ATOM     72  C   UNK     1      78.595  74.468  96.916  0.00  0.00    +0.000 C 
BRANCH  72  73
ATOM     73  C   UNK     1      78.499  74.229  98.432  0.00  0.00    +0.000 C 
BRANCH  73  74
ATOM     74  C   UNK     1      77.066  74.407  98.961  0.00  0.00    +0.000 C 
BRANCH  74  75
ATOM     75  C   UNK     1      76.309  73.069  99.004  0.00  0.00    +0.000 C 
BRANCH  75  76
ATOM     76  C   UNK     1      75.288  72.941  97.863  0.00  0.00    +0.000 C 
BRANCH  76  77
ATOM     77  C   UNK     1      74.627  71.552  97.843  0.00  0.00    +0.000 C 
BRANCH  77  78
ATOM     78  C   UNK     1      73.960  71.248  96.491  0.00  0.00    +0.000 C 
BRANCH  78  80
ATOM     79  C   UNK     1      72.074  70.764  98.129  0.00  0.00    +0.000 C 
ATOM     80  C   UNK     1      72.528  70.720  96.664  0.00  0.00    +0.000 C 
ENDBRANCH  78  80
ENDBRANCH  77  78
ENDBRANCH  76  77
ENDBRANCH  75  76
ENDBRANCH  74  75
ENDBRANCH  73  74
ENDBRANCH  72  73
ENDBRANCH  68  72
ENDBRANCH  67  70
BRANCH  67  81
ATOM     81  C   UNK     1      78.443  70.345  94.876  0.00  0.00    +0.000 C 
BRANCH  81  82
ATOM     82  C   UNK     1      78.687  68.924  94.459  0.00  0.00    +0.000 A 
ATOM     83  C   UNK     1      77.808  67.911  94.528  0.00  0.00    +0.000 A 
ATOM     84  N   UNK     1      78.381  66.849  94.135  0.00  0.00    +0.000 N 
ATOM     85  C   UNK     1      79.583  67.077  93.806  0.00  0.00    +0.000 A 
ATOM     86  C   UNK     1      79.820  68.384  93.985  0.00  0.00    +0.000 A 
ATOM     87  C   UNK     1      81.024  68.905  93.722  0.00  0.00    +0.000 A 
ATOM     88  C   UNK     1      81.983  68.077  93.272  0.00  0.00    +0.000 A 
ATOM     89  C   UNK     1      81.740  66.765  93.093  0.00  0.00    +0.000 A 
ATOM     90  C   UNK     1      80.530  66.245  93.359  0.00  0.00    +0.000 A 
ATOM     91  H   UNK     1      77.926  65.908  94.096  0.00  0.00    +0.000 HD
ENDBRANCH  81  82
ENDBRANCH  67  81
ENDBRANCH  63  67
ENDBRANCH  62  65
BRANCH  62  92
ATOM     92  C   UNK     1      77.815  66.955  98.230  0.00  0.00    +0.000 C 
BRANCH  92  93
ATOM     93  C   UNK     1      79.059  66.230  97.744  0.00  0.00    +0.000 C 
ATOM     94  N   UNK     1      80.198  66.523  98.423  0.00  0.00    +0.000 N 
ATOM     95  O   UNK     1      79.070  65.465  96.816  0.00  0.00    +0.000 OA
ATOM     96  H   UNK     1      81.059  66.099  98.109  0.00  0.00    +0.000 HD
ATOM     97  H   UNK     1      80.204  67.215  99.158  0.00  0.00    +0.000 HD
ENDBRANCH  92  93
ENDBRANCH  62  92
ENDBRANCH  58  62
ENDBRANCH  57  60
BRANCH  57  98
ATOM     98  C   UNK     1      75.195  70.712 101.390  0.00  0.00    +0.000 C 
BRANCH  98  99
ATOM     99  C   UNK     1      73.909  70.326 102.094  0.00  0.00    +0.000 C 
ATOM    100  O   UNK     1      72.933  69.903 101.529  0.00  0.00    +0.000 OA
BRANCH  99 101
ATOM    101  O   UNK     1      73.955  70.585 103.413  0.00  0.00    +0.000 OA
ATOM    102  H   UNK     1      73.226  71.177 103.657  0.00  0.00    +0.000 HD
ENDBRANCH  99 101
ENDBRANCH  98  99
ENDBRANCH  57  98
ENDBRANCH  53  57
ENDBRANCH   1  55
BRANCH  11 103
ATOM    103  C   UNK     1      76.513  64.975 101.368  0.00  0.00    +0.000 C 
ATOM    104  C   UNK     1      76.271  64.270 100.022  0.00  0.00    +0.000 C 
BRANCH 103 105
ATOM    105  C   UNK     1      77.917  65.595 101.451  0.00  0.00    +0.000 C 
BRANCH 105 106
ATOM    106  C   UNK     1      79.045  64.593 101.364  0.00  0.00    +0.000 C 
ATOM    107  O   UNK     1      78.965  63.419 101.631  0.00  0.00    +0.000 OA
BRANCH 106 108
ATOM    108  O   UNK     1      80.182  65.146 100.900  0.00  0.00    +0.000 OA
ATOM    109  H   UNK     1      80.909  64.512 101.024  0.00  0.00    +0.000 HD
ENDBRANCH 106 108
ENDBRANCH 105 106
ENDBRANCH 103 105
ENDBRANCH  11 103
BRANCH   7 110
ATOM    110  C   UNK     1      77.003  65.305 105.748  0.00  0.00    +0.000 C 
BRANCH 110 111
ATOM    111  C   UNK     1      78.521  65.092 105.658  0.00  0.00    +0.000 C 
ATOM    112  O   UNK     1      79.033  65.649 104.706  0.00  0.00    +0.000 OA
BRANCH 111 113
ATOM    113  C   UNK     1      79.257  64.361 106.556  0.00  0.00    +0.000 A 
ATOM    114  C   UNK     1      78.980  64.525 107.870  0.00  0.00    +0.000 A 
ATOM    115  C   UNK     1      79.620  63.854 108.840  0.00  0.00    +0.000 A 
ATOM    116  C   UNK     1      80.579  62.979 108.518  0.00  0.00    +0.000 A 
ATOM    117  C   UNK     1      80.881  62.803 107.225  0.00  0.00    +0.000 A 
ATOM    118  C   UNK     1      80.240  63.480 106.251  0.00  0.00    +0.000 A 
BRANCH 118 119
ATOM    119  N   UNK     1      80.683  63.193 105.097  0.00  0.00    +0.000 N 
ATOM    120  H   UNK     1      80.828  62.234 104.718  0.00  0.00    +0.000 HD
ATOM    121  H   UNK     1      80.918  63.966 104.428  0.00  0.00    +0.000 HD
ENDBRANCH 118 119
ENDBRANCH 111 113
ENDBRANCH 110 111
ENDBRANCH   7 110
BRANCH  15 122
ATOM    122  C   UNK     1      77.250  59.853 101.939  0.00  0.00    +0.000 C 
BRANCH 122 123
ATOM    123  O   UNK     1      77.748  60.705 100.930  0.00  0.00    +0.000 OA
ATOM    124  H   UNK     1      77.016  61.223 100.586  0.00  0.00    +0.000 HD
ENDBRANCH 122 123
ENDBRANCH  15 122
BRANCH  23 125
ATOM    125  C   UNK     1      72.375  59.486 107.758  0.00  0.00    +0.000 C 
BRANCH 125 126
ATOM    126  C   UNK     1      73.571  59.650 108.688  0.00  0.00    +0.000 C 
ATOM    127  O   UNK     1      73.881  60.670 109.255  0.00  0.00    +0.000 OA
BRANCH 126 128
ATOM    128  O   UNK     1      74.307  58.521 108.791  0.00  0.00    +0.000 OA
ATOM    129  H   UNK     1      73.781  57.765 108.483  0.00  0.00    +0.000 HD
ENDBRANCH 126 128
ENDBRANCH 125 126
ENDBRANCH  23 125
BRANCH  36 130
ATOM    130  C   UNK     1      71.474  71.103 107.938  0.00  0.00    +0.000 C 
BRANCH 130 131
ATOM    131  C   UNK     1      71.185  72.375 107.127  0.00  0.00    +0.000 C 
BRANCH 131 132
ATOM    132  C   UNK     1      70.206  72.112 105.973  0.00  0.00    +0.000 C 
BRANCH 132 133
ATOM    133  N   UNK     1      70.935  71.917 104.709  0.00  0.00    +0.000 NA
ATOM    134  H   UNK     1      70.912  72.783 104.143  0.00  0.00    +0.000 HD
ATOM    135  H   UNK     1      71.938  71.740 104.894  0.00  0.00    +0.000 HD
ENDBRANCH 132 133
ENDBRANCH 131 132
ENDBRANCH 130 131
ENDBRANCH  36 130
BRANCH  32 136
ATOM    136  C   UNK     1      70.270  66.125 107.518  0.00  0.00    +0.000 C 
BRANCH 136 137
ATOM    137  C   UNK     1      70.558  66.306 108.996  0.00  0.00    +0.000 C 
ATOM    138  O   UNK     1      70.283  67.304 109.619  0.00  0.00    +0.000 OA
BRANCH 137 139
ATOM    139  O   UNK     1      71.230  65.261 109.526  0.00  0.00    +0.000 OA
ATOM    140  H   UNK     1      71.012  64.449 109.041  0.00  0.00    +0.000 HD
ENDBRANCH 137 139
ENDBRANCH 136 137
ENDBRANCH  32 136
TORSDOF 42
ENDMDL
MODEL 11
REMARK VINA RESULT:      -6.2      3.501      8.750
REMARK  Name = ./1373.pdb
REMARK  46 active torsions:
REMARK  status: ('A' for Active; 'I' for Inactive)
REMARK    1  A    between atoms: C_1  and  C_2
REMARK    2  A    between atoms: C_2  and  C_3
REMARK    3  A    between atoms: C_3  and  C_4
REMARK    4  A    between atoms: C_4  and  C_5
REMARK    5  A    between atoms: C_5  and  C_6
REMARK    6  A    between atoms: C_6  and  C_7
REMARK    7  A    between atoms: C_7  and  C_8
REMARK    8  A    between atoms: C_8  and  C_9
REMARK    9  A    between atoms: C_9  and  C_10
REMARK   10  A    between atoms: N_12  and  C_13
REMARK   11  A    between atoms: C_13  and  C_14
REMARK   12  A    between atoms: C_13  and  C_24
REMARK   13  A    between atoms: C_14  and  C_15
REMARK   14  A    between atoms: N_26  and  C_27
REMARK   15  A    between atoms: C_27  and  C_28
REMARK   16  A    between atoms: C_27  and  C_32
REMARK   17  A    between atoms: C_28  and  C_29
REMARK   18  A    between atoms: N_34  and  C_35
REMARK   19  A    between atoms: C_35  and  C_36
REMARK   20  A    between atoms: C_35  and  C_40
REMARK   21  A    between atoms: C_36  and  C_37
REMARK   22  A    between atoms: C_37  and  O_38
REMARK   23  A    between atoms: N_42  and  C_43
REMARK   24  A    between atoms: C_44  and  C_45
REMARK   25  A    between atoms: C_49  and  C_50
REMARK   26  A    between atoms: C_50  and  C_51
REMARK   27  A    between atoms: C_51  and  C_53
REMARK   28  A    between atoms: C_58  and  N_59
REMARK   29  A    between atoms: C_63  and  C_110
REMARK   30  A    between atoms: C_67  and  C_68
REMARK   31  A    between atoms: C_68  and  O_69
REMARK   32  A    between atoms: C_77  and  C_78
REMARK   33  A    between atoms: C_78  and  C_79
REMARK   34  A    between atoms: C_79  and  O_80
REMARK   35  A    between atoms: C_85  and  C_86
REMARK   36  A    between atoms: C_90  and  C_91
REMARK   37  A    between atoms: C_91  and  C_92
REMARK   38  A    between atoms: C_92  and  O_93
REMARK   39  A    between atoms: C_98  and  C_99
REMARK   40  A    between atoms: C_99  and  C_100
REMARK   41  A    between atoms: C_100  and  C_101
REMARK   42  A    between atoms: C_101  and  N_102
REMARK   43  A    between atoms: C_110  and  C_111
REMARK   44  A    between atoms: C_110  and  C_112
REMARK   45  A    between atoms: C_112  and  C_113
REMARK   46  A    between atoms: C_113  and  O_114
REMARK                            x       y       z     vdW  Elec       q    Type
REMARK                         _______ _______ _______ _____ _____    ______ ____
ROOT
ATOM      1  C   UNK     1      77.754  69.349 104.196  0.00  0.00    +0.000 C 
ATOM      2  C   UNK     1      77.382  68.392 105.347  0.00  0.00    +0.000 C 
ATOM      3  C   UNK     1      78.381  68.449 106.506  0.00  0.00    +0.000 C 
ATOM      4  O   UNK     1      77.361  67.070 104.888  0.00  0.00    +0.000 OA
ATOM      5  C   UNK     1      76.268  66.589 104.240  0.00  0.00    +0.000 C 
ATOM      6  O   UNK     1      75.264  67.218 103.994  0.00  0.00    +0.000 OA
ATOM      7  C   UNK     1      76.462  65.129 103.812  0.00  0.00    +0.000 C 
ATOM      8  N   UNK     1      75.123  64.550 103.621  0.00  0.00    +0.000 N 
ATOM      9  C   UNK     1      74.801  63.481 102.828  0.00  0.00    +0.000 C 
ATOM     10  O   UNK     1      73.678  63.042 102.831  0.00  0.00    +0.000 OA
ATOM     11  C   UNK     1      75.909  62.915 101.936  0.00  0.00    +0.000 C 
ATOM     12  N   UNK     1      75.735  61.492 101.601  0.00  0.00    +0.000 N 
ATOM     13  C   UNK     1      75.499  60.509 102.528  0.00  0.00    +0.000 C 
ATOM     14  O   UNK     1      75.366  60.712 103.712  0.00  0.00    +0.000 OA
ATOM     15  C   UNK     1      75.418  59.097 101.939  0.00  0.00    +0.000 C 
ATOM     16  N   UNK     1      75.023  58.175 103.009  0.00  0.00    +0.000 N 
ATOM     17  C   UNK     1      74.541  56.915 102.779  0.00  0.00    +0.000 C 
ATOM     18  O   UNK     1      74.431  56.449 101.671  0.00  0.00    +0.000 OA
ATOM     19  C   UNK     1      74.148  56.142 104.032  0.00  0.00    +0.000 C 
ATOM     20  N   UNK     1      73.423  57.014 104.960  0.00  0.00    +0.000 N 
ATOM     21  C   UNK     1      74.061  57.901 105.779  0.00  0.00    +0.000 C 
ATOM     22  O   UNK     1      75.259  57.959 105.902  0.00  0.00    +0.000 OA
ATOM     23  C   UNK     1      73.151  58.901 106.471  0.00  0.00    +0.000 C 
ATOM     24  N   UNK     1      73.710  60.216 106.144  0.00  0.00    +0.000 N 
ATOM     25  C   UNK     1      72.995  61.362 106.306  0.00  0.00    +0.000 C 
ATOM     26  O   UNK     1      71.809  61.370 106.525  0.00  0.00    +0.000 OA
ATOM     27  C   UNK     1      73.821  62.636 106.290  0.00  0.00    +0.000 C 
ATOM     28  C   UNK     1      74.869  62.592 107.412  0.00  0.00    +0.000 C 
ATOM     29  N   UNK     1      72.863  63.719 106.499  0.00  0.00    +0.000 N 
ATOM     30  C   UNK     1      73.166  65.040 106.411  0.00  0.00    +0.000 C 
ATOM     31  O   UNK     1      74.265  65.441 106.122  0.00  0.00    +0.000 OA
ATOM     32  C   UNK     1      71.994  65.959 106.748  0.00  0.00    +0.000 C 
ATOM     33  N   UNK     1      72.518  67.244 107.225  0.00  0.00    +0.000 N 
ATOM     34  C   UNK     1      72.823  68.265 106.367  0.00  0.00    +0.000 C 
ATOM     35  O   UNK     1      72.606  68.217 105.181  0.00  0.00    +0.000 OA
ATOM     36  C   UNK     1      73.457  69.487 107.021  0.00  0.00    +0.000 C 
ATOM     37  N   UNK     1      74.145  70.255 105.973  0.00  0.00    +0.000 N 
ATOM     38  C   UNK     1      75.350  70.872 106.166  0.00  0.00    +0.000 C 
ATOM     39  O   UNK     1      75.949  70.843 107.211  0.00  0.00    +0.000 OA
ATOM     40  C   UNK     1      75.895  71.601 104.949  0.00  0.00    +0.000 C 
ATOM     41  N   UNK     1      77.351  71.703 104.975  0.00  0.00    +0.000 N 
ATOM     42  C   UNK     1      78.255  70.737 104.629  0.00  0.00    +0.000 C 
ATOM     43  O   UNK     1      79.433  70.991 104.718  0.00  0.00    +0.000 OA
ATOM     44  H   UNK     1      74.359  64.972 104.149  0.00  0.00    +0.000 HD
ATOM     45  H   UNK     1      75.935  61.204 100.639  0.00  0.00    +0.000 HD
ATOM     46  H   UNK     1      75.147  58.517 103.963  0.00  0.00    +0.000 HD
ATOM     47  H   UNK     1      72.403  57.020 104.928  0.00  0.00    +0.000 HD
ATOM     48  H   UNK     1      74.681  60.259 105.823  0.00  0.00    +0.000 HD
ATOM     49  H   UNK     1      71.936  63.439 106.826  0.00  0.00    +0.000 HD
ATOM     50  H   UNK     1      72.773  67.311 108.212  0.00  0.00    +0.000 HD
ATOM     51  H   UNK     1      73.707  70.270 105.050  0.00  0.00    +0.000 HD
ATOM     52  H   UNK     1      77.770  72.568 105.314  0.00  0.00    +0.000 HD
ENDROOT
BRANCH   1  55
ATOM     53  C   UNK     1      76.873  69.944 101.946  0.00  0.00    +0.000 C 
ATOM     54  O   UNK     1      77.645  70.859 101.798  0.00  0.00    +0.000 OA
ATOM     55  N   UNK     1      76.726  69.294 103.141  0.00  0.00    +0.000 N 
ATOM     56  H   UNK     1      75.922  68.671 103.262  0.00  0.00    +0.000 HD
BRANCH  53  57
ATOM     57  C   UNK     1      76.067  69.358 100.779  0.00  0.00    +0.000 C 
BRANCH  57  60
ATOM     58  C   UNK     1      77.920  67.860 100.079  0.00  0.00    +0.000 C 
ATOM     59  O   UNK     1      77.900  67.238 101.112  0.00  0.00    +0.000 OA
ATOM     60  N   UNK     1      77.006  68.831  99.779  0.00  0.00    +0.000 N 
ATOM     61  H   UNK     1      77.088  69.315  98.887  0.00  0.00    +0.000 HD
BRANCH  58  62
ATOM     62  C   UNK     1      79.002  67.669  99.016  0.00  0.00    +0.000 C 
BRANCH  62  65
ATOM     63  C   UNK     1      78.266  67.962  96.661  0.00  0.00    +0.000 C 
ATOM     64  O   UNK     1      78.637  69.110  96.627  0.00  0.00    +0.000 OA
ATOM     65  N   UNK     1      78.428  67.167  97.761  0.00  0.00    +0.000 N 
ATOM     66  H   UNK     1      78.105  66.201  97.731  0.00  0.00    +0.000 HD
BRANCH  63  67
ATOM     67  C   UNK     1      77.576  67.288  95.476  0.00  0.00    +0.000 C 
BRANCH  67  70
ATOM     68  C   UNK     1      79.560  66.287  94.336  0.00  0.00    +0.000 C 
ATOM     69  O   UNK     1      79.701  65.439  95.180  0.00  0.00    +0.000 OA
ATOM     70  N   UNK     1      78.533  67.191  94.360  0.00  0.00    +0.000 N 
ATOM     71  H   UNK     1      78.511  67.918  93.644  0.00  0.00    +0.000 HD
BRANCH  68  72
ATOM     72  C   UNK     1      80.500  66.462  93.152  0.00  0.00    +0.000 C 
BRANCH  72  73
ATOM     73  C   UNK     1      81.913  66.924  93.543  0.00  0.00    +0.000 C 
BRANCH  73  74
ATOM     74  C   UNK     1      82.274  68.285  92.926  0.00  0.00    +0.000 C 
BRANCH  74  75
ATOM     75  C   UNK     1      83.745  68.651  93.184  0.00  0.00    +0.000 C 
BRANCH  75  76
ATOM     76  C   UNK     1      84.308  67.957  94.434  0.00  0.00    +0.000 C 
BRANCH  76  77
ATOM     77  C   UNK     1      85.617  68.610  94.909  0.00  0.00    +0.000 C 
BRANCH  77  78
ATOM     78  C   UNK     1      86.494  69.070  93.733  0.00  0.00    +0.000 C 
BRANCH  78  80
ATOM     79  C   UNK     1      88.065  67.273  94.616  0.00  0.00    +0.000 C 
ATOM     80  C   UNK     1      87.569  68.031  93.377  0.00  0.00    +0.000 C 
ENDBRANCH  78  80
ENDBRANCH  77  78
ENDBRANCH  76  77
ENDBRANCH  75  76
ENDBRANCH  74  75
ENDBRANCH  73  74
ENDBRANCH  72  73
ENDBRANCH  68  72
ENDBRANCH  67  70
BRANCH  67  81
ATOM     81  C   UNK     1      76.301  68.001  94.980  0.00  0.00    +0.000 C 
BRANCH  81  82
ATOM     82  C   UNK     1      75.177  68.001  95.975  0.00  0.00    +0.000 A 
ATOM     83  C   UNK     1      74.710  66.939  96.651  0.00  0.00    +0.000 A 
ATOM     84  N   UNK     1      73.727  67.309  97.362  0.00  0.00    +0.000 N 
ATOM     85  C   UNK     1      73.501  68.547  97.213  0.00  0.00    +0.000 A 
ATOM     86  C   UNK     1      74.403  69.031  96.349  0.00  0.00    +0.000 A 
ATOM     87  C   UNK     1      74.392  70.322  95.998  0.00  0.00    +0.000 A 
ATOM     88  C   UNK     1      73.451  71.114  96.541  0.00  0.00    +0.000 A 
ATOM     89  C   UNK     1      72.547  70.623  97.409  0.00  0.00    +0.000 A 
ATOM     90  C   UNK     1      72.560  69.326  97.758  0.00  0.00    +0.000 A 
ATOM     91  H   UNK     1      73.170  66.677  97.982  0.00  0.00    +0.000 HD
ENDBRANCH  81  82
ENDBRANCH  67  81
ENDBRANCH  63  67
ENDBRANCH  62  65
BRANCH  62  92
ATOM     92  C   UNK     1      80.035  66.640  99.525  0.00  0.00    +0.000 C 
BRANCH  92  93
ATOM     93  C   UNK     1      80.816  65.934  98.428  0.00  0.00    +0.000 C 
ATOM     94  N   UNK     1      80.571  64.603  98.313  0.00  0.00    +0.000 N 
ATOM     95  O   UNK     1      81.613  66.481  97.713  0.00  0.00    +0.000 OA
ATOM     96  H   UNK     1      81.097  64.082  97.627  0.00  0.00    +0.000 HD
ATOM     97  H   UNK     1      79.952  64.129  98.956  0.00  0.00    +0.000 HD
ENDBRANCH  92  93
ENDBRANCH  62  92
ENDBRANCH  58  62
ENDBRANCH  57  60
BRANCH  57  98
ATOM     98  C   UNK     1      75.067  70.308 100.101  0.00  0.00    +0.000 C 
BRANCH  98  99
ATOM     99  C   UNK     1      74.027  70.836 101.068  0.00  0.00    +0.000 C 
ATOM    100  O   UNK     1      73.132  70.170 101.524  0.00  0.00    +0.000 OA
BRANCH  99 101
ATOM    101  O   UNK     1      74.170  72.153 101.299  0.00  0.00    +0.000 OA
ATOM    102  H   UNK     1      75.061  72.332 101.640  0.00  0.00    +0.000 HD
ENDBRANCH  99 101
ENDBRANCH  98  99
ENDBRANCH  57  98
ENDBRANCH  53  57
ENDBRANCH   1  55
BRANCH  11 103
ATOM    103  C   UNK     1      75.972  63.762 100.641  0.00  0.00    +0.000 C 
ATOM    104  C   UNK     1      75.193  63.123  99.479  0.00  0.00    +0.000 C 
BRANCH 103 105
ATOM    105  C   UNK     1      77.421  64.099 100.250  0.00  0.00    +0.000 C 
BRANCH 105 106
ATOM    106  C   UNK     1      78.417  63.005 100.557  0.00  0.00    +0.000 C 
ATOM    107  O   UNK     1      78.300  61.842 100.259  0.00  0.00    +0.000 OA
BRANCH 106 108
ATOM    108  O   UNK     1      79.514  63.477 101.181  0.00  0.00    +0.000 OA
ATOM    109  H   UNK     1      80.198  62.787 101.172  0.00  0.00    +0.000 HD
ENDBRANCH 106 108
ENDBRANCH 105 106
ENDBRANCH 103 105
ENDBRANCH  11 103
BRANCH   7 110
ATOM    110  C   UNK     1      77.309  64.305 104.819  0.00  0.00    +0.000 C 
BRANCH 110 111
ATOM    111  C   UNK     1      78.796  64.120 104.485  0.00  0.00    +0.000 C 
ATOM    112  O   UNK     1      79.233  64.971 103.734  0.00  0.00    +0.000 OA
BRANCH 111 113
ATOM    113  C   UNK     1      79.584  63.112 104.980  0.00  0.00    +0.000 A 
ATOM    114  C   UNK     1      80.323  63.381 106.081  0.00  0.00    +0.000 A 
ATOM    115  C   UNK     1      81.117  62.473 106.666  0.00  0.00    +0.000 A 
ATOM    116  C   UNK     1      81.200  61.240 106.157  0.00  0.00    +0.000 A 
ATOM    117  C   UNK     1      80.487  60.947 105.062  0.00  0.00    +0.000 A 
ATOM    118  C   UNK     1      79.691  61.862 104.471  0.00  0.00    +0.000 A 
BRANCH 118 119
ATOM    119  N   UNK     1      79.119  61.401 103.437  0.00  0.00    +0.000 N 
ATOM    120  H   UNK     1      79.375  61.611 102.450  0.00  0.00    +0.000 HD
ATOM    121  H   UNK     1      78.321  60.728 103.546  0.00  0.00    +0.000 HD
ENDBRANCH 118 119
ENDBRANCH 111 113
ENDBRANCH 110 111
ENDBRANCH   7 110
BRANCH  15 122
ATOM    122  C   UNK     1      76.755  58.662 101.334  0.00  0.00    +0.000 C 
BRANCH 122 123
ATOM    123  O   UNK     1      77.804  59.446 101.862  0.00  0.00    +0.000 OA
ATOM    124  H   UNK     1      77.522  60.364 101.864  0.00  0.00    +0.000 HD
ENDBRANCH 122 123
ENDBRANCH  15 122
BRANCH  23 125
ATOM    125  C   UNK     1      73.103  58.691 107.999  0.00  0.00    +0.000 C 
BRANCH 125 126
ATOM    126  C   UNK     1      74.040  59.622 108.757  0.00  0.00    +0.000 C 
ATOM    127  O   UNK     1      73.700  60.441 109.578  0.00  0.00    +0.000 OA
BRANCH 126 128
ATOM    128  O   UNK     1      75.331  59.475 108.385  0.00  0.00    +0.000 OA
ATOM    129  H   UNK     1      75.466  58.577 108.042  0.00  0.00    +0.000 HD
ENDBRANCH 126 128
ENDBRANCH 125 126
ENDBRANCH  23 125
BRANCH  36 130
ATOM    130  C   UNK     1      72.370  70.318 107.723  0.00  0.00    +0.000 C 
BRANCH 130 131
ATOM    131  C   UNK     1      71.432  71.035 106.739  0.00  0.00    +0.000 C 
BRANCH 131 132
ATOM    132  C   UNK     1      69.961  70.658 106.969  0.00  0.00    +0.000 C 
BRANCH 132 133
ATOM    133  N   UNK     1      69.646  69.379 106.312  0.00  0.00    +0.000 NA
ATOM    134  H   UNK     1      69.035  69.537 105.491  0.00  0.00    +0.000 HD
ATOM    135  H   UNK     1      70.506  68.946 105.931  0.00  0.00    +0.000 HD
ENDBRANCH 132 133
ENDBRANCH 131 132
ENDBRANCH 130 131
ENDBRANCH  36 130
BRANCH  32 136
ATOM    136  C   UNK     1      71.057  65.351 107.813  0.00  0.00    +0.000 C 
BRANCH 136 137
ATOM    137  C   UNK     1      70.640  66.428 108.797  0.00  0.00    +0.000 C 
ATOM    138  O   UNK     1      71.064  66.511 109.925  0.00  0.00    +0.000 OA
BRANCH 137 139
ATOM    139  O   UNK     1      69.680  67.239 108.301  0.00  0.00    +0.000 OA
ATOM    140  H   UNK     1      69.297  67.771 109.016  0.00  0.00    +0.000 HD
ENDBRANCH 137 139
ENDBRANCH 136 137
ENDBRANCH  32 136
TORSDOF 42
ENDMDL
MODEL 12
REMARK VINA RESULT:      -6.1      3.518      8.377
REMARK  Name = ./1373.pdb
REMARK  46 active torsions:
REMARK  status: ('A' for Active; 'I' for Inactive)
REMARK    1  A    between atoms: C_1  and  C_2
REMARK    2  A    between atoms: C_2  and  C_3
REMARK    3  A    between atoms: C_3  and  C_4
REMARK    4  A    between atoms: C_4  and  C_5
REMARK    5  A    between atoms: C_5  and  C_6
REMARK    6  A    between atoms: C_6  and  C_7
REMARK    7  A    between atoms: C_7  and  C_8
REMARK    8  A    between atoms: C_8  and  C_9
REMARK    9  A    between atoms: C_9  and  C_10
REMARK   10  A    between atoms: N_12  and  C_13
REMARK   11  A    between atoms: C_13  and  C_14
REMARK   12  A    between atoms: C_13  and  C_24
REMARK   13  A    between atoms: C_14  and  C_15
REMARK   14  A    between atoms: N_26  and  C_27
REMARK   15  A    between atoms: C_27  and  C_28
REMARK   16  A    between atoms: C_27  and  C_32
REMARK   17  A    between atoms: C_28  and  C_29
REMARK   18  A    between atoms: N_34  and  C_35
REMARK   19  A    between atoms: C_35  and  C_36
REMARK   20  A    between atoms: C_35  and  C_40
REMARK   21  A    between atoms: C_36  and  C_37
REMARK   22  A    between atoms: C_37  and  O_38
REMARK   23  A    between atoms: N_42  and  C_43
REMARK   24  A    between atoms: C_44  and  C_45
REMARK   25  A    between atoms: C_49  and  C_50
REMARK   26  A    between atoms: C_50  and  C_51
REMARK   27  A    between atoms: C_51  and  C_53
REMARK   28  A    between atoms: C_58  and  N_59
REMARK   29  A    between atoms: C_63  and  C_110
REMARK   30  A    between atoms: C_67  and  C_68
REMARK   31  A    between atoms: C_68  and  O_69
REMARK   32  A    between atoms: C_77  and  C_78
REMARK   33  A    between atoms: C_78  and  C_79
REMARK   34  A    between atoms: C_79  and  O_80
REMARK   35  A    between atoms: C_85  and  C_86
REMARK   36  A    between atoms: C_90  and  C_91
REMARK   37  A    between atoms: C_91  and  C_92
REMARK   38  A    between atoms: C_92  and  O_93
REMARK   39  A    between atoms: C_98  and  C_99
REMARK   40  A    between atoms: C_99  and  C_100
REMARK   41  A    between atoms: C_100  and  C_101
REMARK   42  A    between atoms: C_101  and  N_102
REMARK   43  A    between atoms: C_110  and  C_111
REMARK   44  A    between atoms: C_110  and  C_112
REMARK   45  A    between atoms: C_112  and  C_113
REMARK   46  A    between atoms: C_113  and  O_114
REMARK                            x       y       z     vdW  Elec       q    Type
REMARK                         _______ _______ _______ _____ _____    ______ ____
ROOT
ATOM      1  C   UNK     1      78.561  70.247  99.905  0.00  0.00    +0.000 C 
ATOM      2  C   UNK     1      78.121  70.266 101.383  0.00  0.00    +0.000 C 
ATOM      3  C   UNK     1      79.087  71.050 102.275  0.00  0.00    +0.000 C 
ATOM      4  O   UNK     1      78.066  68.960 101.886  0.00  0.00    +0.000 OA
ATOM      5  C   UNK     1      76.975  68.185 101.652  0.00  0.00    +0.000 C 
ATOM      6  O   UNK     1      76.002  68.514 101.013  0.00  0.00    +0.000 OA
ATOM      7  C   UNK     1      77.128  66.792 102.278  0.00  0.00    +0.000 C 
ATOM      8  N   UNK     1      75.776  66.239 102.445  0.00  0.00    +0.000 N 
ATOM      9  C   UNK     1      75.437  64.914 102.517  0.00  0.00    +0.000 C 
ATOM     10  O   UNK     1      74.300  64.592 102.751  0.00  0.00    +0.000 OA
ATOM     11  C   UNK     1      76.550  63.895 102.253  0.00  0.00    +0.000 C 
ATOM     12  N   UNK     1      76.334  62.595 102.909  0.00  0.00    +0.000 N 
ATOM     13  C   UNK     1      76.036  62.447 104.239  0.00  0.00    +0.000 C 
ATOM     14  O   UNK     1      75.875  63.369 105.004  0.00  0.00    +0.000 OA
ATOM     15  C   UNK     1      75.920  60.990 104.699  0.00  0.00    +0.000 C 
ATOM     16  N   UNK     1      75.461  60.983 106.091  0.00  0.00    +0.000 N 
ATOM     17  C   UNK     1      74.941  59.877 106.707  0.00  0.00    +0.000 C 
ATOM     18  O   UNK     1      74.846  58.807 106.159  0.00  0.00    +0.000 OA
ATOM     19  C   UNK     1      74.483  60.102 108.144  0.00  0.00    +0.000 C 
ATOM     20  N   UNK     1      73.764  61.373 108.255  0.00  0.00    +0.000 N 
ATOM     21  C   UNK     1      74.410  62.573 108.336  0.00  0.00    +0.000 C 
ATOM     22  O   UNK     1      75.605  62.687 108.446  0.00  0.00    +0.000 OA
ATOM     23  C   UNK     1      73.517  63.792 108.176  0.00  0.00    +0.000 C 
ATOM     24  N   UNK     1      74.133  64.579 107.102  0.00  0.00    +0.000 N 
ATOM     25  C   UNK     1      73.455  65.563 106.453  0.00  0.00    +0.000 C 
ATOM     26  O   UNK     1      72.265  65.722 106.561  0.00  0.00    +0.000 OA
ATOM     27  C   UNK     1      74.327  66.518 105.655  0.00  0.00    +0.000 C 
ATOM     28  C   UNK     1      75.340  67.200 106.587  0.00  0.00    +0.000 C 
ATOM     29  N   UNK     1      73.404  67.487 105.072  0.00  0.00    +0.000 N 
ATOM     30  C   UNK     1      73.757  68.435 104.166  0.00  0.00    +0.000 C 
ATOM     31  O   UNK     1      74.878  68.544 103.737  0.00  0.00    +0.000 OA
ATOM     32  C   UNK     1      72.610  69.364 103.775  0.00  0.00    +0.000 C 
ATOM     33  N   UNK     1      73.166  70.648 103.333  0.00  0.00    +0.000 N 
ATOM     34  C   UNK     1      73.533  70.869 102.034  0.00  0.00    +0.000 C 
ATOM     35  O   UNK     1      73.349  70.068 101.151  0.00  0.00    +0.000 OA
ATOM     36  C   UNK     1      74.192  72.218 101.772  0.00  0.00    +0.000 C 
ATOM     37  N   UNK     1      74.937  72.120 100.509  0.00  0.00    +0.000 N 
ATOM     38  C   UNK     1      76.158  72.704 100.313  0.00  0.00    +0.000 C 
ATOM     39  O   UNK     1      76.725  73.353 101.156  0.00  0.00    +0.000 OA
ATOM     40  C   UNK     1      76.764  72.469  98.939  0.00  0.00    +0.000 C 
ATOM     41  N   UNK     1      78.222  72.550  98.960  0.00  0.00    +0.000 N 
ATOM     42  C   UNK     1      79.100  71.582  99.361  0.00  0.00    +0.000 C 
ATOM     43  O   UNK     1      80.283  71.822  99.319  0.00  0.00    +0.000 OA
ATOM     44  H   UNK     1      75.012  66.910 102.541  0.00  0.00    +0.000 HD
ATOM     45  H   UNK     1      76.551  61.751 102.371  0.00  0.00    +0.000 HD
ATOM     46  H   UNK     1      75.569  61.859 106.603  0.00  0.00    +0.000 HD
ATOM     47  H   UNK     1      72.746  61.367 108.180  0.00  0.00    +0.000 HD
ATOM     48  H   UNK     1      75.114  64.395 106.874  0.00  0.00    +0.000 HD
ATOM     49  H   UNK     1      72.458  67.494 105.459  0.00  0.00    +0.000 HD
ATOM     50  H   UNK     1      73.395  71.335 104.054  0.00  0.00    +0.000 HD
ATOM     51  H   UNK     1      74.527  71.538  99.776  0.00  0.00    +0.000 HD
ATOM     52  H   UNK     1      78.662  73.425  98.679  0.00  0.00    +0.000 HD
ENDROOT
BRANCH   1  55
ATOM     53  C   UNK     1      77.770  69.250  97.766  0.00  0.00    +0.000 C 
ATOM     54  O   UNK     1      78.581  69.843  97.097  0.00  0.00    +0.000 OA
ATOM     55  N   UNK     1      77.563  69.532  99.089  0.00  0.00    +0.000 N 
ATOM     56  H   UNK     1      76.732  69.145  99.547  0.00  0.00    +0.000 HD
BRANCH  53  57
ATOM     57  C   UNK     1      76.976  68.057  97.220  0.00  0.00    +0.000 C 
BRANCH  57  60
ATOM     58  C   UNK     1      78.255  65.944  96.956  0.00  0.00    +0.000 C 
ATOM     59  O   UNK     1      77.707  65.414  97.890  0.00  0.00    +0.000 OA
ATOM     60  N   UNK     1      77.897  67.177  96.486  0.00  0.00    +0.000 N 
ATOM     61  H   UNK     1      78.408  67.561  95.693  0.00  0.00    +0.000 HD
BRANCH  58  62
ATOM     62  C   UNK     1      79.446  65.318  96.229  0.00  0.00    +0.000 C 
BRANCH  62  65
ATOM     63  C   UNK     1      81.327  66.535  97.302  0.00  0.00    +0.000 C 
ATOM     64  O   UNK     1      80.937  67.606  96.907  0.00  0.00    +0.000 OA
ATOM     65  N   UNK     1      80.658  65.369  97.056  0.00  0.00    +0.000 N 
ATOM     66  H   UNK     1      81.028  64.493  97.422  0.00  0.00    +0.000 HD
BRANCH  63  67
ATOM     67  C   UNK     1      82.613  66.379  98.114  0.00  0.00    +0.000 C 
BRANCH  67  70
ATOM     68  C   UNK     1      84.604  67.243  96.878  0.00  0.00    +0.000 C 
ATOM     69  O   UNK     1      84.556  68.320  97.417  0.00  0.00    +0.000 OA
ATOM     70  N   UNK     1      83.745  66.223  97.185  0.00  0.00    +0.000 N 
ATOM     71  H   UNK     1      83.808  65.359  96.646  0.00  0.00    +0.000 HD
BRANCH  68  72
ATOM     72  C   UNK     1      85.612  66.889  95.794  0.00  0.00    +0.000 C 
BRANCH  72  73
ATOM     73  C   UNK     1      86.159  65.457  95.899  0.00  0.00    +0.000 C 
BRANCH  73  74
ATOM     74  C   UNK     1      87.322  65.348  96.899  0.00  0.00    +0.000 C 
BRANCH  74  75
ATOM     75  C   UNK     1      87.375  63.957  97.555  0.00  0.00    +0.000 C 
BRANCH  75  76
ATOM     76  C   UNK     1      86.362  63.813  98.700  0.00  0.00    +0.000 C 
BRANCH  76  77
ATOM     77  C   UNK     1      85.280  62.769  98.377  0.00  0.00    +0.000 C 
BRANCH  77  78
ATOM     78  C   UNK     1      84.784  62.041  99.637  0.00  0.00    +0.000 C 
BRANCH  78  80
ATOM     79  C   UNK     1      85.246  61.510 102.082  0.00  0.00    +0.000 C 
ATOM     80  C   UNK     1      85.696  62.299 100.846  0.00  0.00    +0.000 C 
ENDBRANCH  78  80
ENDBRANCH  77  78
ENDBRANCH  76  77
ENDBRANCH  75  76
ENDBRANCH  74  75
ENDBRANCH  73  74
ENDBRANCH  72  73
ENDBRANCH  68  72
ENDBRANCH  67  70
BRANCH  67  81
ATOM     81  C   UNK     1      82.612  65.198  99.105  0.00  0.00    +0.000 C 
BRANCH  81  82
ATOM     82  C   UNK     1      83.397  65.452 100.358  0.00  0.00    +0.000 A 
ATOM     83  C   UNK     1      84.463  66.260 100.481  0.00  0.00    +0.000 A 
ATOM     84  N   UNK     1      84.892  66.186 101.673  0.00  0.00    +0.000 N 
ATOM     85  C   UNK     1      84.189  65.387 102.360  0.00  0.00    +0.000 A 
ATOM     86  C   UNK     1      83.221  64.904 101.570  0.00  0.00    +0.000 A 
ATOM     87  C   UNK     1      82.330  64.023 102.039  0.00  0.00    +0.000 A 
ATOM     88  C   UNK     1      82.438  63.641 103.324  0.00  0.00    +0.000 A 
ATOM     89  C   UNK     1      83.413  64.130 104.113  0.00  0.00    +0.000 A 
ATOM     90  C   UNK     1      84.306  65.014 103.640  0.00  0.00    +0.000 A 
ATOM     91  H   UNK     1      85.722  66.708 102.039  0.00  0.00    +0.000 HD
ENDBRANCH  81  82
ENDBRANCH  67  81
ENDBRANCH  63  67
ENDBRANCH  62  65
BRANCH  62  92
ATOM     92  C   UNK     1      79.712  66.103  94.925  0.00  0.00    +0.000 C 
BRANCH  92  93
ATOM     93  C   UNK     1      80.518  65.342  93.885  0.00  0.00    +0.000 C 
ATOM     94  N   UNK     1      81.488  66.066  93.268  0.00  0.00    +0.000 N 
ATOM     95  O   UNK     1      80.322  64.193  93.592  0.00  0.00    +0.000 OA
ATOM     96  H   UNK     1      82.023  65.616  92.539  0.00  0.00    +0.000 HD
ATOM     97  H   UNK     1      81.611  67.049  93.464  0.00  0.00    +0.000 HD
ENDBRANCH  92  93
ENDBRANCH  62  92
ENDBRANCH  58  62
ENDBRANCH  57  60
BRANCH  57  98
ATOM     98  C   UNK     1      75.767  68.394  96.333  0.00  0.00    +0.000 C 
BRANCH  98  99
ATOM     99  C   UNK     1      74.596  67.463  96.578  0.00  0.00    +0.000 C 
ATOM    100  O   UNK     1      74.063  66.810  95.718  0.00  0.00    +0.000 OA
BRANCH  99 101
ATOM    101  O   UNK     1      74.168  67.511  97.852  0.00  0.00    +0.000 OA
ATOM    102  H   UNK     1      74.816  67.083  98.433  0.00  0.00    +0.000 HD
ENDBRANCH  99 101
ENDBRANCH  98  99
ENDBRANCH  57  98
ENDBRANCH  53  57
ENDBRANCH   1  55
BRANCH  11 103
ATOM    103  C   UNK     1      76.681  63.704 100.722  0.00  0.00    +0.000 C 
ATOM    104  C   UNK     1      75.369  63.232 100.071  0.00  0.00    +0.000 C 
BRANCH 103 105
ATOM    105  C   UNK     1      77.866  62.793 100.361  0.00  0.00    +0.000 C 
BRANCH 105 106
ATOM    106  C   UNK     1      79.095  63.531  99.884  0.00  0.00    +0.000 C 
ATOM    107  O   UNK     1      79.883  63.131  99.062  0.00  0.00    +0.000 OA
BRANCH 106 108
ATOM    108  O   UNK     1      79.210  64.747 100.452  0.00  0.00    +0.000 OA
ATOM    109  H   UNK     1      78.333  65.030 100.761  0.00  0.00    +0.000 HD
ENDBRANCH 106 108
ENDBRANCH 105 106
ENDBRANCH 103 105
ENDBRANCH  11 103
BRANCH   7 110
ATOM    110  C   UNK     1      77.915  66.808 103.617  0.00  0.00    +0.000 C 
BRANCH 110 111
ATOM    111  C   UNK     1      79.357  66.283 103.578  0.00  0.00    +0.000 C 
ATOM    112  O   UNK     1      79.435  65.072 103.654  0.00  0.00    +0.000 OA
BRANCH 111 113
ATOM    113  C   UNK     1      80.470  67.077 103.456  0.00  0.00    +0.000 A 
ATOM    114  C   UNK     1      81.138  67.392 104.590  0.00  0.00    +0.000 A 
ATOM    115  C   UNK     1      82.247  68.146 104.597  0.00  0.00    +0.000 A 
ATOM    116  C   UNK     1      82.733  68.620 103.444  0.00  0.00    +0.000 A 
ATOM    117  C   UNK     1      82.087  68.332 102.307  0.00  0.00    +0.000 A 
ATOM    118  C   UNK     1      80.969  67.577 102.301  0.00  0.00    +0.000 A 
BRANCH 118 119
ATOM    119  N   UNK     1      80.493  67.437 101.134  0.00  0.00    +0.000 N 
ATOM    120  H   UNK     1      80.980  67.662 100.242  0.00  0.00    +0.000 HD
ATOM    121  H   UNK     1      79.529  67.040 101.015  0.00  0.00    +0.000 HD
ENDBRANCH 118 119
ENDBRANCH 111 113
ENDBRANCH 110 111
ENDBRANCH   7 110
BRANCH  15 122
ATOM    122  C   UNK     1      77.257  60.256 104.579  0.00  0.00    +0.000 C 
BRANCH 122 123
ATOM    123  O   UNK     1      77.458  59.823 103.250  0.00  0.00    +0.000 OA
ATOM    124  H   UNK     1      76.820  60.272 102.689  0.00  0.00    +0.000 HD
ENDBRANCH 122 123
ENDBRANCH  15 122
BRANCH  23 125
ATOM    125  C   UNK     1      73.416  64.621 109.473  0.00  0.00    +0.000 C 
BRANCH 125 126
ATOM    126  C   UNK     1      71.978  64.896 109.893  0.00  0.00    +0.000 C 
ATOM    127  O   UNK     1      71.317  64.199 110.624  0.00  0.00    +0.000 OA
BRANCH 126 128
ATOM    128  O   UNK     1      71.474  66.010 109.317  0.00  0.00    +0.000 OA
ATOM    129  H   UNK     1      71.908  66.154 108.460  0.00  0.00    +0.000 HD
ENDBRANCH 126 128
ENDBRANCH 125 126
ENDBRANCH  23 125
BRANCH  36 130
ATOM    130  C   UNK     1      73.116  73.316 101.720  0.00  0.00    +0.000 C 
BRANCH 130 131
ATOM    131  C   UNK     1      71.751  72.798 101.239  0.00  0.00    +0.000 C 
BRANCH 131 132
ATOM    132  C   UNK     1      71.617  72.868  99.711  0.00  0.00    +0.000 C 
BRANCH 132 133
ATOM    133  N   UNK     1      71.335  71.535  99.154  0.00  0.00    +0.000 NA
ATOM    134  H   UNK     1      70.922  71.619  98.209  0.00  0.00    +0.000 HD
ATOM    135  H   UNK     1      72.215  71.006  99.019  0.00  0.00    +0.000 HD
ENDBRANCH 132 133
ENDBRANCH 131 132
ENDBRANCH 130 131
ENDBRANCH  36 130
BRANCH  32 136
ATOM    136  C   UNK     1      71.621  69.598 104.937  0.00  0.00    +0.000 C 
BRANCH 136 137
ATOM    137  C   UNK     1      70.493  70.498 104.470  0.00  0.00    +0.000 C 
ATOM    138  O   UNK     1      69.911  71.277 105.188  0.00  0.00    +0.000 OA
BRANCH 137 139
ATOM    139  O   UNK     1      70.153  70.278 103.181  0.00  0.00    +0.000 OA
ATOM    140  H   UNK     1      70.806  70.691 102.593  0.00  0.00    +0.000 HD
ENDBRANCH 137 139
ENDBRANCH 136 137
ENDBRANCH  32 136
TORSDOF 42
ENDMDL
MODEL 13
REMARK VINA RESULT:      -6.1      5.035      9.106
REMARK  Name = ./1373.pdb
REMARK  46 active torsions:
REMARK  status: ('A' for Active; 'I' for Inactive)
REMARK    1  A    between atoms: C_1  and  C_2
REMARK    2  A    between atoms: C_2  and  C_3
REMARK    3  A    between atoms: C_3  and  C_4
REMARK    4  A    between atoms: C_4  and  C_5
REMARK    5  A    between atoms: C_5  and  C_6
REMARK    6  A    between atoms: C_6  and  C_7
REMARK    7  A    between atoms: C_7  and  C_8
REMARK    8  A    between atoms: C_8  and  C_9
REMARK    9  A    between atoms: C_9  and  C_10
REMARK   10  A    between atoms: N_12  and  C_13
REMARK   11  A    between atoms: C_13  and  C_14
REMARK   12  A    between atoms: C_13  and  C_24
REMARK   13  A    between atoms: C_14  and  C_15
REMARK   14  A    between atoms: N_26  and  C_27
REMARK   15  A    between atoms: C_27  and  C_28
REMARK   16  A    between atoms: C_27  and  C_32
REMARK   17  A    between atoms: C_28  and  C_29
REMARK   18  A    between atoms: N_34  and  C_35
REMARK   19  A    between atoms: C_35  and  C_36
REMARK   20  A    between atoms: C_35  and  C_40
REMARK   21  A    between atoms: C_36  and  C_37
REMARK   22  A    between atoms: C_37  and  O_38
REMARK   23  A    between atoms: N_42  and  C_43
REMARK   24  A    between atoms: C_44  and  C_45
REMARK   25  A    between atoms: C_49  and  C_50
REMARK   26  A    between atoms: C_50  and  C_51
REMARK   27  A    between atoms: C_51  and  C_53
REMARK   28  A    between atoms: C_58  and  N_59
REMARK   29  A    between atoms: C_63  and  C_110
REMARK   30  A    between atoms: C_67  and  C_68
REMARK   31  A    between atoms: C_68  and  O_69
REMARK   32  A    between atoms: C_77  and  C_78
REMARK   33  A    between atoms: C_78  and  C_79
REMARK   34  A    between atoms: C_79  and  O_80
REMARK   35  A    between atoms: C_85  and  C_86
REMARK   36  A    between atoms: C_90  and  C_91
REMARK   37  A    between atoms: C_91  and  C_92
REMARK   38  A    between atoms: C_92  and  O_93
REMARK   39  A    between atoms: C_98  and  C_99
REMARK   40  A    between atoms: C_99  and  C_100
REMARK   41  A    between atoms: C_100  and  C_101
REMARK   42  A    between atoms: C_101  and  N_102
REMARK   43  A    between atoms: C_110  and  C_111
REMARK   44  A    between atoms: C_110  and  C_112
REMARK   45  A    between atoms: C_112  and  C_113
REMARK   46  A    between atoms: C_113  and  O_114
REMARK                            x       y       z     vdW  Elec       q    Type
REMARK                         _______ _______ _______ _____ _____    ______ ____
ROOT
ATOM      1  C   UNK     1      73.009  73.691 107.545  0.00  0.00    +0.000 C 
ATOM      2  C   UNK     1      72.342  73.453 106.174  0.00  0.00    +0.000 C 
ATOM      3  C   UNK     1      70.861  73.083 106.296  0.00  0.00    +0.000 C 
ATOM      4  O   UNK     1      72.975  72.397 105.507  0.00  0.00    +0.000 OA
ATOM      5  C   UNK     1      74.127  72.616 104.821  0.00  0.00    +0.000 C 
ATOM      6  O   UNK     1      74.700  73.678 104.731  0.00  0.00    +0.000 OA
ATOM      7  C   UNK     1      74.656  71.326 104.181  0.00  0.00    +0.000 C 
ATOM      8  N   UNK     1      75.542  71.721 103.074  0.00  0.00    +0.000 N 
ATOM      9  C   UNK     1      76.561  70.981 102.539  0.00  0.00    +0.000 C 
ATOM     10  O   UNK     1      77.154  71.380 101.568  0.00  0.00    +0.000 OA
ATOM     11  C   UNK     1      76.919  69.671 103.248  0.00  0.00    +0.000 C 
ATOM     12  N   UNK     1      77.533  68.665 102.366  0.00  0.00    +0.000 N 
ATOM     13  C   UNK     1      77.002  68.275 101.163  0.00  0.00    +0.000 C 
ATOM     14  O   UNK     1      76.000  68.747 100.679  0.00  0.00    +0.000 OA
ATOM     15  C   UNK     1      77.791  67.166 100.458  0.00  0.00    +0.000 C 
ATOM     16  N   UNK     1      77.200  66.952  99.134  0.00  0.00    +0.000 N 
ATOM     17  C   UNK     1      77.837  66.285  98.123  0.00  0.00    +0.000 C 
ATOM     18  O   UNK     1      78.929  65.791  98.252  0.00  0.00    +0.000 OA
ATOM     19  C   UNK     1      77.060  66.217  96.813  0.00  0.00    +0.000 C 
ATOM     20  N   UNK     1      76.442  67.512  96.521  0.00  0.00    +0.000 N 
ATOM     21  C   UNK     1      75.284  67.920  97.117  0.00  0.00    +0.000 C 
ATOM     22  O   UNK     1      74.611  67.218  97.829  0.00  0.00    +0.000 OA
ATOM     23  C   UNK     1      74.934  69.383  96.903  0.00  0.00    +0.000 C 
ATOM     24  N   UNK     1      74.737  69.931  98.248  0.00  0.00    +0.000 N 
ATOM     25  C   UNK     1      74.734  71.270  98.487  0.00  0.00    +0.000 C 
ATOM     26  O   UNK     1      75.093  72.082  97.671  0.00  0.00    +0.000 OA
ATOM     27  C   UNK     1      74.149  71.677  99.828  0.00  0.00    +0.000 C 
ATOM     28  C   UNK     1      72.695  71.194  99.930  0.00  0.00    +0.000 C 
ATOM     29  N   UNK     1      74.228  73.135  99.856  0.00  0.00    +0.000 N 
ATOM     30  C   UNK     1      73.940  73.899 100.941  0.00  0.00    +0.000 C 
ATOM     31  O   UNK     1      73.614  73.431 102.003  0.00  0.00    +0.000 OA
ATOM     32  C   UNK     1      74.036  75.399 100.674  0.00  0.00    +0.000 C 
ATOM     33  N   UNK     1      73.161  76.107 101.616  0.00  0.00    +0.000 N 
ATOM     34  C   UNK     1      73.592  76.495 102.854  0.00  0.00    +0.000 C 
ATOM     35  O   UNK     1      74.732  76.362 103.227  0.00  0.00    +0.000 OA
ATOM     36  C   UNK     1      72.523  77.121 103.742  0.00  0.00    +0.000 C 
ATOM     37  N   UNK     1      72.985  77.037 105.135  0.00  0.00    +0.000 N 
ATOM     38  C   UNK     1      72.153  76.756 106.184  0.00  0.00    +0.000 C 
ATOM     39  O   UNK     1      70.971  76.557 106.057  0.00  0.00    +0.000 OA
ATOM     40  C   UNK     1      72.835  76.702 107.541  0.00  0.00    +0.000 C 
ATOM     41  N   UNK     1      72.120  75.845 108.482  0.00  0.00    +0.000 N 
ATOM     42  C   UNK     1      72.165  74.481 108.560  0.00  0.00    +0.000 C 
ATOM     43  O   UNK     1      71.498  73.928 109.402  0.00  0.00    +0.000 OA
ATOM     44  H   UNK     1      75.365  72.630 102.645  0.00  0.00    +0.000 HD
ATOM     45  H   UNK     1      78.324  68.131 102.734  0.00  0.00    +0.000 HD
ATOM     46  H   UNK     1      76.255  67.316  99.001  0.00  0.00    +0.000 HD
ATOM     47  H   UNK     1      76.941  68.166  95.918  0.00  0.00    +0.000 HD
ATOM     48  H   UNK     1      74.558  69.274  99.013  0.00  0.00    +0.000 HD
ATOM     49  H   UNK     1      74.422  73.590  98.961  0.00  0.00    +0.000 HD
ATOM     50  H   UNK     1      72.172  76.189 101.368  0.00  0.00    +0.000 HD
ATOM     51  H   UNK     1      73.988  77.146 105.295  0.00  0.00    +0.000 HD
ATOM     52  H   UNK     1      71.484  76.282 109.148  0.00  0.00    +0.000 HD
ENDROOT
BRANCH   1  55
ATOM     53  C   UNK     1      75.383  73.813 108.280  0.00  0.00    +0.000 C 
ATOM     54  O   UNK     1      75.127  73.531 109.425  0.00  0.00    +0.000 OA
ATOM     55  N   UNK     1      74.413  74.101 107.360  0.00  0.00    +0.000 N 
ATOM     56  H   UNK     1      74.693  74.527 106.471  0.00  0.00    +0.000 HD
BRANCH  53  57
ATOM     57  C   UNK     1      76.814  73.767 107.728  0.00  0.00    +0.000 C 
BRANCH  57  60
ATOM     58  C   UNK     1      77.149  71.333 108.089  0.00  0.00    +0.000 C 
ATOM     59  O   UNK     1      76.366  71.025 107.225  0.00  0.00    +0.000 OA
ATOM     60  N   UNK     1      77.515  72.626 108.336  0.00  0.00    +0.000 N 
ATOM     61  H   UNK     1      78.181  72.808 109.084  0.00  0.00    +0.000 HD
BRANCH  58  62
ATOM     62  C   UNK     1      77.777  70.312 109.040  0.00  0.00    +0.000 C 
BRANCH  62  65
ATOM     63  C   UNK     1      76.518  68.229 109.538  0.00  0.00    +0.000 C 
ATOM     64  O   UNK     1      77.186  67.575 108.776  0.00  0.00    +0.000 OA
ATOM     65  N   UNK     1      76.746  69.558 109.763  0.00  0.00    +0.000 N 
ATOM     66  H   UNK     1      76.157  70.061 110.426  0.00  0.00    +0.000 HD
BRANCH  63  67
ATOM     67  C   UNK     1      75.350  67.635 110.324  0.00  0.00    +0.000 C 
BRANCH  67  70
ATOM     68  C   UNK     1      74.749  67.390 112.736  0.00  0.00    +0.000 C 
ATOM     69  O   UNK     1      73.664  66.929 112.488  0.00  0.00    +0.000 OA
ATOM     70  N   UNK     1      75.656  67.711 111.762  0.00  0.00    +0.000 N 
ATOM     71  H   UNK     1      76.532  68.152 112.044  0.00  0.00    +0.000 HD
BRANCH  68  72
ATOM     72  C   UNK     1      75.241  67.676 114.147  0.00  0.00    +0.000 C 
BRANCH  72  73
ATOM     73  C   UNK     1      74.165  67.491 115.229  0.00  0.00    +0.000 C 
BRANCH  73  74
ATOM     74  C   UNK     1      74.260  66.120 115.919  0.00  0.00    +0.000 C 
BRANCH  74  75
ATOM     75  C   UNK     1      75.706  65.598 115.941  0.00  0.00    +0.000 C 
BRANCH  75  76
ATOM     76  C   UNK     1      75.815  64.160 115.409  0.00  0.00    +0.000 C 
BRANCH  76  77
ATOM     77  C   UNK     1      74.929  63.942 114.171  0.00  0.00    +0.000 C 
BRANCH  77  78
ATOM     78  C   UNK     1      75.755  63.840 112.879  0.00  0.00    +0.000 C 
BRANCH  78  80
ATOM     79  C   UNK     1      77.446  62.347 111.701  0.00  0.00    +0.000 C 
ATOM     80  C   UNK     1      76.969  62.912 113.045  0.00  0.00    +0.000 C 
ENDBRANCH  78  80
ENDBRANCH  77  78
ENDBRANCH  76  77
ENDBRANCH  75  76
ENDBRANCH  74  75
ENDBRANCH  73  74
ENDBRANCH  72  73
ENDBRANCH  68  72
ENDBRANCH  67  70
BRANCH  67  81
ATOM     81  C   UNK     1      75.005  66.175 109.963  0.00  0.00    +0.000 C 
BRANCH  81  82
ATOM     82  C   UNK     1      74.132  66.037 108.750  0.00  0.00    +0.000 A 
ATOM     83  C   UNK     1      74.548  65.880 107.482  0.00  0.00    +0.000 A 
ATOM     84  N   UNK     1      73.532  65.847 106.723  0.00  0.00    +0.000 N 
ATOM     85  C   UNK     1      72.462  65.969 107.391  0.00  0.00    +0.000 A 
ATOM     86  C   UNK     1      72.793  66.082 108.685  0.00  0.00    +0.000 A 
ATOM     87  C   UNK     1      71.851  66.234 109.622  0.00  0.00    +0.000 A 
ATOM     88  C   UNK     1      70.567  66.268 109.225  0.00  0.00    +0.000 A 
ATOM     89  C   UNK     1      70.240  66.153 107.924  0.00  0.00    +0.000 A 
ATOM     90  C   UNK     1      71.188  66.002 106.985  0.00  0.00    +0.000 A 
ATOM     91  H   UNK     1      73.570  65.742 105.683  0.00  0.00    +0.000 HD
ENDBRANCH  81  82
ENDBRANCH  67  81
ENDBRANCH  63  67
ENDBRANCH  62  65
BRANCH  62  92
ATOM     92  C   UNK     1      78.652  71.055 110.072  0.00  0.00    +0.000 C 
BRANCH  92  93
ATOM     93  C   UNK     1      80.149  70.895 109.861  0.00  0.00    +0.000 C 
ATOM     94  N   UNK     1      80.901  70.982 110.989  0.00  0.00    +0.000 N 
ATOM     95  O   UNK     1      80.661  70.727 108.787  0.00  0.00    +0.000 OA
ATOM     96  H   UNK     1      81.905  70.924 110.895  0.00  0.00    +0.000 HD
ATOM     97  H   UNK     1      80.480  71.190 111.883  0.00  0.00    +0.000 HD
ENDBRANCH  92  93
ENDBRANCH  62  92
ENDBRANCH  58  62
ENDBRANCH  57  60
BRANCH  57  98
ATOM     98  C   UNK     1      77.652  75.043 107.906  0.00  0.00    +0.000 C 
BRANCH  98  99
ATOM     99  C   UNK     1      77.506  75.995 106.736  0.00  0.00    +0.000 C 
ATOM    100  O   UNK     1      76.447  76.381 106.309  0.00  0.00    +0.000 OA
BRANCH  99 101
ATOM    101  O   UNK     1      78.691  76.299 106.178  0.00  0.00    +0.000 OA
ATOM    102  H   UNK     1      78.596  76.351 105.213  0.00  0.00    +0.000 HD
ENDBRANCH  99 101
ENDBRANCH  98  99
ENDBRANCH  57  98
ENDBRANCH  53  57
ENDBRANCH   1  55
BRANCH  11 103
ATOM    103  C   UNK     1      77.872  69.999 104.424  0.00  0.00    +0.000 C 
ATOM    104  C   UNK     1      79.164  70.696 103.961  0.00  0.00    +0.000 C 
BRANCH 103 105
ATOM    105  C   UNK     1      78.162  68.759 105.286  0.00  0.00    +0.000 C 
BRANCH 105 106
ATOM    106  C   UNK     1      76.991  67.813 105.426  0.00  0.00    +0.000 C 
ATOM    107  O   UNK     1      76.920  66.707 104.950  0.00  0.00    +0.000 OA
BRANCH 106 108
ATOM    108  O   UNK     1      76.015  68.323 106.201  0.00  0.00    +0.000 OA
ATOM    109  H   UNK     1      75.190  68.348 105.686  0.00  0.00    +0.000 HD
ENDBRANCH 106 108
ENDBRANCH 105 106
ENDBRANCH 103 105
ENDBRANCH  11 103
BRANCH   7 110
ATOM    110  C   UNK     1      73.527  70.373 103.704  0.00  0.00    +0.000 C 
BRANCH 110 111
ATOM    111  C   UNK     1      73.125  69.243 104.662  0.00  0.00    +0.000 C 
ATOM    112  O   UNK     1      73.657  68.179 104.406  0.00  0.00    +0.000 OA
BRANCH 111 113
ATOM    113  C   UNK     1      72.265  69.390 105.720  0.00  0.00    +0.000 A 
ATOM    114  C   UNK     1      70.939  69.414 105.447  0.00  0.00    +0.000 A 
ATOM    115  C   UNK     1      70.001  69.536 106.398  0.00  0.00    +0.000 A 
ATOM    116  C   UNK     1      70.368  69.641 107.680  0.00  0.00    +0.000 A 
ATOM    117  C   UNK     1      71.673  69.630 107.979  0.00  0.00    +0.000 A 
ATOM    118  C   UNK     1      72.616  69.511 107.022  0.00  0.00    +0.000 A 
BRANCH 118 119
ATOM    119  N   UNK     1      73.790  69.544 107.501  0.00  0.00    +0.000 N 
ATOM    120  H   UNK     1      74.645  69.148 107.058  0.00  0.00    +0.000 HD
ATOM    121  H   UNK     1      73.959  70.025 108.418  0.00  0.00    +0.000 HD
ENDBRANCH 118 119
ENDBRANCH 111 113
ENDBRANCH 110 111
ENDBRANCH   7 110
BRANCH  15 122
ATOM    122  C   UNK     1      77.770  65.864 101.263  0.00  0.00    +0.000 C 
BRANCH 122 123
ATOM    123  O   UNK     1      76.630  65.826 102.095  0.00  0.00    +0.000 OA
ATOM    124  H   UNK     1      75.849  65.826 101.536  0.00  0.00    +0.000 HD
ENDBRANCH 122 123
ENDBRANCH  15 122
BRANCH  23 125
ATOM    125  C   UNK     1      73.664  69.564  96.046  0.00  0.00    +0.000 C 
BRANCH 125 126
ATOM    126  C   UNK     1      73.970  69.841  94.580  0.00  0.00    +0.000 C 
ATOM    127  O   UNK     1      73.173  70.233  93.761  0.00  0.00    +0.000 OA
BRANCH 126 128
ATOM    128  O   UNK     1      75.251  69.557  94.254  0.00  0.00    +0.000 OA
ATOM    129  H   UNK     1      75.639  68.990  94.940  0.00  0.00    +0.000 HD
ENDBRANCH 126 128
ENDBRANCH 125 126
ENDBRANCH  23 125
BRANCH  36 130
ATOM    130  C   UNK     1      72.276  78.574 103.305  0.00  0.00    +0.000 C 
BRANCH 130 131
ATOM    131  C   UNK     1      70.867  78.800 102.735  0.00  0.00    +0.000 C 
BRANCH 131 132
ATOM    132  C   UNK     1      70.906  79.301 101.284  0.00  0.00    +0.000 C 
BRANCH 132 133
ATOM    133  N   UNK     1      71.153  78.184 100.357  0.00  0.00    +0.000 NA
ATOM    134  H   UNK     1      71.743  78.497  99.567  0.00  0.00    +0.000 HD
ATOM    135  H   UNK     1      71.700  77.440 100.826  0.00  0.00    +0.000 HD
ENDBRANCH 132 133
ENDBRANCH 131 132
ENDBRANCH 130 131
ENDBRANCH  36 130
BRANCH  32 136
ATOM    136  C   UNK     1      73.647  75.765  99.226  0.00  0.00    +0.000 C 
BRANCH 136 137
ATOM    137  C   UNK     1      74.213  77.129  98.877  0.00  0.00    +0.000 C 
ATOM    138  O   UNK     1      74.171  78.085  99.615  0.00  0.00    +0.000 OA
BRANCH 137 139
ATOM    139  O   UNK     1      74.699  77.182  97.618  0.00  0.00    +0.000 OA
ATOM    140  H   UNK     1      75.583  76.781  97.589  0.00  0.00    +0.000 HD
ENDBRANCH 137 139
ENDBRANCH 136 137
ENDBRANCH  32 136
TORSDOF 42
ENDMDL
MODEL 14
REMARK VINA RESULT:      -6.1      3.118      8.276
REMARK  Name = ./1373.pdb
REMARK  46 active torsions:
REMARK  status: ('A' for Active; 'I' for Inactive)
REMARK    1  A    between atoms: C_1  and  C_2
REMARK    2  A    between atoms: C_2  and  C_3
REMARK    3  A    between atoms: C_3  and  C_4
REMARK    4  A    between atoms: C_4  and  C_5
REMARK    5  A    between atoms: C_5  and  C_6
REMARK    6  A    between atoms: C_6  and  C_7
REMARK    7  A    between atoms: C_7  and  C_8
REMARK    8  A    between atoms: C_8  and  C_9
REMARK    9  A    between atoms: C_9  and  C_10
REMARK   10  A    between atoms: N_12  and  C_13
REMARK   11  A    between atoms: C_13  and  C_14
REMARK   12  A    between atoms: C_13  and  C_24
REMARK   13  A    between atoms: C_14  and  C_15
REMARK   14  A    between atoms: N_26  and  C_27
REMARK   15  A    between atoms: C_27  and  C_28
REMARK   16  A    between atoms: C_27  and  C_32
REMARK   17  A    between atoms: C_28  and  C_29
REMARK   18  A    between atoms: N_34  and  C_35
REMARK   19  A    between atoms: C_35  and  C_36
REMARK   20  A    between atoms: C_35  and  C_40
REMARK   21  A    between atoms: C_36  and  C_37
REMARK   22  A    between atoms: C_37  and  O_38
REMARK   23  A    between atoms: N_42  and  C_43
REMARK   24  A    between atoms: C_44  and  C_45
REMARK   25  A    between atoms: C_49  and  C_50
REMARK   26  A    between atoms: C_50  and  C_51
REMARK   27  A    between atoms: C_51  and  C_53
REMARK   28  A    between atoms: C_58  and  N_59
REMARK   29  A    between atoms: C_63  and  C_110
REMARK   30  A    between atoms: C_67  and  C_68
REMARK   31  A    between atoms: C_68  and  O_69
REMARK   32  A    between atoms: C_77  and  C_78
REMARK   33  A    between atoms: C_78  and  C_79
REMARK   34  A    between atoms: C_79  and  O_80
REMARK   35  A    between atoms: C_85  and  C_86
REMARK   36  A    between atoms: C_90  and  C_91
REMARK   37  A    between atoms: C_91  and  C_92
REMARK   38  A    between atoms: C_92  and  O_93
REMARK   39  A    between atoms: C_98  and  C_99
REMARK   40  A    between atoms: C_99  and  C_100
REMARK   41  A    between atoms: C_100  and  C_101
REMARK   42  A    between atoms: C_101  and  N_102
REMARK   43  A    between atoms: C_110  and  C_111
REMARK   44  A    between atoms: C_110  and  C_112
REMARK   45  A    between atoms: C_112  and  C_113
REMARK   46  A    between atoms: C_113  and  O_114
REMARK                            x       y       z     vdW  Elec       q    Type
REMARK                         _______ _______ _______ _____ _____    ______ ____
ROOT
ATOM      1  C   UNK     1      76.651  70.967 105.649  0.00  0.00    +0.000 C 
ATOM      2  C   UNK     1      76.273  69.833 106.624  0.00  0.00    +0.000 C 
ATOM      3  C   UNK     1      77.016  69.932 107.959  0.00  0.00    +0.000 C 
ATOM      4  O   UNK     1      76.596  68.590 106.067  0.00  0.00    +0.000 OA
ATOM      5  C   UNK     1      75.753  68.001 105.178  0.00  0.00    +0.000 C 
ATOM      6  O   UNK     1      74.706  68.465 104.789  0.00  0.00    +0.000 OA
ATOM      7  C   UNK     1      76.305  66.658 104.682  0.00  0.00    +0.000 C 
ATOM      8  N   UNK     1      75.163  65.876 104.184  0.00  0.00    +0.000 N 
ATOM      9  C   UNK     1      75.205  64.866 103.261  0.00  0.00    +0.000 C 
ATOM     10  O   UNK     1      74.208  64.237 103.006  0.00  0.00    +0.000 OA
ATOM     11  C   UNK     1      76.545  64.613 102.564  0.00  0.00    +0.000 C 
ATOM     12  N   UNK     1      76.717  63.230 102.089  0.00  0.00    +0.000 N 
ATOM     13  C   UNK     1      76.516  62.121 102.870  0.00  0.00    +0.000 C 
ATOM     14  O   UNK     1      76.135  62.158 104.016  0.00  0.00    +0.000 OA
ATOM     15  C   UNK     1      76.822  60.794 102.166  0.00  0.00    +0.000 C 
ATOM     16  N   UNK     1      76.430  59.699 103.059  0.00  0.00    +0.000 N 
ATOM     17  C   UNK     1      76.255  58.409 102.639  0.00  0.00    +0.000 C 
ATOM     18  O   UNK     1      76.440  58.062 101.498  0.00  0.00    +0.000 OA
ATOM     19  C   UNK     1      75.802  57.439 103.724  0.00  0.00    +0.000 C 
ATOM     20  N   UNK     1      74.766  58.054 104.556  0.00  0.00    +0.000 N 
ATOM     21  C   UNK     1      75.059  58.940 105.553  0.00  0.00    +0.000 C 
ATOM     22  O   UNK     1      76.179  59.196 105.916  0.00  0.00    +0.000 OA
ATOM     23  C   UNK     1      73.861  59.675 106.128  0.00  0.00    +0.000 C 
ATOM     24  N   UNK     1      74.199  61.098 106.023  0.00  0.00    +0.000 N 
ATOM     25  C   UNK     1      73.255  62.072 106.131  0.00  0.00    +0.000 C 
ATOM     26  O   UNK     1      72.072  61.843 106.110  0.00  0.00    +0.000 OA
ATOM     27  C   UNK     1      73.804  63.466 106.380  0.00  0.00    +0.000 C 
ATOM     28  C   UNK     1      74.621  63.479 107.681  0.00  0.00    +0.000 C 
ATOM     29  N   UNK     1      72.630  64.329 106.481  0.00  0.00    +0.000 N 
ATOM     30  C   UNK     1      72.678  65.684 106.560  0.00  0.00    +0.000 C 
ATOM     31  O   UNK     1      73.711  66.305 106.528  0.00  0.00    +0.000 OA
ATOM     32  C   UNK     1      71.307  66.335 106.729  0.00  0.00    +0.000 C 
ATOM     33  N   UNK     1      71.473  67.629 107.401  0.00  0.00    +0.000 N 
ATOM     34  C   UNK     1      71.721  68.779 106.705  0.00  0.00    +0.000 C 
ATOM     35  O   UNK     1      71.735  68.831 105.500  0.00  0.00    +0.000 OA
ATOM     36  C   UNK     1      71.974  70.011 107.567  0.00  0.00    +0.000 C 
ATOM     37  N   UNK     1      72.674  71.005 106.741  0.00  0.00    +0.000 N 
ATOM     38  C   UNK     1      73.680  71.800 107.218  0.00  0.00    +0.000 C 
ATOM     39  O   UNK     1      74.075  71.757 108.356  0.00  0.00    +0.000 OA
ATOM     40  C   UNK     1      74.280  72.751 106.195  0.00  0.00    +0.000 C 
ATOM     41  N   UNK     1      75.659  73.106 106.518  0.00  0.00    +0.000 N 
ATOM     42  C   UNK     1      76.783  72.363 106.282  0.00  0.00    +0.000 C 
ATOM     43  O   UNK     1      77.852  72.810 106.623  0.00  0.00    +0.000 OA
ATOM     44  H   UNK     1      74.248  66.091 104.582  0.00  0.00    +0.000 HD
ATOM     45  H   UNK     1      77.140  63.095 101.166  0.00  0.00    +0.000 HD
ATOM     46  H   UNK     1      76.310  59.945 104.043  0.00  0.00    +0.000 HD
ATOM     47  H   UNK     1      73.787  57.882 104.323  0.00  0.00    +0.000 HD
ATOM     48  H   UNK     1      75.184  61.350 105.906  0.00  0.00    +0.000 HD
ATOM     49  H   UNK     1      71.732  63.853 106.594  0.00  0.00    +0.000 HD
ATOM     50  H   UNK     1      71.529  67.625 108.422  0.00  0.00    +0.000 HD
ATOM     51  H   UNK     1      72.415  71.049 105.753  0.00  0.00    +0.000 HD
ATOM     52  H   UNK     1      75.832  73.986 107.001  0.00  0.00    +0.000 HD
ENDROOT
BRANCH   1  55
ATOM     53  C   UNK     1      76.444  70.832 103.173  0.00  0.00    +0.000 C 
ATOM     54  O   UNK     1      77.561  71.245 102.978  0.00  0.00    +0.000 OA
ATOM     55  N   UNK     1      75.860  70.853 104.410  0.00  0.00    +0.000 N 
ATOM     56  H   UNK     1      74.853  70.682 104.478  0.00  0.00    +0.000 HD
BRANCH  53  57
ATOM     57  C   UNK     1      75.621  70.149 102.073  0.00  0.00    +0.000 C 
BRANCH  57  60
ATOM     58  C   UNK     1      76.304  69.771  99.716  0.00  0.00    +0.000 C 
ATOM     59  O   UNK     1      75.930  68.625  99.717  0.00  0.00    +0.000 OA
ATOM     60  N   UNK     1      76.102  70.621 100.767  0.00  0.00    +0.000 N 
ATOM     61  H   UNK     1      76.448  71.576 100.692  0.00  0.00    +0.000 HD
BRANCH  58  62
ATOM     62  C   UNK     1      77.093  70.384  98.558  0.00  0.00    +0.000 C 
BRANCH  62  65
ATOM     63  C   UNK     1      76.340  69.351  96.427  0.00  0.00    +0.000 C 
ATOM     64  O   UNK     1      75.399  70.100  96.329  0.00  0.00    +0.000 OA
ATOM     65  N   UNK     1      77.240  69.429  97.453  0.00  0.00    +0.000 N 
ATOM     66  H   UNK     1      78.023  68.777  97.481  0.00  0.00    +0.000 HD
BRANCH  63  67
ATOM     67  C   UNK     1      76.613  68.240  95.413  0.00  0.00    +0.000 C 
BRANCH  67  70
ATOM     68  C   UNK     1      77.208  66.169  96.676  0.00  0.00    +0.000 C 
ATOM     69  O   UNK     1      76.060  65.816  96.770  0.00  0.00    +0.000 OA
ATOM     70  N   UNK     1      77.582  67.295  95.994  0.00  0.00    +0.000 N 
ATOM     71  H   UNK     1      78.567  67.563  96.007  0.00  0.00    +0.000 HD
BRANCH  68  72
ATOM     72  C   UNK     1      78.374  65.418  97.303  0.00  0.00    +0.000 C 
BRANCH  72  73
ATOM     73  C   UNK     1      79.647  65.418  96.442  0.00  0.00    +0.000 C 
BRANCH  73  74
ATOM     74  C   UNK     1      80.915  65.665  97.275  0.00  0.00    +0.000 C 
BRANCH  74  75
ATOM     75  C   UNK     1      81.706  66.877  96.756  0.00  0.00    +0.000 C 
BRANCH  75  76
ATOM     76  C   UNK     1      83.224  66.646  96.800  0.00  0.00    +0.000 C 
BRANCH  76  77
ATOM     77  C   UNK     1      83.717  66.358  98.228  0.00  0.00    +0.000 C 
BRANCH  77  78
ATOM     78  C   UNK     1      84.439  65.005  98.329  0.00  0.00    +0.000 C 
BRANCH  78  80
ATOM     79  C   UNK     1      84.103  62.570  98.990  0.00  0.00    +0.000 C 
ATOM     80  C   UNK     1      83.697  64.026  99.254  0.00  0.00    +0.000 C 
ENDBRANCH  78  80
ENDBRANCH  77  78
ENDBRANCH  76  77
ENDBRANCH  75  76
ENDBRANCH  74  75
ENDBRANCH  73  74
ENDBRANCH  72  73
ENDBRANCH  68  72
ENDBRANCH  67  70
BRANCH  67  81
ATOM     81  C   UNK     1      77.145  68.727  94.050  0.00  0.00    +0.000 C 
BRANCH  81  82
ATOM     82  C   UNK     1      78.620  69.005  94.034  0.00  0.00    +0.000 A 
ATOM     83  C   UNK     1      79.214  70.171  94.335  0.00  0.00    +0.000 A 
ATOM     84  N   UNK     1      80.465  70.045  94.165  0.00  0.00    +0.000 N 
ATOM     85  C   UNK     1      80.753  68.876  93.772  0.00  0.00    +0.000 A 
ATOM     86  C   UNK     1      79.614  68.176  93.684  0.00  0.00    +0.000 A 
ATOM     87  C   UNK     1      79.623  66.901  93.280  0.00  0.00    +0.000 A 
ATOM     88  C   UNK     1      80.808  66.347  92.969  0.00  0.00    +0.000 A 
ATOM     89  C   UNK     1      81.950  67.054  93.059  0.00  0.00    +0.000 A 
ATOM     90  C   UNK     1      81.938  68.335  93.464  0.00  0.00    +0.000 A 
ATOM     91  H   UNK     1      81.165  70.807  94.319  0.00  0.00    +0.000 HD
ENDBRANCH  81  82
ENDBRANCH  67  81
ENDBRANCH  63  67
ENDBRANCH  62  65
BRANCH  62  92
ATOM     92  C   UNK     1      78.502  70.775  99.055  0.00  0.00    +0.000 C 
BRANCH  92  93
ATOM     93  C   UNK     1      79.320  69.617  99.605  0.00  0.00    +0.000 C 
ATOM     94  N   UNK     1      79.583  69.681 100.936  0.00  0.00    +0.000 N 
ATOM     95  O   UNK     1      79.736  68.711  98.933  0.00  0.00    +0.000 OA
ATOM     96  H   UNK     1      80.159  68.956 101.339  0.00  0.00    +0.000 HD
ATOM     97  H   UNK     1      79.291  70.474 101.489  0.00  0.00    +0.000 HD
ENDBRANCH  92  93
ENDBRANCH  62  92
ENDBRANCH  58  62
ENDBRANCH  57  60
BRANCH  57  98
ATOM     98  C   UNK     1      74.097  70.325 102.157  0.00  0.00    +0.000 C 
BRANCH  98  99
ATOM     99  C   UNK     1      73.521  70.966 100.910  0.00  0.00    +0.000 C 
ATOM    100  O   UNK     1      72.994  70.351 100.019  0.00  0.00    +0.000 OA
BRANCH  99 101
ATOM    101  O   UNK     1      73.737  72.293 100.876  0.00  0.00    +0.000 OA
ATOM    102  H   UNK     1      72.889  72.764 100.880  0.00  0.00    +0.000 HD
ENDBRANCH  99 101
ENDBRANCH  98  99
ENDBRANCH  57  98
ENDBRANCH  53  57
ENDBRANCH   1  55
BRANCH  11 103
ATOM    103  C   UNK     1      76.672  65.602 101.379  0.00  0.00    +0.000 C 
ATOM    104  C   UNK     1      76.545  64.906 100.013  0.00  0.00    +0.000 C 
BRANCH 103 105
ATOM    105  C   UNK     1      77.950  66.450 101.479  0.00  0.00    +0.000 C 
BRANCH 105 106
ATOM    106  C   UNK     1      79.228  65.678 101.245  0.00  0.00    +0.000 C 
ATOM    107  O   UNK     1      79.437  64.541 101.590  0.00  0.00    +0.000 OA
BRANCH 106 108
ATOM    108  O   UNK     1      80.133  66.391 100.546  0.00  0.00    +0.000 OA
ATOM    109  H   UNK     1      80.950  65.870 100.473  0.00  0.00    +0.000 HD
ENDBRANCH 106 108
ENDBRANCH 105 106
ENDBRANCH 103 105
ENDBRANCH  11 103
BRANCH   7 110
ATOM    110  C   UNK     1      77.102  65.887 105.769  0.00  0.00    +0.000 C 
BRANCH 110 111
ATOM    111  C   UNK     1      78.602  65.684 105.514  0.00  0.00    +0.000 C 
ATOM    112  O   UNK     1      79.064  66.459 104.698  0.00  0.00    +0.000 OA
BRANCH 111 113
ATOM    113  C   UNK     1      79.376  64.740 106.140  0.00  0.00    +0.000 A 
ATOM    114  C   UNK     1      79.378  64.733 107.493  0.00  0.00    +0.000 A 
ATOM    115  C   UNK     1      80.081  63.849 108.217  0.00  0.00    +0.000 A 
ATOM    116  C   UNK     1      80.820  62.924 107.595  0.00  0.00    +0.000 A 
ATOM    117  C   UNK     1      80.844  62.913 106.256  0.00  0.00    +0.000 A 
ATOM    118  C   UNK     1      80.141  63.805 105.530  0.00  0.00    +0.000 A 
BRANCH 118 119
ATOM    119  N   UNK     1      80.311  63.646 104.283  0.00  0.00    +0.000 N 
ATOM    120  H   UNK     1      79.789  64.133 103.525  0.00  0.00    +0.000 HD
ATOM    121  H   UNK     1      81.053  62.985 103.944  0.00  0.00    +0.000 HD
ENDBRANCH 118 119
ENDBRANCH 111 113
ENDBRANCH 110 111
ENDBRANCH   7 110
BRANCH  15 122
ATOM    122  C   UNK     1      78.304  60.677 101.806  0.00  0.00    +0.000 C 
BRANCH 122 123
ATOM    123  O   UNK     1      79.056  61.630 102.527  0.00  0.00    +0.000 OA
ATOM    124  H   UNK     1      79.082  62.443 102.015  0.00  0.00    +0.000 HD
ENDBRANCH 122 123
ENDBRANCH  15 122
BRANCH  23 125
ATOM    125  C   UNK     1      73.580  59.285 107.594  0.00  0.00    +0.000 C 
BRANCH 125 126
ATOM    126  C   UNK     1      72.396  58.337 107.741  0.00  0.00    +0.000 C 
ATOM    127  O   UNK     1      72.240  57.313 107.120  0.00  0.00    +0.000 OA
BRANCH 126 128
ATOM    128  O   UNK     1      71.482  58.783 108.630  0.00  0.00    +0.000 OA
ATOM    129  H   UNK     1      71.592  58.307 109.470  0.00  0.00    +0.000 HD
ENDBRANCH 126 128
ENDBRANCH 125 126
ENDBRANCH  23 125
BRANCH  36 130
ATOM    130  C   UNK     1      70.636  70.549 108.103  0.00  0.00    +0.000 C 
BRANCH 130 131
ATOM    131  C   UNK     1      69.954  71.533 107.140  0.00  0.00    +0.000 C 
BRANCH 131 132
ATOM    132  C   UNK     1      68.746  70.902 106.433  0.00  0.00    +0.000 C 
BRANCH 132 133
ATOM    133  N   UNK     1      69.108  70.473 105.072  0.00  0.00    +0.000 NA
ATOM    134  H   UNK     1      69.736  69.651 105.108  0.00  0.00    +0.000 HD
ATOM    135  H   UNK     1      68.268  70.151 104.559  0.00  0.00    +0.000 HD
ENDBRANCH 132 133
ENDBRANCH 131 132
ENDBRANCH 130 131
ENDBRANCH  36 130
BRANCH  32 136
ATOM    136  C   UNK     1      70.332  65.451 107.536  0.00  0.00    +0.000 C 
BRANCH 136 137
ATOM    137  C   UNK     1      70.735  65.453 108.998  0.00  0.00    +0.000 C 
ATOM    138  O   UNK     1      70.532  66.376 109.751  0.00  0.00    +0.000 OA
BRANCH 137 139
ATOM    139  O   UNK     1      71.418  64.343 109.350  0.00  0.00    +0.000 OA
ATOM    140  H   UNK     1      72.371  64.492 109.238  0.00  0.00    +0.000 HD
ENDBRANCH 137 139
ENDBRANCH 136 137
ENDBRANCH  32 136
TORSDOF 42
ENDMDL
MODEL 15
REMARK VINA RESULT:      -6.1      3.075      9.630
REMARK  Name = ./1373.pdb
REMARK  46 active torsions:
REMARK  status: ('A' for Active; 'I' for Inactive)
REMARK    1  A    between atoms: C_1  and  C_2
REMARK    2  A    between atoms: C_2  and  C_3
REMARK    3  A    between atoms: C_3  and  C_4
REMARK    4  A    between atoms: C_4  and  C_5
REMARK    5  A    between atoms: C_5  and  C_6
REMARK    6  A    between atoms: C_6  and  C_7
REMARK    7  A    between atoms: C_7  and  C_8
REMARK    8  A    between atoms: C_8  and  C_9
REMARK    9  A    between atoms: C_9  and  C_10
REMARK   10  A    between atoms: N_12  and  C_13
REMARK   11  A    between atoms: C_13  and  C_14
REMARK   12  A    between atoms: C_13  and  C_24
REMARK   13  A    between atoms: C_14  and  C_15
REMARK   14  A    between atoms: N_26  and  C_27
REMARK   15  A    between atoms: C_27  and  C_28
REMARK   16  A    between atoms: C_27  and  C_32
REMARK   17  A    between atoms: C_28  and  C_29
REMARK   18  A    between atoms: N_34  and  C_35
REMARK   19  A    between atoms: C_35  and  C_36
REMARK   20  A    between atoms: C_35  and  C_40
REMARK   21  A    between atoms: C_36  and  C_37
REMARK   22  A    between atoms: C_37  and  O_38
REMARK   23  A    between atoms: N_42  and  C_43
REMARK   24  A    between atoms: C_44  and  C_45
REMARK   25  A    between atoms: C_49  and  C_50
REMARK   26  A    between atoms: C_50  and  C_51
REMARK   27  A    between atoms: C_51  and  C_53
REMARK   28  A    between atoms: C_58  and  N_59
REMARK   29  A    between atoms: C_63  and  C_110
REMARK   30  A    between atoms: C_67  and  C_68
REMARK   31  A    between atoms: C_68  and  O_69
REMARK   32  A    between atoms: C_77  and  C_78
REMARK   33  A    between atoms: C_78  and  C_79
REMARK   34  A    between atoms: C_79  and  O_80
REMARK   35  A    between atoms: C_85  and  C_86
REMARK   36  A    between atoms: C_90  and  C_91
REMARK   37  A    between atoms: C_91  and  C_92
REMARK   38  A    between atoms: C_92  and  O_93
REMARK   39  A    between atoms: C_98  and  C_99
REMARK   40  A    between atoms: C_99  and  C_100
REMARK   41  A    between atoms: C_100  and  C_101
REMARK   42  A    between atoms: C_101  and  N_102
REMARK   43  A    between atoms: C_110  and  C_111
REMARK   44  A    between atoms: C_110  and  C_112
REMARK   45  A    between atoms: C_112  and  C_113
REMARK   46  A    between atoms: C_113  and  O_114
REMARK                            x       y       z     vdW  Elec       q    Type
REMARK                         _______ _______ _______ _____ _____    ______ ____
ROOT
ATOM      1  C   UNK     1      80.637  61.151 105.468  0.00  0.00    +0.000 C 
ATOM      2  C   UNK     1      80.734  62.502 106.207  0.00  0.00    +0.000 C 
ATOM      3  C   UNK     1      81.418  62.380 107.571  0.00  0.00    +0.000 C 
ATOM      4  O   UNK     1      79.453  63.019 106.436  0.00  0.00    +0.000 OA
ATOM      5  C   UNK     1      78.804  63.693 105.450  0.00  0.00    +0.000 C 
ATOM      6  O   UNK     1      79.231  63.894 104.336  0.00  0.00    +0.000 OA
ATOM      7  C   UNK     1      77.415  64.159 105.906  0.00  0.00    +0.000 C 
ATOM      8  N   UNK     1      77.024  65.279 105.036  0.00  0.00    +0.000 N 
ATOM      9  C   UNK     1      75.749  65.692 104.759  0.00  0.00    +0.000 C 
ATOM     10  O   UNK     1      75.563  66.686 104.103  0.00  0.00    +0.000 OA
ATOM     11  C   UNK     1      74.604  64.821 105.285  0.00  0.00    +0.000 C 
ATOM     12  N   UNK     1      73.349  65.559 105.508  0.00  0.00    +0.000 N 
ATOM     13  C   UNK     1      73.262  66.721 106.231  0.00  0.00    +0.000 C 
ATOM     14  O   UNK     1      74.210  67.287 106.722  0.00  0.00    +0.000 OA
ATOM     15  C   UNK     1      71.836  67.265 106.376  0.00  0.00    +0.000 C 
ATOM     16  N   UNK     1      71.908  68.571 107.038  0.00  0.00    +0.000 N 
ATOM     17  C   UNK     1      70.881  69.475 107.033  0.00  0.00    +0.000 C 
ATOM     18  O   UNK     1      69.819  69.256 106.506  0.00  0.00    +0.000 OA
ATOM     19  C   UNK     1      71.184  70.790 107.744  0.00  0.00    +0.000 C 
ATOM     20  N   UNK     1      72.531  71.253 107.403  0.00  0.00    +0.000 N 
ATOM     21  C   UNK     1      73.651  70.743 107.996  0.00  0.00    +0.000 C 
ATOM     22  O   UNK     1      73.629  69.972 108.922  0.00  0.00    +0.000 OA
ATOM     23  C   UNK     1      74.961  71.141 107.338  0.00  0.00    +0.000 C 
ATOM     24  N   UNK     1      75.651  69.877 107.064  0.00  0.00    +0.000 N 
ATOM     25  C   UNK     1      76.695  69.801 106.196  0.00  0.00    +0.000 C 
ATOM     26  O   UNK     1      76.991  70.697 105.446  0.00  0.00    +0.000 OA
ATOM     27  C   UNK     1      77.528  68.536 106.309  0.00  0.00    +0.000 C 
ATOM     28  C   UNK     1      78.106  68.418 107.727  0.00  0.00    +0.000 C 
ATOM     29  N   UNK     1      78.586  68.680 105.313  0.00  0.00    +0.000 N 
ATOM     30  C   UNK     1      79.470  67.702 104.984  0.00  0.00    +0.000 C 
ATOM     31  O   UNK     1      79.441  66.602 105.476  0.00  0.00    +0.000 OA
ATOM     32  C   UNK     1      80.516  68.144 103.965  0.00  0.00    +0.000 C 
ATOM     33  N   UNK     1      81.720  67.320 104.130  0.00  0.00    +0.000 N 
ATOM     34  C   UNK     1      81.873  66.125 103.483  0.00  0.00    +0.000 C 
ATOM     35  O   UNK     1      81.081  65.706 102.675  0.00  0.00    +0.000 OA
ATOM     36  C   UNK     1      83.132  65.349 103.852  0.00  0.00    +0.000 C 
ATOM     37  N   UNK     1      82.925  63.944 103.476  0.00  0.00    +0.000 N 
ATOM     38  C   UNK     1      83.362  62.894 104.235  0.00  0.00    +0.000 C 
ATOM     39  O   UNK     1      83.956  63.029 105.274  0.00  0.00    +0.000 OA
ATOM     40  C   UNK     1      83.032  61.520 103.672  0.00  0.00    +0.000 C 
ATOM     41  N   UNK     1      82.946  60.504 104.718  0.00  0.00    +0.000 N 
ATOM     42  C   UNK     1      81.891  60.263 105.553  0.00  0.00    +0.000 C 
ATOM     43  O   UNK     1      81.992  59.380 106.372  0.00  0.00    +0.000 OA
ATOM     44  H   UNK     1      77.780  65.819 104.612  0.00  0.00    +0.000 HD
ATOM     45  H   UNK     1      72.476  65.106 105.224  0.00  0.00    +0.000 HD
ATOM     46  H   UNK     1      72.776  68.773 107.536  0.00  0.00    +0.000 HD
ATOM     47  H   UNK     1      72.640  71.915 106.635  0.00  0.00    +0.000 HD
ATOM     48  H   UNK     1      75.352  69.045 107.580  0.00  0.00    +0.000 HD
ATOM     49  H   UNK     1      78.708  69.617 104.922  0.00  0.00    +0.000 HD
ATOM     50  H   UNK     1      82.389  67.604 104.848  0.00  0.00    +0.000 HD
ATOM     51  H   UNK     1      82.381  63.769 102.629  0.00  0.00    +0.000 HD
ATOM     52  H   UNK     1      83.759  59.915 104.888  0.00  0.00    +0.000 HD
ENDROOT
BRANCH   1  55
ATOM     53  C   UNK     1      79.317  60.355 103.515  0.00  0.00    +0.000 C 
ATOM     54  O   UNK     1      79.426  59.191 103.814  0.00  0.00    +0.000 OA
ATOM     55  N   UNK     1      80.027  61.343 104.141  0.00  0.00    +0.000 N 
ATOM     56  H   UNK     1      80.047  62.275 103.715  0.00  0.00    +0.000 HD
BRANCH  53  57
ATOM     57  C   UNK     1      78.292  60.840 102.482  0.00  0.00    +0.000 C 
BRANCH  57  60
ATOM     58  C   UNK     1      78.785  62.463 100.668  0.00  0.00    +0.000 C 
ATOM     59  O   UNK     1      78.353  61.739  99.807  0.00  0.00    +0.000 OA
ATOM     60  N   UNK     1      78.703  62.166 102.000  0.00  0.00    +0.000 N 
ATOM     61  H   UNK     1      79.093  62.827 102.670  0.00  0.00    +0.000 HD
BRANCH  58  62
ATOM     62  C   UNK     1      79.522  63.769 100.363  0.00  0.00    +0.000 C 
BRANCH  62  65
ATOM     63  C   UNK     1      77.749  65.446 100.826  0.00  0.00    +0.000 C 
ATOM     64  O   UNK     1      77.765  65.221 102.011  0.00  0.00    +0.000 OA
ATOM     65  N   UNK     1      78.585  64.820  99.946  0.00  0.00    +0.000 N 
ATOM     66  H   UNK     1      78.536  65.055  98.955  0.00  0.00    +0.000 HD
BRANCH  63  67
ATOM     67  C   UNK     1      76.787  66.453 100.195  0.00  0.00    +0.000 C 
BRANCH  67  70
ATOM     68  C   UNK     1      76.055  66.629  97.813  0.00  0.00    +0.000 C 
ATOM     69  O   UNK     1      74.897  66.777  98.111  0.00  0.00    +0.000 OA
ATOM     70  N   UNK     1      77.050  66.518  98.748  0.00  0.00    +0.000 N 
ATOM     71  H   UNK     1      78.000  66.336  98.423  0.00  0.00    +0.000 HD
BRANCH  68  72
ATOM     72  C   UNK     1      76.552  66.540  96.379  0.00  0.00    +0.000 C 
BRANCH  72  73
ATOM     73  C   UNK     1      77.875  67.283  96.132  0.00  0.00    +0.000 C 
BRANCH  73  74
ATOM     74  C   UNK     1      79.066  66.323  95.985  0.00  0.00    +0.000 C 
BRANCH  74  75
ATOM     75  C   UNK     1      80.148  66.598  97.042  0.00  0.00    +0.000 C 
BRANCH  75  76
ATOM     76  C   UNK     1      81.522  66.876  96.413  0.00  0.00    +0.000 C 
BRANCH  76  77
ATOM     77  C   UNK     1      81.520  66.609  94.898  0.00  0.00    +0.000 C 
BRANCH  77  78
ATOM     78  C   UNK     1      82.528  67.498  94.152  0.00  0.00    +0.000 C 
BRANCH  78  80
ATOM     79  C   UNK     1      82.882  69.127  92.230  0.00  0.00    +0.000 C 
ATOM     80  C   UNK     1      81.867  68.272  93.000  0.00  0.00    +0.000 C 
ENDBRANCH  78  80
ENDBRANCH  77  78
ENDBRANCH  76  77
ENDBRANCH  75  76
ENDBRANCH  74  75
ENDBRANCH  73  74
ENDBRANCH  72  73
ENDBRANCH  68  72
ENDBRANCH  67  70
BRANCH  67  81
ATOM     81  C   UNK     1      76.866  67.877 100.783  0.00  0.00    +0.000 C 
BRANCH  81  82
ATOM     82  C   UNK     1      77.726  68.817  99.990  0.00  0.00    +0.000 A 
ATOM     83  C   UNK     1      77.298  69.796  99.177  0.00  0.00    +0.000 A 
ATOM     84  N   UNK     1      78.306  70.349  98.642  0.00  0.00    +0.000 N 
ATOM     85  C   UNK     1      79.382  69.813  99.040  0.00  0.00    +0.000 A 
ATOM     86  C   UNK     1      79.065  68.841  99.906  0.00  0.00    +0.000 A 
ATOM     87  C   UNK     1      80.016  68.097 100.480  0.00  0.00    +0.000 A 
ATOM     88  C   UNK     1      81.297  68.356 100.162  0.00  0.00    +0.000 A 
ATOM     89  C   UNK     1      81.611  69.334  99.291  0.00  0.00    +0.000 A 
ATOM     90  C   UNK     1      80.653  70.079  98.716  0.00  0.00    +0.000 A 
ATOM     91  H   UNK     1      78.257  71.138  97.956  0.00  0.00    +0.000 HD
ENDBRANCH  81  82
ENDBRANCH  67  81
ENDBRANCH  63  67
ENDBRANCH  62  65
BRANCH  62  92
ATOM     92  C   UNK     1      80.526  63.527  99.215  0.00  0.00    +0.000 C 
BRANCH  92  93
ATOM     93  C   UNK     1      81.985  63.695  99.606  0.00  0.00    +0.000 C 
ATOM     94  N   UNK     1      82.738  64.403  98.726  0.00  0.00    +0.000 N 
ATOM     95  O   UNK     1      82.470  63.230 100.603  0.00  0.00    +0.000 OA
ATOM     96  H   UNK     1      83.723  64.506  98.921  0.00  0.00    +0.000 HD
ATOM     97  H   UNK     1      82.349  64.738  97.856  0.00  0.00    +0.000 HD
ENDBRANCH  92  93
ENDBRANCH  62  92
ENDBRANCH  58  62
ENDBRANCH  57  60
BRANCH  57  98
ATOM     98  C   UNK     1      76.829  60.890 102.948  0.00  0.00    +0.000 C 
BRANCH  98  99
ATOM     99  C   UNK     1      76.610  60.126 104.239  0.00  0.00    +0.000 C 
ATOM    100  O   UNK     1      76.389  58.943 104.292  0.00  0.00    +0.000 OA
BRANCH  99 101
ATOM    101  O   UNK     1      76.610  60.934 105.314  0.00  0.00    +0.000 OA
ATOM    102  H   UNK     1      75.861  60.716 105.890  0.00  0.00    +0.000 HD
ENDBRANCH  99 101
ENDBRANCH  98  99
ENDBRANCH  57  98
ENDBRANCH  53  57
ENDBRANCH   1  55
BRANCH  11 103
ATOM    103  C   UNK     1      74.370  63.666 104.280  0.00  0.00    +0.000 C 
ATOM    104  C   UNK     1      74.459  64.130 102.816  0.00  0.00    +0.000 C 
BRANCH 103 105
ATOM    105  C   UNK     1      73.060  62.915 104.570  0.00  0.00    +0.000 C 
BRANCH 105 106
ATOM    106  C   UNK     1      73.252  61.498 105.062  0.00  0.00    +0.000 C 
ATOM    107  O   UNK     1      72.942  60.497 104.463  0.00  0.00    +0.000 OA
BRANCH 106 108
ATOM    108  O   UNK     1      73.867  61.454 106.259  0.00  0.00    +0.000 OA
ATOM    109  H   UNK     1      73.681  60.595 106.673  0.00  0.00    +0.000 HD
ENDBRANCH 106 108
ENDBRANCH 105 106
ENDBRANCH 103 105
ENDBRANCH  11 103
BRANCH   7 110
ATOM    110  C   UNK     1      77.365  64.551 107.408  0.00  0.00    +0.000 C 
BRANCH 110 111
ATOM    111  C   UNK     1      76.483  63.686 108.320  0.00  0.00    +0.000 C 
ATOM    112  O   UNK     1      76.042  62.695 107.770  0.00  0.00    +0.000 OA
BRANCH 111 113
ATOM    113  C   UNK     1      76.212  63.970 109.634  0.00  0.00    +0.000 A 
ATOM    114  C   UNK     1      76.865  63.251 110.576  0.00  0.00    +0.000 A 
ATOM    115  C   UNK     1      76.696  63.448 111.892  0.00  0.00    +0.000 A 
ATOM    116  C   UNK     1      75.850  64.391 112.317  0.00  0.00    +0.000 A 
ATOM    117  C   UNK     1      75.182  65.113 111.407  0.00  0.00    +0.000 A 
ATOM    118  C   UNK     1      75.349  64.912 110.084  0.00  0.00    +0.000 A 
BRANCH 118 119
ATOM    119  N   UNK     1      74.614  65.676 109.388  0.00  0.00    +0.000 N 
ATOM    120  H   UNK     1      73.632  65.945 109.604  0.00  0.00    +0.000 HD
ATOM    121  H   UNK     1      75.003  66.112 108.516  0.00  0.00    +0.000 HD
ENDBRANCH 118 119
ENDBRANCH 111 113
ENDBRANCH 110 111
ENDBRANCH   7 110
BRANCH  15 122
ATOM    122  C   UNK     1      70.951  66.312 107.181  0.00  0.00    +0.000 C 
BRANCH 122 123
ATOM    123  O   UNK     1      70.755  65.109 106.468  0.00  0.00    +0.000 OA
ATOM    124  H   UNK     1      70.520  65.332 105.563  0.00  0.00    +0.000 HD
ENDBRANCH 122 123
ENDBRANCH  15 122
BRANCH  23 125
ATOM    125  C   UNK     1      75.820  72.050 108.242  0.00  0.00    +0.000 C 
BRANCH 125 126
ATOM    126  C   UNK     1      76.761  71.268 109.149  0.00  0.00    +0.000 C 
ATOM    127  O   UNK     1      77.968  71.310 109.108  0.00  0.00    +0.000 OA
BRANCH 126 128
ATOM    128  O   UNK     1      76.102  70.459 110.008  0.00  0.00    +0.000 OA
ATOM    129  H   UNK     1      76.329  70.704 110.919  0.00  0.00    +0.000 HD
ENDBRANCH 126 128
ENDBRANCH 125 126
ENDBRANCH  23 125
BRANCH  36 130
ATOM    130  C   UNK     1      84.345  65.965 103.134  0.00  0.00    +0.000 C 
BRANCH 130 131
ATOM    131  C   UNK     1      84.155  66.066 101.613  0.00  0.00    +0.000 C 
BRANCH 131 132
ATOM    132  C   UNK     1      85.383  65.556 100.845  0.00  0.00    +0.000 C 
BRANCH 132 133
ATOM    133  N   UNK     1      85.332  64.092 100.700  0.00  0.00    +0.000 NA
ATOM    134  H   UNK     1      85.943  63.639 101.402  0.00  0.00    +0.000 HD
ATOM    135  H   UNK     1      84.379  63.741 100.903  0.00  0.00    +0.000 HD
ENDBRANCH 132 133
ENDBRANCH 131 132
ENDBRANCH 130 131
ENDBRANCH  36 130
BRANCH  32 136
ATOM    136  C   UNK     1      80.884  69.637 104.108  0.00  0.00    +0.000 C 
BRANCH 136 137
ATOM    137  C   UNK     1      82.012  69.788 105.111  0.00  0.00    +0.000 C 
ATOM    138  O   UNK     1      83.163  69.991 104.806  0.00  0.00    +0.000 OA
BRANCH 137 139
ATOM    139  O   UNK     1      81.603  69.591 106.384  0.00  0.00    +0.000 OA
ATOM    140  H   UNK     1      82.041  68.808 106.753  0.00  0.00    +0.000 HD
ENDBRANCH 137 139
ENDBRANCH 136 137
ENDBRANCH  32 136
TORSDOF 42
ENDMDL
MODEL 16
REMARK VINA RESULT:      -6.1      2.904      9.719
REMARK  Name = ./1373.pdb
REMARK  46 active torsions:
REMARK  status: ('A' for Active; 'I' for Inactive)
REMARK    1  A    between atoms: C_1  and  C_2
REMARK    2  A    between atoms: C_2  and  C_3
REMARK    3  A    between atoms: C_3  and  C_4
REMARK    4  A    between atoms: C_4  and  C_5
REMARK    5  A    between atoms: C_5  and  C_6
REMARK    6  A    between atoms: C_6  and  C_7
REMARK    7  A    between atoms: C_7  and  C_8
REMARK    8  A    between atoms: C_8  and  C_9
REMARK    9  A    between atoms: C_9  and  C_10
REMARK   10  A    between atoms: N_12  and  C_13
REMARK   11  A    between atoms: C_13  and  C_14
REMARK   12  A    between atoms: C_13  and  C_24
REMARK   13  A    between atoms: C_14  and  C_15
REMARK   14  A    between atoms: N_26  and  C_27
REMARK   15  A    between atoms: C_27  and  C_28
REMARK   16  A    between atoms: C_27  and  C_32
REMARK   17  A    between atoms: C_28  and  C_29
REMARK   18  A    between atoms: N_34  and  C_35
REMARK   19  A    between atoms: C_35  and  C_36
REMARK   20  A    between atoms: C_35  and  C_40
REMARK   21  A    between atoms: C_36  and  C_37
REMARK   22  A    between atoms: C_37  and  O_38
REMARK   23  A    between atoms: N_42  and  C_43
REMARK   24  A    between atoms: C_44  and  C_45
REMARK   25  A    between atoms: C_49  and  C_50
REMARK   26  A    between atoms: C_50  and  C_51
REMARK   27  A    between atoms: C_51  and  C_53
REMARK   28  A    between atoms: C_58  and  N_59
REMARK   29  A    between atoms: C_63  and  C_110
REMARK   30  A    between atoms: C_67  and  C_68
REMARK   31  A    between atoms: C_68  and  O_69
REMARK   32  A    between atoms: C_77  and  C_78
REMARK   33  A    between atoms: C_78  and  C_79
REMARK   34  A    between atoms: C_79  and  O_80
REMARK   35  A    between atoms: C_85  and  C_86
REMARK   36  A    between atoms: C_90  and  C_91
REMARK   37  A    between atoms: C_91  and  C_92
REMARK   38  A    between atoms: C_92  and  O_93
REMARK   39  A    between atoms: C_98  and  C_99
REMARK   40  A    between atoms: C_99  and  C_100
REMARK   41  A    between atoms: C_100  and  C_101
REMARK   42  A    between atoms: C_101  and  N_102
REMARK   43  A    between atoms: C_110  and  C_111
REMARK   44  A    between atoms: C_110  and  C_112
REMARK   45  A    between atoms: C_112  and  C_113
REMARK   46  A    between atoms: C_113  and  O_114
REMARK                            x       y       z     vdW  Elec       q    Type
REMARK                         _______ _______ _______ _____ _____    ______ ____
ROOT
ATOM      1  C   UNK     1      77.718  71.315 105.886  0.00  0.00    +0.000 C 
ATOM      2  C   UNK     1      77.156  70.202 106.793  0.00  0.00    +0.000 C 
ATOM      3  C   UNK     1      77.841  70.155 108.162  0.00  0.00    +0.000 C 
ATOM      4  O   UNK     1      77.349  68.950 106.196  0.00  0.00    +0.000 OA
ATOM      5  C   UNK     1      76.484  68.506 105.246  0.00  0.00    +0.000 C 
ATOM      6  O   UNK     1      75.522  69.113 104.833  0.00  0.00    +0.000 OA
ATOM      7  C   UNK     1      76.888  67.125 104.716  0.00  0.00    +0.000 C 
ATOM      8  N   UNK     1      75.683  66.512 104.136  0.00  0.00    +0.000 N 
ATOM      9  C   UNK     1      75.644  65.541 103.172  0.00  0.00    +0.000 C 
ATOM     10  O   UNK     1      74.590  65.053 102.847  0.00  0.00    +0.000 OA
ATOM     11  C   UNK     1      76.974  65.148 102.523  0.00  0.00    +0.000 C 
ATOM     12  N   UNK     1      76.996  63.773 101.995  0.00  0.00    +0.000 N 
ATOM     13  C   UNK     1      76.622  62.669 102.717  0.00  0.00    +0.000 C 
ATOM     14  O   UNK     1      76.194  62.711 103.846  0.00  0.00    +0.000 OA
ATOM     15  C   UNK     1      76.794  61.342 101.969  0.00  0.00    +0.000 C 
ATOM     16  N   UNK     1      76.227  60.273 102.796  0.00  0.00    +0.000 N 
ATOM     17  C   UNK     1      75.914  59.032 102.312  0.00  0.00    +0.000 C 
ATOM     18  O   UNK     1      76.109  58.708 101.166  0.00  0.00    +0.000 OA
ATOM     19  C   UNK     1      75.293  58.085 103.333  0.00  0.00    +0.000 C 
ATOM     20  N   UNK     1      74.302  58.794 104.146  0.00  0.00    +0.000 N 
ATOM     21  C   UNK     1      74.654  59.597 105.192  0.00  0.00    +0.000 C 
ATOM     22  O   UNK     1      75.779  59.696 105.614  0.00  0.00    +0.000 OA
ATOM     23  C   UNK     1      73.530  60.455 105.747  0.00  0.00    +0.000 C 
ATOM     24  N   UNK     1      74.047  61.826 105.720  0.00  0.00    +0.000 N 
ATOM     25  C   UNK     1      73.227  62.906 105.829  0.00  0.00    +0.000 C 
ATOM     26  O   UNK     1      72.027  62.829 105.748  0.00  0.00    +0.000 OA
ATOM     27  C   UNK     1      73.931  64.210 106.163  0.00  0.00    +0.000 C 
ATOM     28  C   UNK     1      74.680  64.070 107.497  0.00  0.00    +0.000 C 
ATOM     29  N   UNK     1      72.870  65.210 106.251  0.00  0.00    +0.000 N 
ATOM     30  C   UNK     1      73.082  66.544 106.392  0.00  0.00    +0.000 C 
ATOM     31  O   UNK     1      74.184  67.031 106.431  0.00  0.00    +0.000 OA
ATOM     32  C   UNK     1      71.796  67.355 106.530  0.00  0.00    +0.000 C 
ATOM     33  N   UNK     1      72.089  68.591 107.265  0.00  0.00    +0.000 N 
ATOM     34  C   UNK     1      72.510  69.727 106.632  0.00  0.00    +0.000 C 
ATOM     35  O   UNK     1      72.588  69.823 105.432  0.00  0.00    +0.000 OA
ATOM     36  C   UNK     1      72.872  70.884 107.557  0.00  0.00    +0.000 C 
ATOM     37  N   UNK     1      73.729  71.812 106.806  0.00  0.00    +0.000 N 
ATOM     38  C   UNK     1      74.802  72.455 107.360  0.00  0.00    +0.000 C 
ATOM     39  O   UNK     1      75.133  72.320 108.511  0.00  0.00    +0.000 OA
ATOM     40  C   UNK     1      75.564  73.361 106.407  0.00  0.00    +0.000 C 
ATOM     41  N   UNK     1      76.959  73.528 106.804  0.00  0.00    +0.000 N 
ATOM     42  C   UNK     1      77.992  72.659 106.585  0.00  0.00    +0.000 C 
ATOM     43  O   UNK     1      79.091  72.954 106.991  0.00  0.00    +0.000 OA
ATOM     44  H   UNK     1      74.784  66.825 104.503  0.00  0.00    +0.000 HD
ATOM     45  H   UNK     1      77.443  63.622 101.086  0.00  0.00    +0.000 HD
ATOM     46  H   UNK     1      76.092  60.494 103.784  0.00  0.00    +0.000 HD
ATOM     47  H   UNK     1      73.322  58.756 103.864  0.00  0.00    +0.000 HD
ATOM     48  H   UNK     1      75.060  61.957 105.656  0.00  0.00    +0.000 HD
ATOM     49  H   UNK     1      71.916  64.847 106.304  0.00  0.00    +0.000 HD
ATOM     50  H   UNK     1      72.094  68.541 108.287  0.00  0.00    +0.000 HD
ATOM     51  H   UNK     1      73.525  71.925 105.811  0.00  0.00    +0.000 HD
ATOM     52  H   UNK     1      77.216  74.360 107.333  0.00  0.00    +0.000 HD
ENDROOT
BRANCH   1  55
ATOM     53  C   UNK     1      77.395  72.106 103.549  0.00  0.00    +0.000 C 
ATOM     54  O   UNK     1      78.152  73.037 103.674  0.00  0.00    +0.000 OA
ATOM     55  N   UNK     1      76.980  71.349 104.610  0.00  0.00    +0.000 N 
ATOM     56  H   UNK     1      76.191  70.711 104.476  0.00  0.00    +0.000 HD
BRANCH  53  57
ATOM     57  C   UNK     1      76.915  71.623 102.174  0.00  0.00    +0.000 C 
BRANCH  57  60
ATOM     58  C   UNK     1      75.167  73.281 101.573  0.00  0.00    +0.000 C 
ATOM     59  O   UNK     1      75.967  74.071 101.136  0.00  0.00    +0.000 OA
ATOM     60  N   UNK     1      75.514  72.029 101.997  0.00  0.00    +0.000 N 
ATOM     61  H   UNK     1      74.782  71.417 102.355  0.00  0.00    +0.000 HD
BRANCH  58  62
ATOM     62  C   UNK     1      73.685  73.613 101.749  0.00  0.00    +0.000 C 
BRANCH  62  65
ATOM     63  C   UNK     1      71.814  72.251 102.653  0.00  0.00    +0.000 C 
ATOM     64  O   UNK     1      71.443  73.137 103.382  0.00  0.00    +0.000 OA
ATOM     65  N   UNK     1      72.870  72.393 101.798  0.00  0.00    +0.000 N 
ATOM     66  H   UNK     1      73.135  71.613 101.196  0.00  0.00    +0.000 HD
BRANCH  63  67
ATOM     67  C   UNK     1      71.138  70.880 102.619  0.00  0.00    +0.000 C 
BRANCH  67  70
ATOM     68  C   UNK     1      71.177  70.775 100.124  0.00  0.00    +0.000 C 
ATOM     69  O   UNK     1      70.726  71.886 100.003  0.00  0.00    +0.000 OA
ATOM     70  N   UNK     1      71.463  70.221 101.343  0.00  0.00    +0.000 N 
ATOM     71  H   UNK     1      71.788  69.254 101.370  0.00  0.00    +0.000 HD
BRANCH  68  72
ATOM     72  C   UNK     1      71.478  69.856  98.950  0.00  0.00    +0.000 C 
BRANCH  72  73
ATOM     73  C   UNK     1      71.658  70.594  97.613  0.00  0.00    +0.000 C 
BRANCH  73  74
ATOM     74  C   UNK     1      73.137  70.755  97.229  0.00  0.00    +0.000 C 
BRANCH  74  75
ATOM     75  C   UNK     1      73.348  70.607  95.713  0.00  0.00    +0.000 C 
BRANCH  75  76
ATOM     76  C   UNK     1      74.323  69.471  95.368  0.00  0.00    +0.000 C 
BRANCH  76  77
ATOM     77  C   UNK     1      74.185  68.286  96.339  0.00  0.00    +0.000 C 
BRANCH  77  78
ATOM     78  C   UNK     1      75.307  67.251  96.153  0.00  0.00    +0.000 C 
BRANCH  78  80
ATOM     79  C   UNK     1      73.253  65.750  96.192  0.00  0.00    +0.000 C 
ATOM     80  C   UNK     1      74.784  65.811  96.270  0.00  0.00    +0.000 C 
ENDBRANCH  78  80
ENDBRANCH  77  78
ENDBRANCH  76  77
ENDBRANCH  75  76
ENDBRANCH  74  75
ENDBRANCH  73  74
ENDBRANCH  72  73
ENDBRANCH  68  72
ENDBRANCH  67  70
BRANCH  67  81
ATOM     81  C   UNK     1      69.606  70.911 102.790  0.00  0.00    +0.000 C 
BRANCH  81  82
ATOM     82  C   UNK     1      69.151  70.886 104.220  0.00  0.00    +0.000 A 
ATOM     83  C   UNK     1      69.274  69.860 105.078  0.00  0.00    +0.000 A 
ATOM     84  N   UNK     1      68.734  70.184 106.179  0.00  0.00    +0.000 N 
ATOM     85  C   UNK     1      68.257  71.357 106.122  0.00  0.00    +0.000 A 
ATOM     86  C   UNK     1      68.507  71.847 104.901  0.00  0.00    +0.000 A 
ATOM     87  C   UNK     1      68.103  73.075 104.558  0.00  0.00    +0.000 A 
ATOM     88  C   UNK     1      67.442  73.799 105.479  0.00  0.00    +0.000 A 
ATOM     89  C   UNK     1      67.193  73.303 106.705  0.00  0.00    +0.000 A 
ATOM     90  C   UNK     1      67.600  72.069 107.045  0.00  0.00    +0.000 A 
ATOM     91  H   UNK     1      68.680  69.564 107.020  0.00  0.00    +0.000 HD
ENDBRANCH  81  82
ENDBRANCH  67  81
ENDBRANCH  63  67
ENDBRANCH  62  65
BRANCH  62  92
ATOM     92  C   UNK     1      73.211  74.468 100.554  0.00  0.00    +0.000 C 
BRANCH  92  93
ATOM     93  C   UNK     1      72.018  75.362 100.850  0.00  0.00    +0.000 C 
ATOM     94  N   UNK     1      72.271  76.398 101.692  0.00  0.00    +0.000 N 
ATOM     95  O   UNK     1      70.916  75.179 100.406  0.00  0.00    +0.000 OA
ATOM     96  H   UNK     1      71.499  76.994 101.953  0.00  0.00    +0.000 HD
ATOM     97  H   UNK     1      73.179  76.514 102.119  0.00  0.00    +0.000 HD
ENDBRANCH  92  93
ENDBRANCH  62  92
ENDBRANCH  58  62
ENDBRANCH  57  60
BRANCH  57  98
ATOM     98  C   UNK     1      77.057  70.118 101.896  0.00  0.00    +0.000 C 
BRANCH  98  99
ATOM     99  C   UNK     1      75.809  69.528 101.269  0.00  0.00    +0.000 C 
ATOM    100  O   UNK     1      75.557  69.581 100.092  0.00  0.00    +0.000 OA
BRANCH  99 101
ATOM    101  O   UNK     1      74.977  69.008 102.188  0.00  0.00    +0.000 OA
ATOM    102  H   UNK     1      74.535  68.225 101.826  0.00  0.00    +0.000 HD
ENDBRANCH  99 101
ENDBRANCH  98  99
ENDBRANCH  57  98
ENDBRANCH  53  57
ENDBRANCH   1  55
BRANCH  11 103
ATOM    103  C   UNK     1      77.280  66.158 101.389  0.00  0.00    +0.000 C 
ATOM    104  C   UNK     1      76.674  65.732 100.040  0.00  0.00    +0.000 C 
BRANCH 103 105
ATOM    105  C   UNK     1      78.784  66.454 101.279  0.00  0.00    +0.000 C 
BRANCH 105 106
ATOM    106  C   UNK     1      79.512  65.603 100.264  0.00  0.00    +0.000 C 
ATOM    107  O   UNK     1      79.857  65.960  99.164  0.00  0.00    +0.000 OA
BRANCH 106 108
ATOM    108  O   UNK     1      79.791  64.374 100.738  0.00  0.00    +0.000 OA
ATOM    109  H   UNK     1      79.910  63.770  99.985  0.00  0.00    +0.000 HD
ENDBRANCH 106 108
ENDBRANCH 105 106
ENDBRANCH 103 105
ENDBRANCH  11 103
BRANCH   7 110
ATOM    110  C   UNK     1      77.530  66.218 105.801  0.00  0.00    +0.000 C 
BRANCH 110 111
ATOM    111  C   UNK     1      78.989  65.797 105.576  0.00  0.00    +0.000 C 
ATOM    112  O   UNK     1      79.563  66.465 104.738  0.00  0.00    +0.000 OA
BRANCH 111 113
ATOM    113  C   UNK     1      79.616  64.779 106.250  0.00  0.00    +0.000 A 
ATOM    114  C   UNK     1      79.501  64.759 107.598  0.00  0.00    +0.000 A 
ATOM    115  C   UNK     1      80.054  63.806 108.363  0.00  0.00    +0.000 A 
ATOM    116  C   UNK     1      80.756  62.822 107.791  0.00  0.00    +0.000 A 
ATOM    117  C   UNK     1      80.895  62.821 106.459  0.00  0.00    +0.000 A 
ATOM    118  C   UNK     1      80.341  63.782 105.690  0.00  0.00    +0.000 A 
BRANCH 118 119
ATOM    119  N   UNK     1      80.603  63.619 104.460  0.00  0.00    +0.000 N 
ATOM    120  H   UNK     1      79.959  63.811 103.665  0.00  0.00    +0.000 HD
ATOM    121  H   UNK     1      81.555  63.280 104.176  0.00  0.00    +0.000 HD
ENDBRANCH 118 119
ENDBRANCH 111 113
ENDBRANCH 110 111
ENDBRANCH   7 110
BRANCH  15 122
ATOM    122  C   UNK     1      78.267  61.054 101.669  0.00  0.00    +0.000 C 
BRANCH 122 123
ATOM    123  O   UNK     1      78.663  61.724 100.491  0.00  0.00    +0.000 OA
ATOM    124  H   UNK     1      78.622  62.670 100.656  0.00  0.00    +0.000 HD
ENDBRANCH 122 123
ENDBRANCH  15 122
BRANCH  23 125
ATOM    125  C   UNK     1      73.133  60.047 107.181  0.00  0.00    +0.000 C 
BRANCH 125 126
ATOM    126  C   UNK     1      73.282  58.553 107.438  0.00  0.00    +0.000 C 
ATOM    127  O   UNK     1      72.504  57.701 107.080  0.00  0.00    +0.000 OA
BRANCH 126 128
ATOM    128  O   UNK     1      74.381  58.259 108.167  0.00  0.00    +0.000 OA
ATOM    129  H   UNK     1      75.039  58.965 108.056  0.00  0.00    +0.000 HD
ENDBRANCH 126 128
ENDBRANCH 125 126
ENDBRANCH  23 125
BRANCH  36 130
ATOM    130  C   UNK     1      71.588  71.564 108.058  0.00  0.00    +0.000 C 
BRANCH 130 131
ATOM    131  C   UNK     1      71.824  72.992 108.573  0.00  0.00    +0.000 C 
BRANCH 131 132
ATOM    132  C   UNK     1      71.131  74.043 107.693  0.00  0.00    +0.000 C 
BRANCH 132 133
ATOM    133  N   UNK     1      71.163  73.637 106.279  0.00  0.00    +0.000 NA
ATOM    134  H   UNK     1      70.541  74.244 105.717  0.00  0.00    +0.000 HD
ATOM    135  H   UNK     1      72.109  73.779 105.883  0.00  0.00    +0.000 HD
ENDBRANCH 132 133
ENDBRANCH 131 132
ENDBRANCH 130 131
ENDBRANCH  36 130
BRANCH  32 136
ATOM    136  C   UNK     1      70.681  66.570 107.255  0.00  0.00    +0.000 C 
BRANCH 136 137
ATOM    137  C   UNK     1      70.805  66.777 108.752  0.00  0.00    +0.000 C 
ATOM    138  O   UNK     1      70.180  67.605 109.372  0.00  0.00    +0.000 OA
BRANCH 137 139
ATOM    139  O   UNK     1      71.750  65.988 109.309  0.00  0.00    +0.000 OA
ATOM    140  H   UNK     1      71.398  65.093 109.438  0.00  0.00    +0.000 HD
ENDBRANCH 137 139
ENDBRANCH 136 137
ENDBRANCH  32 136
TORSDOF 42
ENDMDL
MODEL 17
REMARK VINA RESULT:      -6.1      3.558      8.236
REMARK  Name = ./1373.pdb
REMARK  46 active torsions:
REMARK  status: ('A' for Active; 'I' for Inactive)
REMARK    1  A    between atoms: C_1  and  C_2
REMARK    2  A    between atoms: C_2  and  C_3
REMARK    3  A    between atoms: C_3  and  C_4
REMARK    4  A    between atoms: C_4  and  C_5
REMARK    5  A    between atoms: C_5  and  C_6
REMARK    6  A    between atoms: C_6  and  C_7
REMARK    7  A    between atoms: C_7  and  C_8
REMARK    8  A    between atoms: C_8  and  C_9
REMARK    9  A    between atoms: C_9  and  C_10
REMARK   10  A    between atoms: N_12  and  C_13
REMARK   11  A    between atoms: C_13  and  C_14
REMARK   12  A    between atoms: C_13  and  C_24
REMARK   13  A    between atoms: C_14  and  C_15
REMARK   14  A    between atoms: N_26  and  C_27
REMARK   15  A    between atoms: C_27  and  C_28
REMARK   16  A    between atoms: C_27  and  C_32
REMARK   17  A    between atoms: C_28  and  C_29
REMARK   18  A    between atoms: N_34  and  C_35
REMARK   19  A    between atoms: C_35  and  C_36
REMARK   20  A    between atoms: C_35  and  C_40
REMARK   21  A    between atoms: C_36  and  C_37
REMARK   22  A    between atoms: C_37  and  O_38
REMARK   23  A    between atoms: N_42  and  C_43
REMARK   24  A    between atoms: C_44  and  C_45
REMARK   25  A    between atoms: C_49  and  C_50
REMARK   26  A    between atoms: C_50  and  C_51
REMARK   27  A    between atoms: C_51  and  C_53
REMARK   28  A    between atoms: C_58  and  N_59
REMARK   29  A    between atoms: C_63  and  C_110
REMARK   30  A    between atoms: C_67  and  C_68
REMARK   31  A    between atoms: C_68  and  O_69
REMARK   32  A    between atoms: C_77  and  C_78
REMARK   33  A    between atoms: C_78  and  C_79
REMARK   34  A    between atoms: C_79  and  O_80
REMARK   35  A    between atoms: C_85  and  C_86
REMARK   36  A    between atoms: C_90  and  C_91
REMARK   37  A    between atoms: C_91  and  C_92
REMARK   38  A    between atoms: C_92  and  O_93
REMARK   39  A    between atoms: C_98  and  C_99
REMARK   40  A    between atoms: C_99  and  C_100
REMARK   41  A    between atoms: C_100  and  C_101
REMARK   42  A    between atoms: C_101  and  N_102
REMARK   43  A    between atoms: C_110  and  C_111
REMARK   44  A    between atoms: C_110  and  C_112
REMARK   45  A    between atoms: C_112  and  C_113
REMARK   46  A    between atoms: C_113  and  O_114
REMARK                            x       y       z     vdW  Elec       q    Type
REMARK                         _______ _______ _______ _____ _____    ______ ____
ROOT
ATOM      1  C   UNK     1      78.638  70.714 100.417  0.00  0.00    +0.000 C 
ATOM      2  C   UNK     1      78.122  70.666 101.870  0.00  0.00    +0.000 C 
ATOM      3  C   UNK     1      79.019  71.440 102.840  0.00  0.00    +0.000 C 
ATOM      4  O   UNK     1      78.078  69.341 102.322  0.00  0.00    +0.000 OA
ATOM      5  C   UNK     1      77.022  68.547 102.004  0.00  0.00    +0.000 C 
ATOM      6  O   UNK     1      76.074  68.876 101.327  0.00  0.00    +0.000 OA
ATOM      7  C   UNK     1      77.181  67.137 102.585  0.00  0.00    +0.000 C 
ATOM      8  N   UNK     1      75.837  66.543 102.662  0.00  0.00    +0.000 N 
ATOM      9  C   UNK     1      75.533  65.208 102.667  0.00  0.00    +0.000 C 
ATOM     10  O   UNK     1      74.394  64.848 102.830  0.00  0.00    +0.000 OA
ATOM     11  C   UNK     1      76.685  64.229 102.425  0.00  0.00    +0.000 C 
ATOM     12  N   UNK     1      76.471  62.899 103.020  0.00  0.00    +0.000 N 
ATOM     13  C   UNK     1      76.110  62.694 104.327  0.00  0.00    +0.000 C 
ATOM     14  O   UNK     1      75.886  63.582 105.116  0.00  0.00    +0.000 OA
ATOM     15  C   UNK     1      76.012  61.218 104.727  0.00  0.00    +0.000 C 
ATOM     16  N   UNK     1      75.482  61.146 106.092  0.00  0.00    +0.000 N 
ATOM     17  C   UNK     1      74.962  60.005 106.640  0.00  0.00    +0.000 C 
ATOM     18  O   UNK     1      74.925  58.954 106.049  0.00  0.00    +0.000 OA
ATOM     19  C   UNK     1      74.425  60.163 108.058  0.00  0.00    +0.000 C 
ATOM     20  N   UNK     1      73.667  61.411 108.178  0.00  0.00    +0.000 N 
ATOM     21  C   UNK     1      74.274  62.623 108.335  0.00  0.00    +0.000 C 
ATOM     22  O   UNK     1      75.458  62.764 108.512  0.00  0.00    +0.000 OA
ATOM     23  C   UNK     1      73.358  63.824 108.174  0.00  0.00    +0.000 C 
ATOM     24  N   UNK     1      74.005  64.666 107.163  0.00  0.00    +0.000 N 
ATOM     25  C   UNK     1      73.335  65.657 106.516  0.00  0.00    +0.000 C 
ATOM     26  O   UNK     1      72.137  65.780 106.567  0.00  0.00    +0.000 OA
ATOM     27  C   UNK     1      74.220  66.663 105.800  0.00  0.00    +0.000 C 
ATOM     28  C   UNK     1      75.164  67.335 106.808  0.00  0.00    +0.000 C 
ATOM     29  N   UNK     1      73.301  67.629 105.205  0.00  0.00    +0.000 N 
ATOM     30  C   UNK     1      73.674  68.620 104.354  0.00  0.00    +0.000 C 
ATOM     31  O   UNK     1      74.812  68.774 103.988  0.00  0.00    +0.000 OA
ATOM     32  C   UNK     1      72.523  69.533 103.938  0.00  0.00    +0.000 C 
ATOM     33  N   UNK     1      73.066  70.847 103.572  0.00  0.00    +0.000 N 
ATOM     34  C   UNK     1      73.492  71.126 102.303  0.00  0.00    +0.000 C 
ATOM     35  O   UNK     1      73.376  70.354 101.384  0.00  0.00    +0.000 OA
ATOM     36  C   UNK     1      74.126  72.501 102.125  0.00  0.00    +0.000 C 
ATOM     37  N   UNK     1      74.937  72.470 100.900  0.00  0.00    +0.000 N 
ATOM     38  C   UNK     1      76.150  73.092 100.789  0.00  0.00    +0.000 C 
ATOM     39  O   UNK     1      76.655  73.723 101.683  0.00  0.00    +0.000 OA
ATOM     40  C   UNK     1      76.832  72.924  99.441  0.00  0.00    +0.000 C 
ATOM     41  N   UNK     1      78.284  73.042  99.540  0.00  0.00    +0.000 N 
ATOM     42  C   UNK     1      79.167  72.082  99.951  0.00  0.00    +0.000 C 
ATOM     43  O   UNK     1      80.343  72.354  99.980  0.00  0.00    +0.000 OA
ATOM     44  H   UNK     1      75.052  67.189 102.741  0.00  0.00    +0.000 HD
ATOM     45  H   UNK     1      76.740  62.082 102.465  0.00  0.00    +0.000 HD
ATOM     46  H   UNK     1      75.540  62.005 106.641  0.00  0.00    +0.000 HD
ATOM     47  H   UNK     1      72.655  61.381 108.050  0.00  0.00    +0.000 HD
ATOM     48  H   UNK     1      75.001  64.516 106.980  0.00  0.00    +0.000 HD
ATOM     49  H   UNK     1      72.336  67.597 105.542  0.00  0.00    +0.000 HD
ATOM     50  H   UNK     1      73.238  71.512 104.329  0.00  0.00    +0.000 HD
ATOM     51  H   UNK     1      74.581  71.905 100.126  0.00  0.00    +0.000 HD
ATOM     52  H   UNK     1      78.713  73.938  99.315  0.00  0.00    +0.000 HD
ENDROOT
BRANCH   1  55
ATOM     53  C   UNK     1      77.980  69.789  98.203  0.00  0.00    +0.000 C 
ATOM     54  O   UNK     1      78.801  70.435  97.600  0.00  0.00    +0.000 OA
ATOM     55  N   UNK     1      77.702  70.005  99.525  0.00  0.00    +0.000 N 
ATOM     56  H   UNK     1      76.865  69.573  99.926  0.00  0.00    +0.000 HD
BRANCH  53  57
ATOM     57  C   UNK     1      77.252  68.596  97.569  0.00  0.00    +0.000 C 
BRANCH  57  60
ATOM     58  C   UNK     1      78.329  66.477  96.850  0.00  0.00    +0.000 C 
ATOM     59  O   UNK     1      77.538  65.790  97.445  0.00  0.00    +0.000 OA
ATOM     60  N   UNK     1      78.215  67.836  96.759  0.00  0.00    +0.000 N 
ATOM     61  H   UNK     1      78.924  68.350  96.239  0.00  0.00    +0.000 HD
BRANCH  58  62
ATOM     62  C   UNK     1      79.578  65.908  96.175  0.00  0.00    +0.000 C 
BRANCH  62  65
ATOM     63  C   UNK     1      81.407  65.623  97.833  0.00  0.00    +0.000 C 
ATOM     64  O   UNK     1      81.017  64.530  98.162  0.00  0.00    +0.000 OA
ATOM     65  N   UNK     1      80.799  66.359  96.855  0.00  0.00    +0.000 N 
ATOM     66  H   UNK     1      81.177  67.274  96.611  0.00  0.00    +0.000 HD
BRANCH  63  67
ATOM     67  C   UNK     1      82.617  66.291  98.484  0.00  0.00    +0.000 C 
BRANCH  67  70
ATOM     68  C   UNK     1      84.258  66.522  96.615  0.00  0.00    +0.000 C 
ATOM     69  O   UNK     1      83.726  67.513  96.181  0.00  0.00    +0.000 OA
ATOM     70  N   UNK     1      83.831  65.892  97.752  0.00  0.00    +0.000 N 
ATOM     71  H   UNK     1      84.294  65.025  98.027  0.00  0.00    +0.000 HD
BRANCH  68  72
ATOM     72  C   UNK     1      85.455  65.852  95.956  0.00  0.00    +0.000 C 
BRANCH  72  73
ATOM     73  C   UNK     1      86.734  66.704  95.980  0.00  0.00    +0.000 C 
BRANCH  73  74
ATOM     74  C   UNK     1      87.457  66.634  97.335  0.00  0.00    +0.000 C 
BRANCH  74  75
ATOM     75  C   UNK     1      87.237  67.913  98.160  0.00  0.00    +0.000 C 
BRANCH  75  76
ATOM     76  C   UNK     1      86.460  67.643  99.458  0.00  0.00    +0.000 C 
BRANCH  76  77
ATOM     77  C   UNK     1      85.780  68.915  99.991  0.00  0.00    +0.000 C 
BRANCH  77  78
ATOM     78  C   UNK     1      84.581  69.337  99.125  0.00  0.00    +0.000 C 
BRANCH  78  80
ATOM     79  C   UNK     1      84.437  70.983 101.060  0.00  0.00    +0.000 C 
ATOM     80  C   UNK     1      83.763  70.458  99.785  0.00  0.00    +0.000 C 
ENDBRANCH  78  80
ENDBRANCH  77  78
ENDBRANCH  76  77
ENDBRANCH  75  76
ENDBRANCH  74  75
ENDBRANCH  73  74
ENDBRANCH  72  73
ENDBRANCH  68  72
ENDBRANCH  67  70
BRANCH  67  81
ATOM     81  C   UNK     1      82.807  65.969  99.980  0.00  0.00    +0.000 C 
BRANCH  81  82
ATOM     82  C   UNK     1      82.286  67.032 100.904  0.00  0.00    +0.000 A 
ATOM     83  C   UNK     1      81.149  67.731 100.754  0.00  0.00    +0.000 A 
ATOM     84  N   UNK     1      81.063  68.572 101.700  0.00  0.00    +0.000 N 
ATOM     85  C   UNK     1      82.061  68.487 102.476  0.00  0.00    +0.000 A 
ATOM     86  C   UNK     1      82.860  67.515 102.016  0.00  0.00    +0.000 A 
ATOM     87  C   UNK     1      84.003  67.213 102.643  0.00  0.00    +0.000 A 
ATOM     88  C   UNK     1      84.320  67.913 103.746  0.00  0.00    +0.000 A 
ATOM     89  C   UNK     1      83.513  68.889 104.204  0.00  0.00    +0.000 A 
ATOM     90  C   UNK     1      82.367  69.190 103.572  0.00  0.00    +0.000 A 
ATOM     91  H   UNK     1      80.277  69.252 101.820  0.00  0.00    +0.000 HD
ENDBRANCH  81  82
ENDBRANCH  67  81
ENDBRANCH  63  67
ENDBRANCH  62  65
BRANCH  62  92
ATOM     92  C   UNK     1      79.629  66.393  94.710  0.00  0.00    +0.000 C 
BRANCH  92  93
ATOM     93  C   UNK     1      80.697  67.437  94.428  0.00  0.00    +0.000 C 
ATOM     94  N   UNK     1      81.738  67.004  93.671  0.00  0.00    +0.000 N 
ATOM     95  O   UNK     1      80.662  68.563  94.848  0.00  0.00    +0.000 OA
ATOM     96  H   UNK     1      82.494  67.649  93.492  0.00  0.00    +0.000 HD
ATOM     97  H   UNK     1      81.803  66.041  93.373  0.00  0.00    +0.000 HD
ENDBRANCH  92  93
ENDBRANCH  62  92
ENDBRANCH  58  62
ENDBRANCH  57  60
BRANCH  57  98
ATOM     98  C   UNK     1      76.013  68.928  96.724  0.00  0.00    +0.000 C 
BRANCH  98  99
ATOM     99  C   UNK     1      74.752  68.293  97.276  0.00  0.00    +0.000 C 
ATOM    100  O   UNK     1      73.637  68.643  96.981  0.00  0.00    +0.000 OA
BRANCH  99 101
ATOM    101  O   UNK     1      75.020  67.347  98.193  0.00  0.00    +0.000 OA
ATOM    102  H   UNK     1      75.976  67.187  98.231  0.00  0.00    +0.000 HD
ENDBRANCH  99 101
ENDBRANCH  98  99
ENDBRANCH  57  98
ENDBRANCH  53  57
ENDBRANCH   1  55
BRANCH  11 103
ATOM    103  C   UNK     1      76.900  64.099 100.896  0.00  0.00    +0.000 C 
ATOM    104  C   UNK     1      76.201  62.862 100.305  0.00  0.00    +0.000 C 
BRANCH 103 105
ATOM    105  C   UNK     1      78.391  64.154 100.523  0.00  0.00    +0.000 C 
BRANCH 105 106
ATOM    106  C   UNK     1      79.099  62.821 100.600  0.00  0.00    +0.000 C 
ATOM    107  O   UNK     1      79.202  62.133 101.586  0.00  0.00    +0.000 OA
BRANCH 106 108
ATOM    108  O   UNK     1      79.588  62.436  99.405  0.00  0.00    +0.000 OA
ATOM    109  H   UNK     1      78.929  62.638  98.720  0.00  0.00    +0.000 HD
ENDBRANCH 106 108
ENDBRANCH 105 106
ENDBRANCH 103 105
ENDBRANCH  11 103
BRANCH   7 110
ATOM    110  C   UNK     1      77.897  67.122 103.963  0.00  0.00    +0.000 C 
BRANCH 110 111
ATOM    111  C   UNK     1      79.020  66.091 104.148  0.00  0.00    +0.000 C 
ATOM    112  O   UNK     1      79.801  66.052 103.217  0.00  0.00    +0.000 OA
BRANCH 111 113
ATOM    113  C   UNK     1      79.162  65.287 105.251  0.00  0.00    +0.000 A 
ATOM    114  C   UNK     1      78.935  65.844 106.463  0.00  0.00    +0.000 A 
ATOM    115  C   UNK     1      79.025  65.156 107.610  0.00  0.00    +0.000 A 
ATOM    116  C   UNK     1      79.355  63.861 107.582  0.00  0.00    +0.000 A 
ATOM    117  C   UNK     1      79.595  63.284 106.397  0.00  0.00    +0.000 A 
ATOM    118  C   UNK     1      79.507  63.977 105.243  0.00  0.00    +0.000 A 
BRANCH 118 119
ATOM    119  N   UNK     1      79.793  63.264 104.234  0.00  0.00    +0.000 N 
ATOM    120  H   UNK     1      79.660  63.532 103.237  0.00  0.00    +0.000 HD
ATOM    121  H   UNK     1      80.222  62.317 104.377  0.00  0.00    +0.000 HD
ENDBRANCH 118 119
ENDBRANCH 111 113
ENDBRANCH 110 111
ENDBRANCH   7 110
BRANCH  15 122
ATOM    122  C   UNK     1      77.373  60.523 104.651  0.00  0.00    +0.000 C 
BRANCH 122 123
ATOM    123  O   UNK     1      77.751  60.341 103.303  0.00  0.00    +0.000 OA
ATOM    124  H   UNK     1      78.383  61.026 103.073  0.00  0.00    +0.000 HD
ENDBRANCH 122 123
ENDBRANCH  15 122
BRANCH  23 125
ATOM    125  C   UNK     1      73.168  64.600 109.493  0.00  0.00    +0.000 C 
BRANCH 125 126
ATOM    126  C   UNK     1      71.706  64.728 109.903  0.00  0.00    +0.000 C 
ATOM    127  O   UNK     1      71.225  64.298 110.924  0.00  0.00    +0.000 OA
BRANCH 126 128
ATOM    128  O   UNK     1      70.957  65.352 108.967  0.00  0.00    +0.000 OA
ATOM    129  H   UNK     1      71.464  65.418 108.141  0.00  0.00    +0.000 HD
ENDBRANCH 126 128
ENDBRANCH 125 126
ENDBRANCH  23 125
BRANCH  36 130
ATOM    130  C   UNK     1      73.024  73.571 102.058  0.00  0.00    +0.000 C 
BRANCH 130 131
ATOM    131  C   UNK     1      72.744  74.058 100.627  0.00  0.00    +0.000 C 
BRANCH 131 132
ATOM    132  C   UNK     1      71.586  73.290  99.975  0.00  0.00    +0.000 C 
BRANCH 132 133
ATOM    133  N   UNK     1      72.093  72.138  99.211  0.00  0.00    +0.000 NA
ATOM    134  H   UNK     1      72.875  72.428  98.599  0.00  0.00    +0.000 HD
ATOM    135  H   UNK     1      72.496  71.430  99.850  0.00  0.00    +0.000 HD
ENDBRANCH 132 133
ENDBRANCH 131 132
ENDBRANCH 130 131
ENDBRANCH  36 130
BRANCH  32 136
ATOM    136  C   UNK     1      71.470  69.697 105.055  0.00  0.00    +0.000 C 
BRANCH 136 137
ATOM    137  C   UNK     1      71.859  70.855 105.954  0.00  0.00    +0.000 C 
ATOM    138  O   UNK     1      71.383  71.962 105.872  0.00  0.00    +0.000 OA
BRANCH 137 139
ATOM    139  O   UNK     1      72.857  70.535 106.808  0.00  0.00    +0.000 OA
ATOM    140  H   UNK     1      72.934  71.217 107.495  0.00  0.00    +0.000 HD
ENDBRANCH 137 139
ENDBRANCH 136 137
ENDBRANCH  32 136
TORSDOF 42
ENDMDL
MODEL 18
REMARK VINA RESULT:      -6.1      4.510     11.171
REMARK  Name = ./1373.pdb
REMARK  46 active torsions:
REMARK  status: ('A' for Active; 'I' for Inactive)
REMARK    1  A    between atoms: C_1  and  C_2
REMARK    2  A    between atoms: C_2  and  C_3
REMARK    3  A    between atoms: C_3  and  C_4
REMARK    4  A    between atoms: C_4  and  C_5
REMARK    5  A    between atoms: C_5  and  C_6
REMARK    6  A    between atoms: C_6  and  C_7
REMARK    7  A    between atoms: C_7  and  C_8
REMARK    8  A    between atoms: C_8  and  C_9
REMARK    9  A    between atoms: C_9  and  C_10
REMARK   10  A    between atoms: N_12  and  C_13
REMARK   11  A    between atoms: C_13  and  C_14
REMARK   12  A    between atoms: C_13  and  C_24
REMARK   13  A    between atoms: C_14  and  C_15
REMARK   14  A    between atoms: N_26  and  C_27
REMARK   15  A    between atoms: C_27  and  C_28
REMARK   16  A    between atoms: C_27  and  C_32
REMARK   17  A    between atoms: C_28  and  C_29
REMARK   18  A    between atoms: N_34  and  C_35
REMARK   19  A    between atoms: C_35  and  C_36
REMARK   20  A    between atoms: C_35  and  C_40
REMARK   21  A    between atoms: C_36  and  C_37
REMARK   22  A    between atoms: C_37  and  O_38
REMARK   23  A    between atoms: N_42  and  C_43
REMARK   24  A    between atoms: C_44  and  C_45
REMARK   25  A    between atoms: C_49  and  C_50
REMARK   26  A    between atoms: C_50  and  C_51
REMARK   27  A    between atoms: C_51  and  C_53
REMARK   28  A    between atoms: C_58  and  N_59
REMARK   29  A    between atoms: C_63  and  C_110
REMARK   30  A    between atoms: C_67  and  C_68
REMARK   31  A    between atoms: C_68  and  O_69
REMARK   32  A    between atoms: C_77  and  C_78
REMARK   33  A    between atoms: C_78  and  C_79
REMARK   34  A    between atoms: C_79  and  O_80
REMARK   35  A    between atoms: C_85  and  C_86
REMARK   36  A    between atoms: C_90  and  C_91
REMARK   37  A    between atoms: C_91  and  C_92
REMARK   38  A    between atoms: C_92  and  O_93
REMARK   39  A    between atoms: C_98  and  C_99
REMARK   40  A    between atoms: C_99  and  C_100
REMARK   41  A    between atoms: C_100  and  C_101
REMARK   42  A    between atoms: C_101  and  N_102
REMARK   43  A    between atoms: C_110  and  C_111
REMARK   44  A    between atoms: C_110  and  C_112
REMARK   45  A    between atoms: C_112  and  C_113
REMARK   46  A    between atoms: C_113  and  O_114
REMARK                            x       y       z     vdW  Elec       q    Type
REMARK                         _______ _______ _______ _____ _____    ______ ____
ROOT
ATOM      1  C   UNK     1      74.661  57.838 104.585  0.00  0.00    +0.000 C 
ATOM      2  C   UNK     1      73.302  57.548 103.915  0.00  0.00    +0.000 C 
ATOM      3  C   UNK     1      72.439  56.581 104.729  0.00  0.00    +0.000 C 
ATOM      4  O   UNK     1      73.500  56.963 102.658  0.00  0.00    +0.000 OA
ATOM      5  C   UNK     1      73.777  57.742 101.579  0.00  0.00    +0.000 C 
ATOM      6  O   UNK     1      73.890  58.946 101.592  0.00  0.00    +0.000 OA
ATOM      7  C   UNK     1      73.970  56.901 100.311  0.00  0.00    +0.000 C 
ATOM      8  N   UNK     1      73.735  57.787  99.161  0.00  0.00    +0.000 N 
ATOM      9  C   UNK     1      74.226  57.627  97.893  0.00  0.00    +0.000 C 
ATOM     10  O   UNK     1      73.881  58.375  97.012  0.00  0.00    +0.000 OA
ATOM     11  C   UNK     1      75.236  56.498  97.673  0.00  0.00    +0.000 C 
ATOM     12  N   UNK     1      75.261  55.981  96.294  0.00  0.00    +0.000 N 
ATOM     13  C   UNK     1      74.144  55.587  95.603  0.00  0.00    +0.000 C 
ATOM     14  O   UNK     1      73.017  55.663  96.035  0.00  0.00    +0.000 OA
ATOM     15  C   UNK     1      74.434  55.025  94.207  0.00  0.00    +0.000 C 
ATOM     16  N   UNK     1      73.154  54.782  93.534  0.00  0.00    +0.000 N 
ATOM     17  C   UNK     1      73.036  54.598  92.184  0.00  0.00    +0.000 C 
ATOM     18  O   UNK     1      73.985  54.592  91.439  0.00  0.00    +0.000 OA
ATOM     19  C   UNK     1      71.607  54.406  91.687  0.00  0.00    +0.000 C 
ATOM     20  N   UNK     1      70.707  55.352  92.350  0.00  0.00    +0.000 N 
ATOM     21  C   UNK     1      70.233  55.148  93.614  0.00  0.00    +0.000 C 
ATOM     22  O   UNK     1      70.406  54.132  94.240  0.00  0.00    +0.000 OA
ATOM     23  C   UNK     1      69.538  56.345  94.239  0.00  0.00    +0.000 C 
ATOM     24  N   UNK     1      70.217  56.556  95.521  0.00  0.00    +0.000 N 
ATOM     25  C   UNK     1      70.101  57.720  96.214  0.00  0.00    +0.000 C 
ATOM     26  O   UNK     1      69.615  58.718  95.742  0.00  0.00    +0.000 OA
ATOM     27  C   UNK     1      70.537  57.644  97.666  0.00  0.00    +0.000 C 
ATOM     28  C   UNK     1      69.702  56.589  98.407  0.00  0.00    +0.000 C 
ATOM     29  N   UNK     1      70.307  58.981  98.209  0.00  0.00    +0.000 N 
ATOM     30  C   UNK     1      70.699  59.386  99.445  0.00  0.00    +0.000 C 
ATOM     31  O   UNK     1      71.304  58.673 100.205  0.00  0.00    +0.000 OA
ATOM     32  C   UNK     1      70.268  60.810  99.785  0.00  0.00    +0.000 C 
ATOM     33  N   UNK     1      70.165  60.942 101.243  0.00  0.00    +0.000 N 
ATOM     34  C   UNK     1      71.238  61.287 102.016  0.00  0.00    +0.000 C 
ATOM     35  O   UNK     1      72.312  61.588 101.557  0.00  0.00    +0.000 OA
ATOM     36  C   UNK     1      70.981  61.271 103.519  0.00  0.00    +0.000 C 
ATOM     37  N   UNK     1      72.281  61.184 104.200  0.00  0.00    +0.000 N 
ATOM     38  C   UNK     1      72.489  60.430 105.322  0.00  0.00    +0.000 C 
ATOM     39  O   UNK     1      71.625  59.777 105.851  0.00  0.00    +0.000 OA
ATOM     40  C   UNK     1      73.910  60.467 105.860  0.00  0.00    +0.000 C 
ATOM     41  N   UNK     1      74.244  59.261 106.613  0.00  0.00    +0.000 N 
ATOM     42  C   UNK     1      74.614  58.045 106.109  0.00  0.00    +0.000 C 
ATOM     43  O   UNK     1      74.849  57.147 106.881  0.00  0.00    +0.000 OA
ATOM     44  H   UNK     1      73.127  58.592  99.316  0.00  0.00    +0.000 HD
ATOM     45  H   UNK     1      76.175  55.779  95.880  0.00  0.00    +0.000 HD
ATOM     46  H   UNK     1      72.333  54.733  94.139  0.00  0.00    +0.000 HD
ATOM     47  H   UNK     1      70.500  56.237  91.885  0.00  0.00    +0.000 HD
ATOM     48  H   UNK     1      70.759  55.779  95.911  0.00  0.00    +0.000 HD
ATOM     49  H   UNK     1      69.728  59.601  97.639  0.00  0.00    +0.000 HD
ATOM     50  H   UNK     1      69.293  60.639 101.682  0.00  0.00    +0.000 HD
ATOM     51  H   UNK     1      73.063  61.676 103.764  0.00  0.00    +0.000 HD
ATOM     52  H   UNK     1      74.173  59.290 107.629  0.00  0.00    +0.000 HD
ENDROOT
BRANCH   1  55
ATOM     53  C   UNK     1      76.774  58.964 103.907  0.00  0.00    +0.000 C 
ATOM     54  O   UNK     1      77.384  58.579 104.875  0.00  0.00    +0.000 OA
ATOM     55  N   UNK     1      75.419  58.819 103.787  0.00  0.00    +0.000 N 
ATOM     56  H   UNK     1      74.936  59.339 103.049  0.00  0.00    +0.000 HD
BRANCH  53  57
ATOM     57  C   UNK     1      77.480  59.552 102.678  0.00  0.00    +0.000 C 
BRANCH  57  60
ATOM     58  C   UNK     1      78.171  61.881 103.190  0.00  0.00    +0.000 C 
ATOM     59  O   UNK     1      79.281  61.553 103.527  0.00  0.00    +0.000 OA
ATOM     60  N   UNK     1      77.264  61.006 102.663  0.00  0.00    +0.000 N 
ATOM     61  H   UNK     1      76.344  61.357 102.403  0.00  0.00    +0.000 HD
BRANCH  58  62
ATOM     62  C   UNK     1      77.638  63.304 103.366  0.00  0.00    +0.000 C 
BRANCH  62  65
ATOM     63  C   UNK     1      76.605  63.708 105.589  0.00  0.00    +0.000 C 
ATOM     64  O   UNK     1      77.641  64.101 106.064  0.00  0.00    +0.000 OA
ATOM     65  N   UNK     1      76.490  63.331 104.280  0.00  0.00    +0.000 N 
ATOM     66  H   UNK     1      75.587  63.016 103.928  0.00  0.00    +0.000 HD
BRANCH  63  67
ATOM     67  C   UNK     1      75.319  63.592 106.407  0.00  0.00    +0.000 C 
BRANCH  67  70
ATOM     68  C   UNK     1      73.531  65.079 105.494  0.00  0.00    +0.000 C 
ATOM     69  O   UNK     1      73.053  64.201 104.820  0.00  0.00    +0.000 OA
ATOM     70  N   UNK     1      74.592  64.871 106.334  0.00  0.00    +0.000 N 
ATOM     71  H   UNK     1      74.981  65.674 106.829  0.00  0.00    +0.000 HD
BRANCH  68  72
ATOM     72  C   UNK     1      73.027  66.514 105.490  0.00  0.00    +0.000 C 
BRANCH  72  73
ATOM     73  C   UNK     1      73.845  67.463 106.381  0.00  0.00    +0.000 C 
BRANCH  73  74
ATOM     74  C   UNK     1      73.050  67.942 107.607  0.00  0.00    +0.000 C 
BRANCH  74  75
ATOM     75  C   UNK     1      71.590  67.461 107.558  0.00  0.00    +0.000 C 
BRANCH  75  76
ATOM     76  C   UNK     1      70.637  68.417 108.292  0.00  0.00    +0.000 C 
BRANCH  76  77
ATOM     77  C   UNK     1      70.522  69.772 107.574  0.00  0.00    +0.000 C 
BRANCH  77  78
ATOM     78  C   UNK     1      70.076  69.615 106.111  0.00  0.00    +0.000 C 
BRANCH  78  80
ATOM     79  C   UNK     1      68.620  70.766 104.370  0.00  0.00    +0.000 C 
ATOM     80  C   UNK     1      68.746  70.335 105.837  0.00  0.00    +0.000 C 
ENDBRANCH  78  80
ENDBRANCH  77  78
ENDBRANCH  76  77
ENDBRANCH  75  76
ENDBRANCH  74  75
ENDBRANCH  73  74
ENDBRANCH  72  73
ENDBRANCH  68  72
ENDBRANCH  67  70
BRANCH  67  81
ATOM     81  C   UNK     1      75.528  63.219 107.889  0.00  0.00    +0.000 C 
BRANCH  81  82
ATOM     82  C   UNK     1      75.226  64.334 108.847  0.00  0.00    +0.000 A 
ATOM     83  C   UNK     1      76.110  65.201 109.366  0.00  0.00    +0.000 A 
ATOM     84  N   UNK     1      75.502  65.970 110.171  0.00  0.00    +0.000 N 
ATOM     85  C   UNK     1      74.269  65.682 110.228  0.00  0.00    +0.000 A 
ATOM     86  C   UNK     1      74.045  64.656 109.396  0.00  0.00    +0.000 A 
ATOM     87  C   UNK     1      72.819  64.136 109.264  0.00  0.00    +0.000 A 
ATOM     88  C   UNK     1      71.824  64.676 109.989  0.00  0.00    +0.000 A 
ATOM     89  C   UNK     1      72.055  65.707 110.824  0.00  0.00    +0.000 A 
ATOM     90  C   UNK     1      73.287  66.226 110.955  0.00  0.00    +0.000 A 
ATOM     91  H   UNK     1      75.956  66.734 110.722  0.00  0.00    +0.000 HD
ENDBRANCH  81  82
ENDBRANCH  67  81
ENDBRANCH  63  67
ENDBRANCH  62  65
BRANCH  62  92
ATOM     92  C   UNK     1      77.182  63.847 101.994  0.00  0.00    +0.000 C 
BRANCH  92  93
ATOM     93  C   UNK     1      75.679  64.024 101.854  0.00  0.00    +0.000 C 
ATOM     94  N   UNK     1      75.041  63.018 101.201  0.00  0.00    +0.000 N 
ATOM     95  O   UNK     1      75.075  64.981 102.259  0.00  0.00    +0.000 OA
ATOM     96  H   UNK     1      74.047  63.110 101.046  0.00  0.00    +0.000 HD
ATOM     97  H   UNK     1      75.555  62.246 100.801  0.00  0.00    +0.000 HD
ENDBRANCH  92  93
ENDBRANCH  62  92
ENDBRANCH  58  62
ENDBRANCH  57  60
BRANCH  57  98
ATOM     98  C   UNK     1      77.084  58.956 101.318  0.00  0.00    +0.000 C 
BRANCH  98  99
ATOM     99  C   UNK     1      76.900  60.021 100.255  0.00  0.00    +0.000 C 
ATOM    100  O   UNK     1      77.796  60.695  99.815  0.00  0.00    +0.000 OA
BRANCH  99 101
ATOM    101  O   UNK     1      75.609  60.182  99.915  0.00  0.00    +0.000 OA
ATOM    102  H   UNK     1      75.380  61.124  99.928  0.00  0.00    +0.000 HD
ENDBRANCH  99 101
ENDBRANCH  98  99
ENDBRANCH  57  98
ENDBRANCH  53  57
ENDBRANCH   1  55
BRANCH  11 103
ATOM    103  C   UNK     1      76.640  57.016  98.071  0.00  0.00    +0.000 C 
ATOM    104  C   UNK     1      77.180  58.072  97.091  0.00  0.00    +0.000 C 
BRANCH 103 105
ATOM    105  C   UNK     1      77.635  55.863  98.284  0.00  0.00    +0.000 C 
BRANCH 105 106
ATOM    106  C   UNK     1      77.458  55.123  99.590  0.00  0.00    +0.000 C 
ATOM    107  O   UNK     1      77.587  55.599 100.692  0.00  0.00    +0.000 OA
BRANCH 106 108
ATOM    108  O   UNK     1      77.083  53.844  99.403  0.00  0.00    +0.000 OA
ATOM    109  H   UNK     1      76.785  53.479 100.253  0.00  0.00    +0.000 HD
ENDBRANCH 106 108
ENDBRANCH 105 106
ENDBRANCH 103 105
ENDBRANCH  11 103
BRANCH   7 110
ATOM    110  C   UNK     1      73.058  55.645 100.267  0.00  0.00    +0.000 C 
BRANCH 110 111
ATOM    111  C   UNK     1      73.738  54.287 100.494  0.00  0.00    +0.000 C 
ATOM    112  O   UNK     1      74.245  53.826  99.490  0.00  0.00    +0.000 OA
BRANCH 111 113
ATOM    113  C   UNK     1      73.795  53.639 101.702  0.00  0.00    +0.000 A 
ATOM    114  C   UNK     1      72.874  52.677 101.938  0.00  0.00    +0.000 A 
ATOM    115  C   UNK     1      72.839  51.964 103.074  0.00  0.00    +0.000 A 
ATOM    116  C   UNK     1      73.744  52.197 104.030  0.00  0.00    +0.000 A 
ATOM    117  C   UNK     1      74.663  53.150 103.827  0.00  0.00    +0.000 A 
ATOM    118  C   UNK     1      74.695  53.869 102.687  0.00  0.00    +0.000 A 
BRANCH 118 119
ATOM    119  N   UNK     1      75.621  54.736 102.695  0.00  0.00    +0.000 N 
ATOM    120  H   UNK     1      76.405  54.790 103.377  0.00  0.00    +0.000 HD
ATOM    121  H   UNK     1      75.643  55.473 101.948  0.00  0.00    +0.000 HD
ENDBRANCH 118 119
ENDBRANCH 111 113
ENDBRANCH 110 111
ENDBRANCH   7 110
BRANCH  15 122
ATOM    122  C   UNK     1      75.247  53.731  94.281  0.00  0.00    +0.000 C 
BRANCH 122 123
ATOM    123  O   UNK     1      76.272  53.745  93.311  0.00  0.00    +0.000 OA
ATOM    124  H   UNK     1      75.998  53.191  92.575  0.00  0.00    +0.000 HD
ENDBRANCH 122 123
ENDBRANCH  15 122
BRANCH  23 125
ATOM    125  C   UNK     1      68.029  56.104  94.451  0.00  0.00    +0.000 C 
BRANCH 125 126
ATOM    126  C   UNK     1      67.156  57.117  93.722  0.00  0.00    +0.000 C 
ATOM    127  O   UNK     1      66.010  56.937  93.383  0.00  0.00    +0.000 OA
BRANCH 126 128
ATOM    128  O   UNK     1      67.815  58.261  93.438  0.00  0.00    +0.000 OA
ATOM    129  H   UNK     1      67.174  58.956  93.218  0.00  0.00    +0.000 HD
ENDBRANCH 126 128
ENDBRANCH 125 126
ENDBRANCH  23 125
BRANCH  36 130
ATOM    130  C   UNK     1      70.205  62.536 103.922  0.00  0.00    +0.000 C 
BRANCH 130 131
ATOM    131  C   UNK     1      69.525  62.413 105.294  0.00  0.00    +0.000 C 
BRANCH 131 132
ATOM    132  C   UNK     1      70.340  63.094 106.403  0.00  0.00    +0.000 C 
BRANCH 132 133
ATOM    133  N   UNK     1      70.100  64.546 106.406  0.00  0.00    +0.000 NA
ATOM    134  H   UNK     1      69.929  64.885 105.443  0.00  0.00    +0.000 HD
ATOM    135  H   UNK     1      69.234  64.768 106.929  0.00  0.00    +0.000 HD
ENDBRANCH 132 133
ENDBRANCH 131 132
ENDBRANCH 130 131
ENDBRANCH  36 130
BRANCH  32 136
ATOM    136  C   UNK     1      68.921  61.190  99.132  0.00  0.00    +0.000 C 
BRANCH 136 137
ATOM    137  C   UNK     1      67.879  60.142  99.472  0.00  0.00    +0.000 C 
ATOM    138  O   UNK     1      67.379  59.399  98.660  0.00  0.00    +0.000 OA
BRANCH 137 139
ATOM    139  O   UNK     1      67.508  60.181 100.770  0.00  0.00    +0.000 OA
ATOM    140  H   UNK     1      68.235  59.863 101.330  0.00  0.00    +0.000 HD
ENDBRANCH 137 139
ENDBRANCH 136 137
ENDBRANCH  32 136
TORSDOF 42
ENDMDL
MODEL 19
REMARK VINA RESULT:      -6.1      3.093      8.158
REMARK  Name = ./1373.pdb
REMARK  46 active torsions:
REMARK  status: ('A' for Active; 'I' for Inactive)
REMARK    1  A    between atoms: C_1  and  C_2
REMARK    2  A    between atoms: C_2  and  C_3
REMARK    3  A    between atoms: C_3  and  C_4
REMARK    4  A    between atoms: C_4  and  C_5
REMARK    5  A    between atoms: C_5  and  C_6
REMARK    6  A    between atoms: C_6  and  C_7
REMARK    7  A    between atoms: C_7  and  C_8
REMARK    8  A    between atoms: C_8  and  C_9
REMARK    9  A    between atoms: C_9  and  C_10
REMARK   10  A    between atoms: N_12  and  C_13
REMARK   11  A    between atoms: C_13  and  C_14
REMARK   12  A    between atoms: C_13  and  C_24
REMARK   13  A    between atoms: C_14  and  C_15
REMARK   14  A    between atoms: N_26  and  C_27
REMARK   15  A    between atoms: C_27  and  C_28
REMARK   16  A    between atoms: C_27  and  C_32
REMARK   17  A    between atoms: C_28  and  C_29
REMARK   18  A    between atoms: N_34  and  C_35
REMARK   19  A    between atoms: C_35  and  C_36
REMARK   20  A    between atoms: C_35  and  C_40
REMARK   21  A    between atoms: C_36  and  C_37
REMARK   22  A    between atoms: C_37  and  O_38
REMARK   23  A    between atoms: N_42  and  C_43
REMARK   24  A    between atoms: C_44  and  C_45
REMARK   25  A    between atoms: C_49  and  C_50
REMARK   26  A    between atoms: C_50  and  C_51
REMARK   27  A    between atoms: C_51  and  C_53
REMARK   28  A    between atoms: C_58  and  N_59
REMARK   29  A    between atoms: C_63  and  C_110
REMARK   30  A    between atoms: C_67  and  C_68
REMARK   31  A    between atoms: C_68  and  O_69
REMARK   32  A    between atoms: C_77  and  C_78
REMARK   33  A    between atoms: C_78  and  C_79
REMARK   34  A    between atoms: C_79  and  O_80
REMARK   35  A    between atoms: C_85  and  C_86
REMARK   36  A    between atoms: C_90  and  C_91
REMARK   37  A    between atoms: C_91  and  C_92
REMARK   38  A    between atoms: C_92  and  O_93
REMARK   39  A    between atoms: C_98  and  C_99
REMARK   40  A    between atoms: C_99  and  C_100
REMARK   41  A    between atoms: C_100  and  C_101
REMARK   42  A    between atoms: C_101  and  N_102
REMARK   43  A    between atoms: C_110  and  C_111
REMARK   44  A    between atoms: C_110  and  C_112
REMARK   45  A    between atoms: C_112  and  C_113
REMARK   46  A    between atoms: C_113  and  O_114
REMARK                            x       y       z     vdW  Elec       q    Type
REMARK                         _______ _______ _______ _____ _____    ______ ____
ROOT
ATOM      1  C   UNK     1      77.577  70.796 106.079  0.00  0.00    +0.000 C 
ATOM      2  C   UNK     1      76.962  69.718 106.996  0.00  0.00    +0.000 C 
ATOM      3  C   UNK     1      77.585  69.709 108.394  0.00  0.00    +0.000 C 
ATOM      4  O   UNK     1      77.166  68.446 106.448  0.00  0.00    +0.000 OA
ATOM      5  C   UNK     1      76.337  67.981 105.476  0.00  0.00    +0.000 C 
ATOM      6  O   UNK     1      75.402  68.585 105.002  0.00  0.00    +0.000 OA
ATOM      7  C   UNK     1      76.747  66.579 105.009  0.00  0.00    +0.000 C 
ATOM      8  N   UNK     1      75.561  65.961 104.395  0.00  0.00    +0.000 N 
ATOM      9  C   UNK     1      75.552  64.959 103.462  0.00  0.00    +0.000 C 
ATOM     10  O   UNK     1      74.508  64.472 103.107  0.00  0.00    +0.000 OA
ATOM     11  C   UNK     1      76.905  64.531 102.886  0.00  0.00    +0.000 C 
ATOM     12  N   UNK     1      76.933  63.140 102.403  0.00  0.00    +0.000 N 
ATOM     13  C   UNK     1      76.515  62.064 103.143  0.00  0.00    +0.000 C 
ATOM     14  O   UNK     1      76.037  62.147 104.251  0.00  0.00    +0.000 OA
ATOM     15  C   UNK     1      76.703  60.712 102.447  0.00  0.00    +0.000 C 
ATOM     16  N   UNK     1      76.087  59.675 103.281  0.00  0.00    +0.000 N 
ATOM     17  C   UNK     1      75.780  58.423 102.824  0.00  0.00    +0.000 C 
ATOM     18  O   UNK     1      76.021  58.060 101.699  0.00  0.00    +0.000 OA
ATOM     19  C   UNK     1      75.103  57.517 103.846  0.00  0.00    +0.000 C 
ATOM     20  N   UNK     1      74.086  58.263 104.591  0.00  0.00    +0.000 N 
ATOM     21  C   UNK     1      74.402  59.095 105.626  0.00  0.00    +0.000 C 
ATOM     22  O   UNK     1      75.509  59.195 106.094  0.00  0.00    +0.000 OA
ATOM     23  C   UNK     1      73.266  59.983 106.103  0.00  0.00    +0.000 C 
ATOM     24  N   UNK     1      73.800  61.347 106.055  0.00  0.00    +0.000 N 
ATOM     25  C   UNK     1      72.989  62.439 106.093  0.00  0.00    +0.000 C 
ATOM     26  O   UNK     1      71.793  62.372 105.961  0.00  0.00    +0.000 OA
ATOM     27  C   UNK     1      73.694  63.745 106.416  0.00  0.00    +0.000 C 
ATOM     28  C   UNK     1      74.382  63.640 107.786  0.00  0.00    +0.000 C 
ATOM     29  N   UNK     1      72.643  64.758 106.425  0.00  0.00    +0.000 N 
ATOM     30  C   UNK     1      72.865  66.094 106.533  0.00  0.00    +0.000 C 
ATOM     31  O   UNK     1      73.970  66.570 106.605  0.00  0.00    +0.000 OA
ATOM     32  C   UNK     1      71.584  66.923 106.588  0.00  0.00    +0.000 C 
ATOM     33  N   UNK     1      71.859  68.179 107.295  0.00  0.00    +0.000 N 
ATOM     34  C   UNK     1      72.322  69.289 106.645  0.00  0.00    +0.000 C 
ATOM     35  O   UNK     1      72.454  69.345 105.447  0.00  0.00    +0.000 OA
ATOM     36  C   UNK     1      72.657  70.471 107.548  0.00  0.00    +0.000 C 
ATOM     37  N   UNK     1      73.558  71.366 106.806  0.00  0.00    +0.000 N 
ATOM     38  C   UNK     1      74.612  72.014 107.386  0.00  0.00    +0.000 C 
ATOM     39  O   UNK     1      74.892  71.913 108.555  0.00  0.00    +0.000 OA
ATOM     40  C   UNK     1      75.427  72.881 106.439  0.00  0.00    +0.000 C 
ATOM     41  N   UNK     1      76.805  73.045 106.892  0.00  0.00    +0.000 N 
ATOM     42  C   UNK     1      77.836  72.158 106.746  0.00  0.00    +0.000 C 
ATOM     43  O   UNK     1      78.919  72.454 107.191  0.00  0.00    +0.000 OA
ATOM     44  H   UNK     1      74.651  66.296 104.713  0.00  0.00    +0.000 HD
ATOM     45  H   UNK     1      77.418  62.954 101.521  0.00  0.00    +0.000 HD
ATOM     46  H   UNK     1      75.911  59.930 104.255  0.00  0.00    +0.000 HD
ATOM     47  H   UNK     1      73.119  58.226 104.267  0.00  0.00    +0.000 HD
ATOM     48  H   UNK     1      74.817  61.464 106.032  0.00  0.00    +0.000 HD
ATOM     49  H   UNK     1      71.683  64.407 106.448  0.00  0.00    +0.000 HD
ATOM     50  H   UNK     1      71.819  68.162 108.317  0.00  0.00    +0.000 HD
ATOM     51  H   UNK     1      73.399  71.449 105.800  0.00  0.00    +0.000 HD
ATOM     52  H   UNK     1      77.049  73.891 107.405  0.00  0.00    +0.000 HD
ENDROOT
BRANCH   1  55
ATOM     53  C   UNK     1      77.569  71.009 103.600  0.00  0.00    +0.000 C 
ATOM     54  O   UNK     1      78.651  71.543 103.563  0.00  0.00    +0.000 OA
ATOM     55  N   UNK     1      76.896  70.796 104.772  0.00  0.00    +0.000 N 
ATOM     56  H   UNK     1      75.908  70.530 104.726  0.00  0.00    +0.000 HD
BRANCH  53  57
ATOM     57  C   UNK     1      76.903  70.426 102.348  0.00  0.00    +0.000 C 
BRANCH  57  60
ATOM     58  C   UNK     1      78.926  69.576 101.185  0.00  0.00    +0.000 C 
ATOM     59  O   UNK     1      79.027  68.619 101.911  0.00  0.00    +0.000 OA
ATOM     60  N   UNK     1      77.875  70.448 101.246  0.00  0.00    +0.000 N 
ATOM     61  H   UNK     1      77.860  71.236 100.600  0.00  0.00    +0.000 HD
BRANCH  58  62
ATOM     62  C   UNK     1      79.991  69.950 100.153  0.00  0.00    +0.000 C 
BRANCH  62  65
ATOM     63  C   UNK     1      78.898  70.683  98.046  0.00  0.00    +0.000 C 
ATOM     64  O   UNK     1      78.764  71.815  98.441  0.00  0.00    +0.000 OA
ATOM     65  N   UNK     1      79.510  69.711  98.786  0.00  0.00    +0.000 N 
ATOM     66  H   UNK     1      79.606  68.773  98.399  0.00  0.00    +0.000 HD
BRANCH  63  67
ATOM     67  C   UNK     1      78.391  70.226  96.678  0.00  0.00    +0.000 C 
BRANCH  67  70
ATOM     68  C   UNK     1      76.408  68.787  97.164  0.00  0.00    +0.000 C 
ATOM     69  O   UNK     1      75.665  69.731  97.267  0.00  0.00    +0.000 OA
ATOM     70  N   UNK     1      77.728  68.920  96.829  0.00  0.00    +0.000 N 
ATOM     71  H   UNK     1      78.311  68.082  96.818  0.00  0.00    +0.000 HD
BRANCH  68  72
ATOM     72  C   UNK     1      75.978  67.347  97.398  0.00  0.00    +0.000 C 
BRANCH  72  73
ATOM     73  C   UNK     1      76.822  66.314  96.634  0.00  0.00    +0.000 C 
BRANCH  73  74
ATOM     74  C   UNK     1      77.995  65.784  97.474  0.00  0.00    +0.000 C 
BRANCH  74  75
ATOM     75  C   UNK     1      79.179  65.358  96.589  0.00  0.00    +0.000 C 
BRANCH  75  76
ATOM     76  C   UNK     1      80.396  64.916  97.415  0.00  0.00    +0.000 C 
BRANCH  76  77
ATOM     77  C   UNK     1      81.086  66.108  98.098  0.00  0.00    +0.000 C 
BRANCH  77  78
ATOM     78  C   UNK     1      82.060  65.660  99.200  0.00  0.00    +0.000 C 
BRANCH  78  80
ATOM     79  C   UNK     1      83.677  66.758  97.571  0.00  0.00    +0.000 C 
ATOM     80  C   UNK     1      83.526  65.805  98.764  0.00  0.00    +0.000 C 
ENDBRANCH  78  80
ENDBRANCH  77  78
ENDBRANCH  76  77
ENDBRANCH  75  76
ENDBRANCH  74  75
ENDBRANCH  73  74
ENDBRANCH  72  73
ENDBRANCH  68  72
ENDBRANCH  67  70
BRANCH  67  81
ATOM     81  C   UNK     1      79.479  70.113  95.591  0.00  0.00    +0.000 C 
BRANCH  81  82
ATOM     82  C   UNK     1      79.283  68.961  94.649  0.00  0.00    +0.000 A 
ATOM     83  C   UNK     1      78.166  68.677  93.959  0.00  0.00    +0.000 A 
ATOM     84  N   UNK     1      78.353  67.606  93.306  0.00  0.00    +0.000 N 
ATOM     85  C   UNK     1      79.518  67.150  93.507  0.00  0.00    +0.000 A 
ATOM     86  C   UNK     1      80.150  67.983  94.345  0.00  0.00    +0.000 A 
ATOM     87  C   UNK     1      81.404  67.739  94.739  0.00  0.00    +0.000 A 
ATOM     88  C   UNK     1      82.009  66.635  94.266  0.00  0.00    +0.000 A 
ATOM     89  C   UNK     1      81.370  65.801  93.424  0.00  0.00    +0.000 A 
ATOM     90  C   UNK     1      80.110  66.049  93.031  0.00  0.00    +0.000 A 
ATOM     91  H   UNK     1      77.639  67.152  92.691  0.00  0.00    +0.000 HD
ENDBRANCH  81  82
ENDBRANCH  67  81
ENDBRANCH  63  67
ENDBRANCH  62  65
BRANCH  62  92
ATOM     92  C   UNK     1      81.248  69.084 100.386  0.00  0.00    +0.000 C 
BRANCH  92  93
ATOM     93  C   UNK     1      82.535  69.681  99.841  0.00  0.00    +0.000 C 
ATOM     94  N   UNK     1      83.676  69.126 100.324  0.00  0.00    +0.000 N 
ATOM     95  O   UNK     1      82.573  70.591  99.056  0.00  0.00    +0.000 OA
ATOM     96  H   UNK     1      84.557  69.517 100.024  0.00  0.00    +0.000 HD
ATOM     97  H   UNK     1      83.648  68.407 101.034  0.00  0.00    +0.000 HD
ENDBRANCH  92  93
ENDBRANCH  62  92
ENDBRANCH  58  62
ENDBRANCH  57  60
BRANCH  57  98
ATOM     98  C   UNK     1      75.596  71.099 101.898  0.00  0.00    +0.000 C 
BRANCH  98  99
ATOM     99  C   UNK     1      74.440  70.790 102.828  0.00  0.00    +0.000 C 
ATOM    100  O   UNK     1      74.004  71.565 103.640  0.00  0.00    +0.000 OA
BRANCH  99 101
ATOM    101  O   UNK     1      74.008  69.523 102.699  0.00  0.00    +0.000 OA
ATOM    102  H   UNK     1      74.367  69.135 101.885  0.00  0.00    +0.000 HD
ENDBRANCH  99 101
ENDBRANCH  98  99
ENDBRANCH  57  98
ENDBRANCH  53  57
ENDBRANCH   1  55
BRANCH  11 103
ATOM    103  C   UNK     1      77.272  65.500 101.735  0.00  0.00    +0.000 C 
ATOM    104  C   UNK     1      76.298  65.404 100.548  0.00  0.00    +0.000 C 
BRANCH 103 105
ATOM    105  C   UNK     1      78.736  65.335 101.295  0.00  0.00    +0.000 C 
BRANCH 105 106
ATOM    106  C   UNK     1      79.101  63.933 100.864  0.00  0.00    +0.000 C 
ATOM    107  O   UNK     1      78.655  63.353  99.904  0.00  0.00    +0.000 OA
BRANCH 106 108
ATOM    108  O   UNK     1      80.040  63.385 101.659  0.00  0.00    +0.000 OA
ATOM    109  H   UNK     1      79.927  62.419 101.654  0.00  0.00    +0.000 HD
ENDBRANCH 106 108
ENDBRANCH 105 106
ENDBRANCH 103 105
ENDBRANCH  11 103
BRANCH   7 110
ATOM    110  C   UNK     1      77.329  65.701 106.150  0.00  0.00    +0.000 C 
BRANCH 110 111
ATOM    111  C   UNK     1      78.815  65.897 106.484  0.00  0.00    +0.000 C 
ATOM    112  O   UNK     1      79.055  65.852 107.675  0.00  0.00    +0.000 OA
BRANCH 111 113
ATOM    113  C   UNK     1      79.802  66.091 105.550  0.00  0.00    +0.000 A 
ATOM    114  C   UNK     1      80.304  67.341 105.424  0.00  0.00    +0.000 A 
ATOM    115  C   UNK     1      81.281  67.650 104.559  0.00  0.00    +0.000 A 
ATOM    116  C   UNK     1      81.798  66.698 103.775  0.00  0.00    +0.000 A 
ATOM    117  C   UNK     1      81.314  65.453 103.872  0.00  0.00    +0.000 A 
ATOM    118  C   UNK     1      80.329  65.143 104.739  0.00  0.00    +0.000 A 
BRANCH 118 119
ATOM    119  N   UNK     1      79.993  63.922 104.665  0.00  0.00    +0.000 N 
ATOM    120  H   UNK     1      80.641  63.112 104.575  0.00  0.00    +0.000 HD
ATOM    121  H   UNK     1      78.978  63.663 104.715  0.00  0.00    +0.000 HD
ENDBRANCH 118 119
ENDBRANCH 111 113
ENDBRANCH 110 111
ENDBRANCH   7 110
BRANCH  15 122
ATOM    122  C   UNK     1      78.183  60.398 102.221  0.00  0.00    +0.000 C 
BRANCH 122 123
ATOM    123  O   UNK     1      78.981  61.148 103.112  0.00  0.00    +0.000 OA
ATOM    124  H   UNK     1      79.090  60.639 103.919  0.00  0.00    +0.000 HD
ENDBRANCH 122 123
ENDBRANCH  15 122
BRANCH  23 125
ATOM    125  C   UNK     1      72.801  59.626 107.530  0.00  0.00    +0.000 C 
BRANCH 125 126
ATOM    126  C   UNK     1      73.939  59.623 108.543  0.00  0.00    +0.000 C 
ATOM    127  O   UNK     1      74.420  60.605 109.057  0.00  0.00    +0.000 OA
BRANCH 126 128
ATOM    128  O   UNK     1      74.409  58.381 108.792  0.00  0.00    +0.000 OA
ATOM    129  H   UNK     1      73.677  57.745 108.746  0.00  0.00    +0.000 HD
ENDBRANCH 126 128
ENDBRANCH 125 126
ENDBRANCH  23 125
BRANCH  36 130
ATOM    130  C   UNK     1      71.360  71.181 107.969  0.00  0.00    +0.000 C 
BRANCH 130 131
ATOM    131  C   UNK     1      71.094  72.470 107.175  0.00  0.00    +0.000 C 
BRANCH 131 132
ATOM    132  C   UNK     1      70.280  72.202 105.901  0.00  0.00    +0.000 C 
BRANCH 132 133
ATOM    133  N   UNK     1      71.165  72.117 104.729  0.00  0.00    +0.000 NA
ATOM    134  H   UNK     1      70.864  72.788 104.001  0.00  0.00    +0.000 HD
ATOM    135  H   UNK     1      72.128  72.403 104.981  0.00  0.00    +0.000 HD
ENDBRANCH 132 133
ENDBRANCH 131 132
ENDBRANCH 130 131
ENDBRANCH  36 130
BRANCH  32 136
ATOM    136  C   UNK     1      70.428  66.174 107.287  0.00  0.00    +0.000 C 
BRANCH 136 137
ATOM    137  C   UNK     1      70.585  66.290 108.791  0.00  0.00    +0.000 C 
ATOM    138  O   UNK     1      70.217  67.242 109.437  0.00  0.00    +0.000 OA
BRANCH 137 139
ATOM    139  O   UNK     1      71.255  65.245 109.324  0.00  0.00    +0.000 OA
ATOM    140  H   UNK     1      70.749  64.427 109.195  0.00  0.00    +0.000 HD
ENDBRANCH 137 139
ENDBRANCH 136 137
ENDBRANCH  32 136
TORSDOF 42
ENDMDL
MODEL 20
REMARK VINA RESULT:      -6.0      3.961      8.533
REMARK  Name = ./1373.pdb
REMARK  46 active torsions:
REMARK  status: ('A' for Active; 'I' for Inactive)
REMARK    1  A    between atoms: C_1  and  C_2
REMARK    2  A    between atoms: C_2  and  C_3
REMARK    3  A    between atoms: C_3  and  C_4
REMARK    4  A    between atoms: C_4  and  C_5
REMARK    5  A    between atoms: C_5  and  C_6
REMARK    6  A    between atoms: C_6  and  C_7
REMARK    7  A    between atoms: C_7  and  C_8
REMARK    8  A    between atoms: C_8  and  C_9
REMARK    9  A    between atoms: C_9  and  C_10
REMARK   10  A    between atoms: N_12  and  C_13
REMARK   11  A    between atoms: C_13  and  C_14
REMARK   12  A    between atoms: C_13  and  C_24
REMARK   13  A    between atoms: C_14  and  C_15
REMARK   14  A    between atoms: N_26  and  C_27
REMARK   15  A    between atoms: C_27  and  C_28
REMARK   16  A    between atoms: C_27  and  C_32
REMARK   17  A    between atoms: C_28  and  C_29
REMARK   18  A    between atoms: N_34  and  C_35
REMARK   19  A    between atoms: C_35  and  C_36
REMARK   20  A    between atoms: C_35  and  C_40
REMARK   21  A    between atoms: C_36  and  C_37
REMARK   22  A    between atoms: C_37  and  O_38
REMARK   23  A    between atoms: N_42  and  C_43
REMARK   24  A    between atoms: C_44  and  C_45
REMARK   25  A    between atoms: C_49  and  C_50
REMARK   26  A    between atoms: C_50  and  C_51
REMARK   27  A    between atoms: C_51  and  C_53
REMARK   28  A    between atoms: C_58  and  N_59
REMARK   29  A    between atoms: C_63  and  C_110
REMARK   30  A    between atoms: C_67  and  C_68
REMARK   31  A    between atoms: C_68  and  O_69
REMARK   32  A    between atoms: C_77  and  C_78
REMARK   33  A    between atoms: C_78  and  C_79
REMARK   34  A    between atoms: C_79  and  O_80
REMARK   35  A    between atoms: C_85  and  C_86
REMARK   36  A    between atoms: C_90  and  C_91
REMARK   37  A    between atoms: C_91  and  C_92
REMARK   38  A    between atoms: C_92  and  O_93
REMARK   39  A    between atoms: C_98  and  C_99
REMARK   40  A    between atoms: C_99  and  C_100
REMARK   41  A    between atoms: C_100  and  C_101
REMARK   42  A    between atoms: C_101  and  N_102
REMARK   43  A    between atoms: C_110  and  C_111
REMARK   44  A    between atoms: C_110  and  C_112
REMARK   45  A    between atoms: C_112  and  C_113
REMARK   46  A    between atoms: C_113  and  O_114
REMARK                            x       y       z     vdW  Elec       q    Type
REMARK                         _______ _______ _______ _____ _____    ______ ____
ROOT
ATOM      1  C   UNK     1      73.548  71.862 101.231  0.00  0.00    +0.000 C 
ATOM      2  C   UNK     1      73.196  70.361 101.288  0.00  0.00    +0.000 C 
ATOM      3  C   UNK     1      71.799  70.062 100.739  0.00  0.00    +0.000 C 
ATOM      4  O   UNK     1      73.222  69.911 102.613  0.00  0.00    +0.000 OA
ATOM      5  C   UNK     1      74.402  69.577 103.198  0.00  0.00    +0.000 C 
ATOM      6  O   UNK     1      75.490  69.643 102.673  0.00  0.00    +0.000 OA
ATOM      7  C   UNK     1      74.204  69.125 104.651  0.00  0.00    +0.000 C 
ATOM      8  N   UNK     1      75.374  68.311 105.016  0.00  0.00    +0.000 N 
ATOM      9  C   UNK     1      75.855  68.093 106.279  0.00  0.00    +0.000 C 
ATOM     10  O   UNK     1      76.768  67.326 106.455  0.00  0.00    +0.000 OA
ATOM     11  C   UNK     1      75.209  68.887 107.419  0.00  0.00    +0.000 C 
ATOM     12  N   UNK     1      75.296  68.224 108.730  0.00  0.00    +0.000 N 
ATOM     13  C   UNK     1      74.925  66.923 108.958  0.00  0.00    +0.000 C 
ATOM     14  O   UNK     1      74.529  66.171 108.099  0.00  0.00    +0.000 OA
ATOM     15  C   UNK     1      75.049  66.482 110.420  0.00  0.00    +0.000 C 
ATOM     16  N   UNK     1      74.761  65.046 110.492  0.00  0.00    +0.000 N 
ATOM     17  C   UNK     1      75.094  64.264 111.564  0.00  0.00    +0.000 C 
ATOM     18  O   UNK     1      75.628  64.702 112.553  0.00  0.00    +0.000 OA
ATOM     19  C   UNK     1      74.743  62.788 111.412  0.00  0.00    +0.000 C 
ATOM     20  N   UNK     1      75.085  62.320 110.067  0.00  0.00    +0.000 N 
ATOM     21  C   UNK     1      74.287  62.561 108.985  0.00  0.00    +0.000 C 
ATOM     22  O   UNK     1      73.192  63.059 109.056  0.00  0.00    +0.000 OA
ATOM     23  C   UNK     1      74.919  62.242 107.641  0.00  0.00    +0.000 C 
ATOM     24  N   UNK     1      74.783  63.472 106.854  0.00  0.00    +0.000 N 
ATOM     25  C   UNK     1      75.511  63.687 105.725  0.00  0.00    +0.000 C 
ATOM     26  O   UNK     1      76.448  62.998 105.408  0.00  0.00    +0.000 OA
ATOM     27  C   UNK     1      74.992  64.803 104.836  0.00  0.00    +0.000 C 
ATOM     28  C   UNK     1      73.552  64.494 104.397  0.00  0.00    +0.000 C 
ATOM     29  N   UNK     1      75.900  64.839 103.692  0.00  0.00    +0.000 N 
ATOM     30  C   UNK     1      75.878  65.792 102.724  0.00  0.00    +0.000 C 
ATOM     31  O   UNK     1      75.112  66.721 102.738  0.00  0.00    +0.000 OA
ATOM     32  C   UNK     1      76.890  65.549 101.607  0.00  0.00    +0.000 C 
ATOM     33  N   UNK     1      76.411  66.197 100.381  0.00  0.00    +0.000 N 
ATOM     34  C   UNK     1      76.696  67.503 100.094  0.00  0.00    +0.000 C 
ATOM     35  O   UNK     1      77.422  68.185 100.773  0.00  0.00    +0.000 OA
ATOM     36  C   UNK     1      76.029  68.046  98.835  0.00  0.00    +0.000 C 
ATOM     37  N   UNK     1      76.027  69.513  98.920  0.00  0.00    +0.000 N 
ATOM     38  C   UNK     1      74.979  70.286  98.502  0.00  0.00    +0.000 C 
ATOM     39  O   UNK     1      73.970  69.832  98.024  0.00  0.00    +0.000 OA
ATOM     40  C   UNK     1      75.174  71.781  98.692  0.00  0.00    +0.000 C 
ATOM     41  N   UNK     1      73.904  72.489  98.824  0.00  0.00    +0.000 N 
ATOM     42  C   UNK     1      73.124  72.589  99.942  0.00  0.00    +0.000 C 
ATOM     43  O   UNK     1      72.091  73.213  99.872  0.00  0.00    +0.000 OA
ATOM     44  H   UNK     1      75.864  67.841 104.255  0.00  0.00    +0.000 HD
ATOM     45  H   UNK     1      75.519  68.807 109.542  0.00  0.00    +0.000 HD
ATOM     46  H   UNK     1      74.267  64.648 109.693  0.00  0.00    +0.000 HD
ATOM     47  H   UNK     1      75.992  61.878 109.920  0.00  0.00    +0.000 HD
ATOM     48  H   UNK     1      74.088  64.160 107.155  0.00  0.00    +0.000 HD
ATOM     49  H   UNK     1      76.518  64.032 103.586  0.00  0.00    +0.000 HD
ATOM     50  H   UNK     1      75.744  65.679  99.805  0.00  0.00    +0.000 HD
ATOM     51  H   UNK     1      76.837  69.950  99.365  0.00  0.00    +0.000 HD
ATOM     52  H   UNK     1      73.515  72.943  97.999  0.00  0.00    +0.000 HD
ENDROOT
BRANCH   1  55
ATOM     53  C   UNK     1      75.342  73.286 102.202  0.00  0.00    +0.000 C 
ATOM     54  O   UNK     1      74.765  74.318 101.960  0.00  0.00    +0.000 OA
ATOM     55  N   UNK     1      74.923  72.079 101.714  0.00  0.00    +0.000 N 
ATOM     56  H   UNK     1      75.558  71.278 101.782  0.00  0.00    +0.000 HD
BRANCH  53  57
ATOM     57  C   UNK     1      76.533  73.223 103.167  0.00  0.00    +0.000 C 
BRANCH  57  60
ATOM     58  C   UNK     1      78.959  73.222 102.634  0.00  0.00    +0.000 C 
ATOM     59  O   UNK     1      79.230  73.969 103.540  0.00  0.00    +0.000 OA
ATOM     60  N   UNK     1      77.704  72.718 102.435  0.00  0.00    +0.000 N 
ATOM     61  H   UNK     1      77.551  72.093 101.646  0.00  0.00    +0.000 HD
BRANCH  58  62
ATOM     62  C   UNK     1      79.977  72.799 101.574  0.00  0.00    +0.000 C 
BRANCH  62  65
ATOM     63  C   UNK     1      79.922  72.813  99.090  0.00  0.00    +0.000 C 
ATOM     64  O   UNK     1      81.047  73.240  99.010  0.00  0.00    +0.000 OA
ATOM     65  N   UNK     1      79.323  72.534 100.287  0.00  0.00    +0.000 N 
ATOM     66  H   UNK     1      78.373  72.165 100.296  0.00  0.00    +0.000 HD
BRANCH  63  67
ATOM     67  C   UNK     1      79.055  72.547  97.860  0.00  0.00    +0.000 C 
BRANCH  67  70
ATOM     68  C   UNK     1      78.830  70.483  96.470  0.00  0.00    +0.000 C 
ATOM     69  O   UNK     1      77.636  70.606  96.362  0.00  0.00    +0.000 OA
ATOM     70  N   UNK     1      79.610  71.397  97.127  0.00  0.00    +0.000 N 
ATOM     71  H   UNK     1      80.606  71.197  97.230  0.00  0.00    +0.000 HD
BRANCH  68  72
ATOM     72  C   UNK     1      79.611  69.308  95.903  0.00  0.00    +0.000 C 
BRANCH  72  73
ATOM     73  C   UNK     1      79.301  69.010  94.427  0.00  0.00    +0.000 C 
BRANCH  73  74
ATOM     74  C   UNK     1      78.820  67.567  94.211  0.00  0.00    +0.000 C 
BRANCH  74  75
ATOM     75  C   UNK     1      79.962  66.656  93.730  0.00  0.00    +0.000 C 
BRANCH  75  76
ATOM     76  C   UNK     1      79.992  65.314  94.478  0.00  0.00    +0.000 C 
BRANCH  76  77
ATOM     77  C   UNK     1      79.265  65.398  95.830  0.00  0.00    +0.000 C 
BRANCH  77  78
ATOM     78  C   UNK     1      80.244  65.403  97.015  0.00  0.00    +0.000 C 
BRANCH  78  80
ATOM     79  C   UNK     1      80.085  66.104  99.456  0.00  0.00    +0.000 C 
ATOM     80  C   UNK     1      79.523  65.194  98.356  0.00  0.00    +0.000 C 
ENDBRANCH  78  80
ENDBRANCH  77  78
ENDBRANCH  76  77
ENDBRANCH  75  76
ENDBRANCH  74  75
ENDBRANCH  73  74
ENDBRANCH  72  73
ENDBRANCH  68  72
ENDBRANCH  67  70
BRANCH  67  81
ATOM     81  C   UNK     1      78.924  73.741  96.892  0.00  0.00    +0.000 C 
BRANCH  81  82
ATOM     82  C   UNK     1      78.257  74.943  97.492  0.00  0.00    +0.000 A 
ATOM     83  C   UNK     1      78.831  75.858  98.291  0.00  0.00    +0.000 A 
ATOM     84  N   UNK     1      77.950  76.700  98.643  0.00  0.00    +0.000 N 
ATOM     85  C   UNK     1      76.824  76.417  98.135  0.00  0.00    +0.000 A 
ATOM     86  C   UNK     1      76.972  75.314  97.389  0.00  0.00    +0.000 A 
ATOM     87  C   UNK     1      75.931  74.782  96.738  0.00  0.00    +0.000 A 
ATOM     88  C   UNK     1      74.737  75.389  96.857  0.00  0.00    +0.000 A 
ATOM     89  C   UNK     1      74.593  76.496  97.609  0.00  0.00    +0.000 A 
ATOM     90  C   UNK     1      75.640  77.028  98.261  0.00  0.00    +0.000 A 
ATOM     91  H   UNK     1      78.125  77.515  99.274  0.00  0.00    +0.000 HD
ENDBRANCH  81  82
ENDBRANCH  67  81
ENDBRANCH  63  67
ENDBRANCH  62  65
BRANCH  62  92
ATOM     92  C   UNK     1      80.683  71.507 102.038  0.00  0.00    +0.000 C 
BRANCH  92  93
ATOM     93  C   UNK     1      80.056  70.224 101.517  0.00  0.00    +0.000 C 
ATOM     94  N   UNK     1      79.237  69.587 102.393  0.00  0.00    +0.000 N 
ATOM     95  O   UNK     1      80.268  69.769 100.424  0.00  0.00    +0.000 OA
ATOM     96  H   UNK     1      78.831  68.708 102.108  0.00  0.00    +0.000 HD
ATOM     97  H   UNK     1      79.110  69.931 103.335  0.00  0.00    +0.000 HD
ENDBRANCH  92  93
ENDBRANCH  62  92
ENDBRANCH  58  62
ENDBRANCH  57  60
BRANCH  57  98
ATOM     98  C   UNK     1      76.328  72.398 104.447  0.00  0.00    +0.000 C 
BRANCH  98  99
ATOM     99  C   UNK     1      75.357  73.057 105.407  0.00  0.00    +0.000 C 
ATOM    100  O   UNK     1      75.671  73.899 106.210  0.00  0.00    +0.000 OA
BRANCH  99 101
ATOM    101  O   UNK     1      74.121  72.537 105.316  0.00  0.00    +0.000 OA
ATOM    102  H   UNK     1      73.958  72.231 104.409  0.00  0.00    +0.000 HD
ENDBRANCH  99 101
ENDBRANCH  98  99
ENDBRANCH  57  98
ENDBRANCH  53  57
ENDBRANCH   1  55
BRANCH  11 103
ATOM    103  C   UNK     1      75.879  70.282 107.482  0.00  0.00    +0.000 C 
ATOM    104  C   UNK     1      77.375  70.234 107.125  0.00  0.00    +0.000 C 
BRANCH 103 105
ATOM    105  C   UNK     1      75.629  70.974 108.832  0.00  0.00    +0.000 C 
BRANCH 105 106
ATOM    106  C   UNK     1      74.279  71.643 108.946  0.00  0.00    +0.000 C 
ATOM    107  O   UNK     1      73.447  71.703 108.074  0.00  0.00    +0.000 OA
BRANCH 106 108
ATOM    108  O   UNK     1      74.063  72.148 110.176  0.00  0.00    +0.000 OA
ATOM    109  H   UNK     1      73.222  72.634 110.170  0.00  0.00    +0.000 HD
ENDBRANCH 106 108
ENDBRANCH 105 106
ENDBRANCH 103 105
ENDBRANCH  11 103
BRANCH   7 110
ATOM    110  C   UNK     1      72.874  68.356 104.875  0.00  0.00    +0.000 C 
BRANCH 110 111
ATOM    111  C   UNK     1      71.947  68.885 105.979  0.00  0.00    +0.000 C 
ATOM    112  O   UNK     1      71.663  70.061 105.852  0.00  0.00    +0.000 OA
BRANCH 111 113
ATOM    113  C   UNK     1      71.459  68.127 107.013  0.00  0.00    +0.000 A 
ATOM    114  C   UNK     1      71.373  66.790 106.820  0.00  0.00    +0.000 A 
ATOM    115  C   UNK     1      70.928  65.944 107.761  0.00  0.00    +0.000 A 
ATOM    116  C   UNK     1      70.547  66.419 108.951  0.00  0.00    +0.000 A 
ATOM    117  C   UNK     1      70.613  67.739 109.168  0.00  0.00    +0.000 A 
ATOM    118  C   UNK     1      71.056  68.590 108.220  0.00  0.00    +0.000 A 
BRANCH 118 119
ATOM    119  N   UNK     1      71.021  69.798 108.607  0.00  0.00    +0.000 N 
ATOM    120  H   UNK     1      70.239  70.255 109.120  0.00  0.00    +0.000 HD
ATOM    121  H   UNK     1      71.847  70.419 108.428  0.00  0.00    +0.000 HD
ENDBRANCH 118 119
ENDBRANCH 111 113
ENDBRANCH 110 111
ENDBRANCH   7 110
BRANCH  15 122
ATOM    122  C   UNK     1      74.091  67.259 111.325  0.00  0.00    +0.000 C 
BRANCH 122 123
ATOM    123  O   UNK     1      74.737  68.398 111.853  0.00  0.00    +0.000 OA
ATOM    124  H   UNK     1      74.223  69.173 111.613  0.00  0.00    +0.000 HD
ENDBRANCH 122 123
ENDBRANCH  15 122
BRANCH  23 125
ATOM    125  C   UNK     1      74.227  61.059 106.932  0.00  0.00    +0.000 C 
BRANCH 125 126
ATOM    126  C   UNK     1      73.975  59.876 107.858  0.00  0.00    +0.000 C 
ATOM    127  O   UNK     1      72.891  59.413 108.123  0.00  0.00    +0.000 OA
BRANCH 126 128
ATOM    128  O   UNK     1      75.112  59.399 108.412  0.00  0.00    +0.000 OA
ATOM    129  H   UNK     1      75.768  59.240 107.714  0.00  0.00    +0.000 HD
ENDBRANCH 126 128
ENDBRANCH 125 126
ENDBRANCH  23 125
BRANCH  36 130
ATOM    130  C   UNK     1      76.785  67.543  97.594  0.00  0.00    +0.000 C 
BRANCH 130 131
ATOM    131  C   UNK     1      75.944  66.601  96.717  0.00  0.00    +0.000 C 
BRANCH 131 132
ATOM    132  C   UNK     1      74.913  67.367  95.876  0.00  0.00    +0.000 C 
BRANCH 132 133
ATOM    133  N   UNK     1      75.492  68.619  95.360  0.00  0.00    +0.000 NA
ATOM    134  H   UNK     1      74.839  69.069  94.695  0.00  0.00    +0.000 HD
ATOM    135  H   UNK     1      75.613  69.304  96.127  0.00  0.00    +0.000 HD
ENDBRANCH 132 133
ENDBRANCH 131 132
ENDBRANCH 130 131
ENDBRANCH  36 130
BRANCH  32 136
ATOM    136  C   UNK     1      77.127  64.046 101.343  0.00  0.00    +0.000 C 
BRANCH 136 137
ATOM    137  C   UNK     1      75.878  63.434 100.738  0.00  0.00    +0.000 C 
ATOM    138  O   UNK     1      75.487  63.668  99.619  0.00  0.00    +0.000 OA
BRANCH 137 139
ATOM    139  O   UNK     1      75.203  62.658 101.615  0.00  0.00    +0.000 OA
ATOM    140  H   UNK     1      75.041  63.152 102.435  0.00  0.00    +0.000 HD
ENDBRANCH 137 139
ENDBRANCH 136 137
ENDBRANCH  32 136
TORSDOF 42
ENDMDL
