MODEL 1
REMARK VINA RESULT:      -6.7      0.000      0.000
REMARK  Name = ./1791.pdb
REMARK  41 active torsions:
REMARK  status: ('A' for Active; 'I' for Inactive)
REMARK    1  A    between atoms: C_1  and  C_2
REMARK    2  A    between atoms: C_2  and  C_3
REMARK    3  A    between atoms: C_3  and  C_4
REMARK    4  A    between atoms: C_3  and  C_5
REMARK    5  A    between atoms: C_5  and  N_6
REMARK    6  A    between atoms: C_5  and  C_7
REMARK    7  A    between atoms: C_10  and  C_12
REMARK    8  A    between atoms: N_14  and  C_15
REMARK    9  A    between atoms: C_15  and  C_16
REMARK   10  A    between atoms: C_15  and  C_20
REMARK   11  A    between atoms: C_16  and  C_17
REMARK   12  A    between atoms: C_17  and  C_18
REMARK   13  A    between atoms: C_17  and  C_19
REMARK   14  A    between atoms: N_22  and  C_23
REMARK   15  A    between atoms: C_23  and  C_24
REMARK   16  A    between atoms: C_23  and  C_29
REMARK   17  A    between atoms: C_24  and  C_25
REMARK   18  A    between atoms: C_25  and  C_26
REMARK   19  A    between atoms: N_31  and  C_32
REMARK   20  A    between atoms: C_32  and  C_33
REMARK   21  A    between atoms: C_32  and  C_37
REMARK   22  A    between atoms: C_33  and  C_34
REMARK   23  A    between atoms: C_33  and  C_35
REMARK   24  A    between atoms: C_35  and  C_36
REMARK   25  A    between atoms: N_39  and  C_40
REMARK   26  A    between atoms: C_48  and  C_49
REMARK   27  A    between atoms: C_49  and  C_50
REMARK   28  A    between atoms: C_56  and  C_57
REMARK   29  A    between atoms: C_57  and  C_58
REMARK   30  A    between atoms: C_64  and  C_65
REMARK   31  A    between atoms: C_65  and  C_66
REMARK   32  A    between atoms: C_74  and  C_75
REMARK   33  A    between atoms: C_75  and  C_76
REMARK   34  A    between atoms: C_85  and  C_97
REMARK   35  A    between atoms: C_89  and  C_90
REMARK   36  A    between atoms: C_90  and  C_91
REMARK   37  A    between atoms: C_91  and  C_92
REMARK   38  A    between atoms: C_92  and  N_93
REMARK   39  A    between atoms: C_97  and  C_98
REMARK   40  A    between atoms: C_97  and  C_99
REMARK   41  A    between atoms: C_99  and  C_100
REMARK                            x       y       z     vdW  Elec       q    Type
REMARK                         _______ _______ _______ _____ _____    ______ ____
ROOT
ATOM      1  C   UNK     1      73.969  64.458 103.888  0.00  0.00    +0.000 C 
ATOM      2  C   UNK     1      72.727  63.805 103.251  0.00  0.00    +0.000 C 
ATOM      3  C   UNK     1      71.487  64.003 104.149  0.00  0.00    +0.000 C 
ATOM      4  C   UNK     1      70.412  62.908 103.993  0.00  0.00    +0.000 C 
ATOM      5  C   UNK     1      69.771  62.470 105.328  0.00  0.00    +0.000 C 
ATOM      6  N   UNK     1      70.329  61.246 105.917  0.00  0.00    +0.000 N 
ATOM      7  C   UNK     1      71.662  60.955 105.970  0.00  0.00    +0.000 C 
ATOM      8  O   UNK     1      72.545  61.705 105.648  0.00  0.00    +0.000 OA
ATOM      9  C   UNK     1      71.999  59.563 106.483  0.00  0.00    +0.000 C 
ATOM     10  N   UNK     1      73.062  59.067 105.605  0.00  0.00    +0.000 N 
ATOM     11  C   UNK     1      73.367  57.744 105.476  0.00  0.00    +0.000 C 
ATOM     12  O   UNK     1      72.895  56.912 106.210  0.00  0.00    +0.000 OA
ATOM     13  C   UNK     1      74.308  57.436 104.315  0.00  0.00    +0.000 C 
ATOM     14  N   UNK     1      73.717  57.900 103.049  0.00  0.00    +0.000 N 
ATOM     15  C   UNK     1      73.835  59.174 102.570  0.00  0.00    +0.000 C 
ATOM     16  O   UNK     1      74.325  60.073 103.205  0.00  0.00    +0.000 OA
ATOM     17  C   UNK     1      73.275  59.358 101.163  0.00  0.00    +0.000 C 
ATOM     18  N   UNK     1      73.419  60.713 100.616  0.00  0.00    +0.000 N 
ATOM     19  C   UNK     1      74.561  61.353 100.218  0.00  0.00    +0.000 C 
ATOM     20  O   UNK     1      74.481  62.412  99.648  0.00  0.00    +0.000 OA
ATOM     21  C   UNK     1      75.924  60.716 100.497  0.00  0.00    +0.000 C 
ATOM     22  N   UNK     1      76.774  61.776 101.060  0.00  0.00    +0.000 N 
ATOM     23  C   UNK     1      77.900  61.534 101.803  0.00  0.00    +0.000 C 
ATOM     24  O   UNK     1      78.198  60.437 102.204  0.00  0.00    +0.000 OA
ATOM     25  C   UNK     1      78.769  62.770 102.040  0.00  0.00    +0.000 C 
ATOM     26  N   UNK     1      77.900  63.885 102.429  0.00  0.00    +0.000 N 
ATOM     27  C   UNK     1      78.193  65.192 102.164  0.00  0.00    +0.000 C 
ATOM     28  O   UNK     1      79.230  65.538 101.652  0.00  0.00    +0.000 OA
ATOM     29  C   UNK     1      77.110  66.193 102.571  0.00  0.00    +0.000 C 
ATOM     30  N   UNK     1      76.032  65.629 103.402  0.00  0.00    +0.000 N 
ATOM     31  C   UNK     1      75.142  64.694 102.948  0.00  0.00    +0.000 C 
ATOM     32  O   UNK     1      75.286  64.115 101.902  0.00  0.00    +0.000 OA
ATOM     33  H   UNK     1      69.702  60.618 106.426  0.00  0.00    +0.000 HD
ATOM     34  H   UNK     1      73.566  59.769 105.060  0.00  0.00    +0.000 HD
ATOM     35  H   UNK     1      73.186  57.226 102.498  0.00  0.00    +0.000 HD
ATOM     36  H   UNK     1      72.567  61.230 100.399  0.00  0.00    +0.000 HD
ATOM     37  H   UNK     1      76.510  62.739 100.825  0.00  0.00    +0.000 HD
ATOM     38  H   UNK     1      77.020  63.662 102.890  0.00  0.00    +0.000 HD
ATOM     39  H   UNK     1      75.874  66.032 104.327  0.00  0.00    +0.000 HD
ENDROOT
BRANCH   1  42
ATOM     40  C   UNK     1      74.795  64.239 106.224  0.00  0.00    +0.000 C 
ATOM     41  O   UNK     1      74.878  65.430 106.389  0.00  0.00    +0.000 OA
ATOM     42  N   UNK     1      74.399  63.669 105.052  0.00  0.00    +0.000 N 
ATOM     43  H   UNK     1      74.398  62.653 104.969  0.00  0.00    +0.000 HD
BRANCH  40  44
ATOM     44  C   UNK     1      75.098  63.271 107.368  0.00  0.00    +0.000 C 
BRANCH  44  47
ATOM     45  C   UNK     1      73.367  63.734 109.106  0.00  0.00    +0.000 C 
ATOM     46  O   UNK     1      72.650  62.810 108.814  0.00  0.00    +0.000 OA
ATOM     47  N   UNK     1      74.594  63.968 108.558  0.00  0.00    +0.000 N 
ATOM     48  H   UNK     1      75.139  64.772 108.869  0.00  0.00    +0.000 HD
BRANCH  45  49
ATOM     49  C   UNK     1      72.911  64.758 110.143  0.00  0.00    +0.000 C 
BRANCH  49  52
ATOM     50  C   UNK     1      71.976  66.553 108.669  0.00  0.00    +0.000 C 
ATOM     51  O   UNK     1      70.979  65.940 108.373  0.00  0.00    +0.000 OA
ATOM     52  N   UNK     1      72.962  66.056 109.466  0.00  0.00    +0.000 N 
ATOM     53  H   UNK     1      73.812  66.605 109.609  0.00  0.00    +0.000 HD
BRANCH  50  54
ATOM     54  C   UNK     1      72.233  67.985 108.195  0.00  0.00    +0.000 C 
BRANCH  54  57
ATOM     55  C   UNK     1      74.281  69.430 108.599  0.00  0.00    +0.000 C 
ATOM     56  O   UNK     1      75.077  69.834 109.407  0.00  0.00    +0.000 OA
ATOM     57  N   UNK     1      73.258  68.628 109.028  0.00  0.00    +0.000 N 
ATOM     58  H   UNK     1      73.298  68.388 110.017  0.00  0.00    +0.000 HD
BRANCH  55  62
ATOM     59  C   UNK     1      76.715  69.692 106.457  0.00  0.00    +0.000 C 
ATOM     60  N   UNK     1      76.484  70.899 106.760  0.00  0.00    +0.000 NA
ATOM     61  C   UNK     1      75.018  71.154 106.832  0.00  0.00    +0.000 C 
ATOM     62  C   UNK     1      74.349  69.790 107.114  0.00  0.00    +0.000 C 
ATOM     63  S   UNK     1      75.563  68.812 106.232  0.00  0.00    +0.000 S 
BRANCH  59  64
ATOM     64  C   UNK     1      78.139  69.189 106.479  0.00  0.00    +0.000 C 
BRANCH  64  65
ATOM     65  N   UNK     1      78.425  68.692 107.837  0.00  0.00    +0.000 NA
ATOM     66  H   UNK     1      78.625  67.677 107.812  0.00  0.00    +0.000 HD
ATOM     67  H   UNK     1      79.291  69.109 108.217  0.00  0.00    +0.000 HD
ENDBRANCH  64  65
BRANCH  64  68
ATOM     68  C   UNK     1      78.445  68.141 105.387  0.00  0.00    +0.000 C 
ATOM     69  C   UNK     1      79.217  68.803 104.228  0.00  0.00    +0.000 C 
BRANCH  68  71
ATOM     70  C   UNK     1      80.613  66.722 105.262  0.00  0.00    +0.000 C 
ATOM     71  C   UNK     1      79.232  66.919 105.907  0.00  0.00    +0.000 C 
ENDBRANCH  68  71
ENDBRANCH  64  68
ENDBRANCH  59  64
ENDBRANCH  55  62
ENDBRANCH  54  57
BRANCH  54  72
ATOM     72  C   UNK     1      70.929  68.807 108.221  0.00  0.00    +0.000 C 
BRANCH  72  73
ATOM     73  C   UNK     1      70.829  69.906 107.145  0.00  0.00    +0.000 C 
ATOM     74  C   UNK     1      69.515  69.830 106.350  0.00  0.00    +0.000 C 
ATOM     75  C   UNK     1      70.960  71.293 107.803  0.00  0.00    +0.000 C 
ENDBRANCH  72  73
ENDBRANCH  54  72
ENDBRANCH  50  54
ENDBRANCH  49  52
BRANCH  49  76
ATOM     76  C   UNK     1      73.796  64.791 111.402  0.00  0.00    +0.000 C 
BRANCH  76  77
ATOM     77  C   UNK     1      73.602  66.064 112.244  0.00  0.00    +0.000 C 
BRANCH  77  78
ATOM     78  C   UNK     1      74.725  67.080 112.117  0.00  0.00    +0.000 C 
ATOM     79  O   UNK     1      75.369  67.093 111.044  0.00  0.00    +0.000 OA
ATOM     80  O   UNK     1      74.939  67.857 113.071  0.00  0.00    +0.000 OA
ENDBRANCH  77  78
ENDBRANCH  76  77
ENDBRANCH  49  76
ENDBRANCH  45  49
ENDBRANCH  44  47
BRANCH  44  81
ATOM     81  C   UNK     1      76.609  62.957 107.462  0.00  0.00    +0.000 C 
ATOM     82  C   UNK     1      77.380  63.409 106.206  0.00  0.00    +0.000 C 
BRANCH  81  83
ATOM     83  C   UNK     1      77.281  63.585 108.701  0.00  0.00    +0.000 C 
ATOM     84  C   UNK     1      78.659  64.201 108.436  0.00  0.00    +0.000 C 
ENDBRANCH  81  83
ENDBRANCH  44  81
ENDBRANCH  40  44
ENDBRANCH   1  42
BRANCH  25  85
ATOM     85  C   UNK     1      79.984  62.623 102.986  0.00  0.00    +0.000 C 
ATOM     86  C   UNK     1      79.755  63.294 104.352  0.00  0.00    +0.000 C 
BRANCH  85  87
ATOM     87  C   UNK     1      81.304  63.053 102.320  0.00  0.00    +0.000 C 
ATOM     88  C   UNK     1      82.154  64.009 103.167  0.00  0.00    +0.000 C 
ENDBRANCH  85  87
ENDBRANCH  25  85
BRANCH   9  89
ATOM     89  C   UNK     1      72.418  59.663 107.956  0.00  0.00    +0.000 C 
BRANCH  89  90
ATOM     90  C   UNK     1      73.921  59.510 108.127  0.00  0.00    +0.000 C 
ATOM     91  N   UNK     1      74.304  58.407 108.821  0.00  0.00    +0.000 N 
ATOM     92  O   UNK     1      74.742  60.273 107.688  0.00  0.00    +0.000 OA
ATOM     93  H   UNK     1      75.288  58.272 108.996  0.00  0.00    +0.000 HD
ATOM     94  H   UNK     1      73.638  57.674 109.026  0.00  0.00    +0.000 HD
ENDBRANCH  89  90
ENDBRANCH   9  89
BRANCH  13  95
ATOM     95  C   UNK     1      74.656  55.937 104.205  0.00  0.00    +0.000 C 
BRANCH  95  96
ATOM     96  C   UNK     1      76.020  55.566 104.764  0.00  0.00    +0.000 C 
ATOM     97  O   UNK     1      76.310  54.350 104.846  0.00  0.00    +0.000 OA
ATOM     98  O   UNK     1      76.785  56.500 105.088  0.00  0.00    +0.000 OA
ENDBRANCH  95  96
ENDBRANCH  13  95
BRANCH  17  99
ATOM     99  C   UNK     1      73.634  58.241 100.166  0.00  0.00    +0.000 C 
BRANCH  99 100
ATOM    100  C   UNK     1      72.703  58.170  98.991  0.00  0.00    +0.000 A 
ATOM    101  C   UNK     1      72.481  57.123  98.182  0.00  0.00    +0.000 A 
ATOM    102  N   UNK     1      71.633  57.531  97.335  0.00  0.00    +0.000 N 
ATOM    103  C   UNK     1      71.363  58.738  97.609  0.00  0.00    +0.000 A 
ATOM    104  N   UNK     1      72.000  59.155  98.618  0.00  0.00    +0.000 NA
ATOM    105  H   UNK     1      71.231  56.973  96.547  0.00  0.00    +0.000 HD
ENDBRANCH  99 100
ENDBRANCH  17  99
BRANCH  21 106
ATOM    106  C   UNK     1      76.527  60.250  99.154  0.00  0.00    +0.000 C 
BRANCH 106 107
ATOM    107  C   UNK     1      76.680  58.745  99.088  0.00  0.00    +0.000 A 
ATOM    108  C   UNK     1      76.931  58.022 100.194  0.00  0.00    +0.000 A 
ATOM    109  C   UNK     1      77.039  56.686 100.135  0.00  0.00    +0.000 A 
ATOM    110  C   UNK     1      76.898  56.052  98.961  0.00  0.00    +0.000 A 
ATOM    111  C   UNK     1      76.652  56.762  97.849  0.00  0.00    +0.000 A 
ATOM    112  C   UNK     1      76.545  58.098  97.916  0.00  0.00    +0.000 A 
ENDBRANCH 106 107
ENDBRANCH  21 106
BRANCH  29 113
ATOM    113  C   UNK     1      76.517  67.002 101.400  0.00  0.00    +0.000 C 
BRANCH 113 114
ATOM    114  C   UNK     1      77.215  66.808 100.044  0.00  0.00    +0.000 C 
BRANCH 114 115
ATOM    115  C   UNK     1      76.286  66.142  99.016  0.00  0.00    +0.000 C 
BRANCH 115 116
ATOM    116  N   UNK     1      76.139  64.704  99.298  0.00  0.00    +0.000 NA
ATOM    117  H   UNK     1      75.725  64.220  98.482  0.00  0.00    +0.000 HD
ATOM    118  H   UNK     1      77.066  64.266  99.433  0.00  0.00    +0.000 HD
ENDBRANCH 115 116
ENDBRANCH 114 115
ENDBRANCH 113 114
ENDBRANCH  29 113
TORSDOF 33
ENDMDL
MODEL 2
REMARK VINA RESULT:      -6.6      3.429     10.288
REMARK  Name = ./1791.pdb
REMARK  41 active torsions:
REMARK  status: ('A' for Active; 'I' for Inactive)
REMARK    1  A    between atoms: C_1  and  C_2
REMARK    2  A    between atoms: C_2  and  C_3
REMARK    3  A    between atoms: C_3  and  C_4
REMARK    4  A    between atoms: C_3  and  C_5
REMARK    5  A    between atoms: C_5  and  N_6
REMARK    6  A    between atoms: C_5  and  C_7
REMARK    7  A    between atoms: C_10  and  C_12
REMARK    8  A    between atoms: N_14  and  C_15
REMARK    9  A    between atoms: C_15  and  C_16
REMARK   10  A    between atoms: C_15  and  C_20
REMARK   11  A    between atoms: C_16  and  C_17
REMARK   12  A    between atoms: C_17  and  C_18
REMARK   13  A    between atoms: C_17  and  C_19
REMARK   14  A    between atoms: N_22  and  C_23
REMARK   15  A    between atoms: C_23  and  C_24
REMARK   16  A    between atoms: C_23  and  C_29
REMARK   17  A    between atoms: C_24  and  C_25
REMARK   18  A    between atoms: C_25  and  C_26
REMARK   19  A    between atoms: N_31  and  C_32
REMARK   20  A    between atoms: C_32  and  C_33
REMARK   21  A    between atoms: C_32  and  C_37
REMARK   22  A    between atoms: C_33  and  C_34
REMARK   23  A    between atoms: C_33  and  C_35
REMARK   24  A    between atoms: C_35  and  C_36
REMARK   25  A    between atoms: N_39  and  C_40
REMARK   26  A    between atoms: C_48  and  C_49
REMARK   27  A    between atoms: C_49  and  C_50
REMARK   28  A    between atoms: C_56  and  C_57
REMARK   29  A    between atoms: C_57  and  C_58
REMARK   30  A    between atoms: C_64  and  C_65
REMARK   31  A    between atoms: C_65  and  C_66
REMARK   32  A    between atoms: C_74  and  C_75
REMARK   33  A    between atoms: C_75  and  C_76
REMARK   34  A    between atoms: C_85  and  C_97
REMARK   35  A    between atoms: C_89  and  C_90
REMARK   36  A    between atoms: C_90  and  C_91
REMARK   37  A    between atoms: C_91  and  C_92
REMARK   38  A    between atoms: C_92  and  N_93
REMARK   39  A    between atoms: C_97  and  C_98
REMARK   40  A    between atoms: C_97  and  C_99
REMARK   41  A    between atoms: C_99  and  C_100
REMARK                            x       y       z     vdW  Elec       q    Type
REMARK                         _______ _______ _______ _____ _____    ______ ____
ROOT
ATOM      1  C   UNK     1      76.034  64.258 101.294  0.00  0.00    +0.000 C 
ATOM      2  C   UNK     1      75.436  65.444 102.074  0.00  0.00    +0.000 C 
ATOM      3  C   UNK     1      76.226  66.739 101.788  0.00  0.00    +0.000 C 
ATOM      4  C   UNK     1      76.177  67.776 102.928  0.00  0.00    +0.000 C 
ATOM      5  C   UNK     1      77.525  68.483 103.186  0.00  0.00    +0.000 C 
ATOM      6  N   UNK     1      78.320  67.929 104.291  0.00  0.00    +0.000 N 
ATOM      7  C   UNK     1      78.486  66.595 104.527  0.00  0.00    +0.000 C 
ATOM      8  O   UNK     1      78.105  65.714 103.804  0.00  0.00    +0.000 OA
ATOM      9  C   UNK     1      79.218  66.254 105.817  0.00  0.00    +0.000 C 
ATOM     10  N   UNK     1      78.481  65.130 106.401  0.00  0.00    +0.000 N 
ATOM     11  C   UNK     1      78.567  64.785 107.718  0.00  0.00    +0.000 C 
ATOM     12  O   UNK     1      79.391  65.278 108.448  0.00  0.00    +0.000 OA
ATOM     13  C   UNK     1      77.517  63.772 108.162  0.00  0.00    +0.000 C 
ATOM     14  N   UNK     1      76.167  64.300 107.909  0.00  0.00    +0.000 N 
ATOM     15  C   UNK     1      75.510  64.186 106.716  0.00  0.00    +0.000 C 
ATOM     16  O   UNK     1      76.030  63.755 105.717  0.00  0.00    +0.000 OA
ATOM     17  C   UNK     1      74.064  64.667 106.760  0.00  0.00    +0.000 C 
ATOM     18  N   UNK     1      73.330  64.525 105.495  0.00  0.00    +0.000 N 
ATOM     19  C   UNK     1      72.903  63.378 104.884  0.00  0.00    +0.000 C 
ATOM     20  O   UNK     1      72.178  63.451 103.923  0.00  0.00    +0.000 OA
ATOM     21  C   UNK     1      73.346  62.018 105.428  0.00  0.00    +0.000 C 
ATOM     22  N   UNK     1      73.790  61.229 104.269  0.00  0.00    +0.000 N 
ATOM     23  C   UNK     1      74.620  60.142 104.362  0.00  0.00    +0.000 C 
ATOM     24  O   UNK     1      75.195  59.841 105.378  0.00  0.00    +0.000 OA
ATOM     25  C   UNK     1      74.717  59.319 103.076  0.00  0.00    +0.000 C 
ATOM     26  N   UNK     1      74.889  60.236 101.946  0.00  0.00    +0.000 N 
ATOM     27  C   UNK     1      74.448  59.960 100.683  0.00  0.00    +0.000 C 
ATOM     28  O   UNK     1      73.948  58.905 100.382  0.00  0.00    +0.000 OA
ATOM     29  C   UNK     1      74.644  61.090  99.669  0.00  0.00    +0.000 C 
ATOM     30  N   UNK     1      75.491  62.200 100.140  0.00  0.00    +0.000 N 
ATOM     31  C   UNK     1      75.133  63.039 101.160  0.00  0.00    +0.000 C 
ATOM     32  O   UNK     1      74.194  62.820 101.881  0.00  0.00    +0.000 OA
ATOM     33  H   UNK     1      78.882  68.569 104.858  0.00  0.00    +0.000 HD
ATOM     34  H   UNK     1      77.866  64.613 105.770  0.00  0.00    +0.000 HD
ATOM     35  H   UNK     1      75.694  64.781 108.674  0.00  0.00    +0.000 HD
ATOM     36  H   UNK     1      72.993  65.376 105.044  0.00  0.00    +0.000 HD
ATOM     37  H   UNK     1      73.401  61.502 103.360  0.00  0.00    +0.000 HD
ATOM     38  H   UNK     1      75.331  61.136 102.128  0.00  0.00    +0.000 HD
ATOM     39  H   UNK     1      76.335  62.421  99.611  0.00  0.00    +0.000 HD
ENDROOT
BRANCH   1  42
ATOM     40  C   UNK     1      78.428  63.602 101.141  0.00  0.00    +0.000 C 
ATOM     41  O   UNK     1      78.430  63.595  99.935  0.00  0.00    +0.000 OA
ATOM     42  N   UNK     1      77.323  63.877 101.889  0.00  0.00    +0.000 N 
ATOM     43  H   UNK     1      77.383  63.818 102.905  0.00  0.00    +0.000 HD
BRANCH  40  44
ATOM     44  C   UNK     1      79.714  63.336 101.924  0.00  0.00    +0.000 C 
BRANCH  44  47
ATOM     45  C   UNK     1      81.887  64.411 101.325  0.00  0.00    +0.000 C 
ATOM     46  O   UNK     1      82.218  64.654 102.459  0.00  0.00    +0.000 OA
ATOM     47  N   UNK     1      80.779  63.695 100.978  0.00  0.00    +0.000 N 
ATOM     48  H   UNK     1      80.576  63.530  99.992  0.00  0.00    +0.000 HD
BRANCH  45  49
ATOM     49  C   UNK     1      82.716  64.934 100.155  0.00  0.00    +0.000 C 
BRANCH  49  52
ATOM     50  C   UNK     1      81.357  66.514  98.767  0.00  0.00    +0.000 C 
ATOM     51  O   UNK     1      81.702  67.505  99.362  0.00  0.00    +0.000 OA
ATOM     52  N   UNK     1      81.753  65.253  99.099  0.00  0.00    +0.000 N 
ATOM     53  H   UNK     1      81.357  64.457  98.595  0.00  0.00    +0.000 HD
BRANCH  50  54
ATOM     54  C   UNK     1      80.442  66.566  97.541  0.00  0.00    +0.000 C 
BRANCH  54  57
ATOM     55  C   UNK     1      77.903  66.566  97.582  0.00  0.00    +0.000 C 
ATOM     56  O   UNK     1      76.909  66.003  97.962  0.00  0.00    +0.000 OA
ATOM     57  N   UNK     1      79.122  66.006  97.858  0.00  0.00    +0.000 N 
ATOM     58  H   UNK     1      79.078  65.165  98.431  0.00  0.00    +0.000 HD
BRANCH  55  62
ATOM     59  C   UNK     1      75.502  68.385  96.354  0.00  0.00    +0.000 C 
ATOM     60  N   UNK     1      75.915  67.753  95.339  0.00  0.00    +0.000 NA
ATOM     61  C   UNK     1      77.404  67.696  95.321  0.00  0.00    +0.000 C 
ATOM     62  C   UNK     1      77.866  67.871  96.785  0.00  0.00    +0.000 C 
ATOM     63  S   UNK     1      76.507  68.928  97.275  0.00  0.00    +0.000 S 
BRANCH  59  64
ATOM     64  C   UNK     1      74.019  68.428  96.640  0.00  0.00    +0.000 C 
BRANCH  64  65
ATOM     65  N   UNK     1      73.694  67.293  97.523  0.00  0.00    +0.000 NA
ATOM     66  H   UNK     1      72.868  67.518  98.105  0.00  0.00    +0.000 HD
ATOM     67  H   UNK     1      73.399  66.464  96.979  0.00  0.00    +0.000 HD
ENDBRANCH  64  65
BRANCH  64  68
ATOM     68  C   UNK     1      73.535  69.779  97.208  0.00  0.00    +0.000 C 
ATOM     69  C   UNK     1      73.222  70.750  96.052  0.00  0.00    +0.000 C 
BRANCH  68  71
ATOM     70  C   UNK     1      71.307  70.820  98.033  0.00  0.00    +0.000 C 
ATOM     71  C   UNK     1      72.305  69.655  98.133  0.00  0.00    +0.000 C 
ENDBRANCH  68  71
ENDBRANCH  64  68
ENDBRANCH  59  64
ENDBRANCH  55  62
ENDBRANCH  54  57
BRANCH  54  72
ATOM     72  C   UNK     1      81.076  65.808  96.359  0.00  0.00    +0.000 C 
BRANCH  72  73
ATOM     73  C   UNK     1      80.941  66.503  94.989  0.00  0.00    +0.000 C 
ATOM     74  C   UNK     1      82.276  67.084  94.492  0.00  0.00    +0.000 C 
ATOM     75  C   UNK     1      80.388  65.509  93.952  0.00  0.00    +0.000 C 
ENDBRANCH  72  73
ENDBRANCH  54  72
ENDBRANCH  50  54
ENDBRANCH  49  52
BRANCH  49  76
ATOM     76  C   UNK     1      83.748  63.918  99.633  0.00  0.00    +0.000 C 
BRANCH  76  77
ATOM     77  C   UNK     1      84.940  64.580  98.920  0.00  0.00    +0.000 C 
BRANCH  77  78
ATOM     78  C   UNK     1      85.644  63.689  97.911  0.00  0.00    +0.000 C 
ATOM     79  O   UNK     1      85.478  62.453  98.021  0.00  0.00    +0.000 OA
ATOM     80  O   UNK     1      86.334  64.226  97.018  0.00  0.00    +0.000 OA
ENDBRANCH  77  78
ENDBRANCH  76  77
ENDBRANCH  49  76
ENDBRANCH  45  49
ENDBRANCH  44  47
BRANCH  44  81
ATOM     81  C   UNK     1      79.804  61.863 102.386  0.00  0.00    +0.000 C 
ATOM     82  C   UNK     1      80.752  61.684 103.588  0.00  0.00    +0.000 C 
BRANCH  81  83
ATOM     83  C   UNK     1      78.431  61.260 102.751  0.00  0.00    +0.000 C 
ATOM     84  C   UNK     1      78.138  61.203 104.254  0.00  0.00    +0.000 C 
ENDBRANCH  81  83
ENDBRANCH  44  81
ENDBRANCH  40  44
ENDBRANCH   1  42
BRANCH  25  85
ATOM     85  C   UNK     1      75.738  58.157 103.043  0.00  0.00    +0.000 C 
ATOM     86  C   UNK     1      76.877  58.400 102.035  0.00  0.00    +0.000 C 
BRANCH  85  87
ATOM     87  C   UNK     1      75.063  56.785 102.867  0.00  0.00    +0.000 C 
ATOM     88  C   UNK     1      75.567  55.986 101.658  0.00  0.00    +0.000 C 
ENDBRANCH  85  87
ENDBRANCH  25  85
BRANCH   9  89
ATOM     89  C   UNK     1      80.681  65.923 105.487  0.00  0.00    +0.000 C 
BRANCH  89  90
ATOM     90  C   UNK     1      81.458  67.161 105.067  0.00  0.00    +0.000 C 
ATOM     91  N   UNK     1      82.311  66.969 104.029  0.00  0.00    +0.000 N 
ATOM     92  O   UNK     1      81.347  68.245 105.579  0.00  0.00    +0.000 OA
ATOM     93  H   UNK     1      82.880  67.747 103.730  0.00  0.00    +0.000 HD
ATOM     94  H   UNK     1      82.270  66.120 103.481  0.00  0.00    +0.000 HD
ENDBRANCH  89  90
ENDBRANCH   9  89
BRANCH  13  95
ATOM     95  C   UNK     1      77.650  63.381 109.649  0.00  0.00    +0.000 C 
BRANCH  95  96
ATOM     96  C   UNK     1      76.353  63.461 110.438  0.00  0.00    +0.000 C 
ATOM     97  O   UNK     1      76.126  64.507 111.089  0.00  0.00    +0.000 OA
ATOM     98  O   UNK     1      75.575  62.485 110.372  0.00  0.00    +0.000 OA
ENDBRANCH  95  96
ENDBRANCH  13  95
BRANCH  17  99
ATOM     99  C   UNK     1      73.264  64.224 107.998  0.00  0.00    +0.000 C 
BRANCH  99 100
ATOM    100  C   UNK     1      72.083  65.101 108.291  0.00  0.00    +0.000 A 
ATOM    101  C   UNK     1      71.818  65.772 109.422  0.00  0.00    +0.000 A 
ATOM    102  N   UNK     1      70.716  66.360 109.210  0.00  0.00    +0.000 N 
ATOM    103  C   UNK     1      70.340  66.065 108.036  0.00  0.00    +0.000 A 
ATOM    104  N   UNK     1      71.157  65.299 107.449  0.00  0.00    +0.000 NA
ATOM    105  H   UNK     1      70.206  66.975 109.885  0.00  0.00    +0.000 HD
ENDBRANCH  99 100
ENDBRANCH  17  99
BRANCH  21 106
ATOM    106  C   UNK     1      72.122  61.327 106.066  0.00  0.00    +0.000 C 
BRANCH 106 107
ATOM    107  C   UNK     1      72.518  60.361 107.162  0.00  0.00    +0.000 A 
ATOM    108  C   UNK     1      73.391  60.718 108.122  0.00  0.00    +0.000 A 
ATOM    109  C   UNK     1      73.719  59.867 109.106  0.00  0.00    +0.000 A 
ATOM    110  C   UNK     1      73.177  58.640 109.142  0.00  0.00    +0.000 A 
ATOM    111  C   UNK     1      72.309  58.270 108.188  0.00  0.00    +0.000 A 
ATOM    112  C   UNK     1      71.986  59.126 107.206  0.00  0.00    +0.000 A 
ENDBRANCH 106 107
ENDBRANCH  21 106
BRANCH  29 113
ATOM    113  C   UNK     1      73.336  61.634  99.061  0.00  0.00    +0.000 C 
BRANCH 113 114
ATOM    114  C   UNK     1      72.042  61.158  99.743  0.00  0.00    +0.000 C 
BRANCH 114 115
ATOM    115  C   UNK     1      71.036  62.305  99.919  0.00  0.00    +0.000 C 
BRANCH 115 116
ATOM    116  N   UNK     1      71.178  62.929 101.246  0.00  0.00    +0.000 NA
ATOM    117  H   UNK     1      70.260  62.969 101.723  0.00  0.00    +0.000 HD
ATOM    118  H   UNK     1      71.777  62.346 101.856  0.00  0.00    +0.000 HD
ENDBRANCH 115 116
ENDBRANCH 114 115
ENDBRANCH 113 114
ENDBRANCH  29 113
TORSDOF 33
ENDMDL
MODEL 3
REMARK VINA RESULT:      -6.5      3.460      5.823
REMARK  Name = ./1791.pdb
REMARK  41 active torsions:
REMARK  status: ('A' for Active; 'I' for Inactive)
REMARK    1  A    between atoms: C_1  and  C_2
REMARK    2  A    between atoms: C_2  and  C_3
REMARK    3  A    between atoms: C_3  and  C_4
REMARK    4  A    between atoms: C_3  and  C_5
REMARK    5  A    between atoms: C_5  and  N_6
REMARK    6  A    between atoms: C_5  and  C_7
REMARK    7  A    between atoms: C_10  and  C_12
REMARK    8  A    between atoms: N_14  and  C_15
REMARK    9  A    between atoms: C_15  and  C_16
REMARK   10  A    between atoms: C_15  and  C_20
REMARK   11  A    between atoms: C_16  and  C_17
REMARK   12  A    between atoms: C_17  and  C_18
REMARK   13  A    between atoms: C_17  and  C_19
REMARK   14  A    between atoms: N_22  and  C_23
REMARK   15  A    between atoms: C_23  and  C_24
REMARK   16  A    between atoms: C_23  and  C_29
REMARK   17  A    between atoms: C_24  and  C_25
REMARK   18  A    between atoms: C_25  and  C_26
REMARK   19  A    between atoms: N_31  and  C_32
REMARK   20  A    between atoms: C_32  and  C_33
REMARK   21  A    between atoms: C_32  and  C_37
REMARK   22  A    between atoms: C_33  and  C_34
REMARK   23  A    between atoms: C_33  and  C_35
REMARK   24  A    between atoms: C_35  and  C_36
REMARK   25  A    between atoms: N_39  and  C_40
REMARK   26  A    between atoms: C_48  and  C_49
REMARK   27  A    between atoms: C_49  and  C_50
REMARK   28  A    between atoms: C_56  and  C_57
REMARK   29  A    between atoms: C_57  and  C_58
REMARK   30  A    between atoms: C_64  and  C_65
REMARK   31  A    between atoms: C_65  and  C_66
REMARK   32  A    between atoms: C_74  and  C_75
REMARK   33  A    between atoms: C_75  and  C_76
REMARK   34  A    between atoms: C_85  and  C_97
REMARK   35  A    between atoms: C_89  and  C_90
REMARK   36  A    between atoms: C_90  and  C_91
REMARK   37  A    between atoms: C_91  and  C_92
REMARK   38  A    between atoms: C_92  and  N_93
REMARK   39  A    between atoms: C_97  and  C_98
REMARK   40  A    between atoms: C_97  and  C_99
REMARK   41  A    between atoms: C_99  and  C_100
REMARK                            x       y       z     vdW  Elec       q    Type
REMARK                         _______ _______ _______ _____ _____    ______ ____
ROOT
ATOM      1  C   UNK     1      74.205  65.123 104.360  0.00  0.00    +0.000 C 
ATOM      2  C   UNK     1      73.298  64.226 103.496  0.00  0.00    +0.000 C 
ATOM      3  C   UNK     1      71.914  64.052 104.158  0.00  0.00    +0.000 C 
ATOM      4  C   UNK     1      71.196  62.739 103.788  0.00  0.00    +0.000 C 
ATOM      5  C   UNK     1      70.470  62.069 104.975  0.00  0.00    +0.000 C 
ATOM      6  N   UNK     1      71.214  60.985 105.631  0.00  0.00    +0.000 N 
ATOM      7  C   UNK     1      72.548  61.030 105.917  0.00  0.00    +0.000 C 
ATOM      8  O   UNK     1      73.252  61.993 105.776  0.00  0.00    +0.000 OA
ATOM      9  C   UNK     1      73.137  59.733 106.454  0.00  0.00    +0.000 C 
ATOM     10  N   UNK     1      74.424  59.574 105.772  0.00  0.00    +0.000 N 
ATOM     11  C   UNK     1      75.073  58.378 105.674  0.00  0.00    +0.000 C 
ATOM     12  O   UNK     1      74.711  57.409 106.293  0.00  0.00    +0.000 OA
ATOM     13  C   UNK     1      76.244  58.390 104.696  0.00  0.00    +0.000 C 
ATOM     14  N   UNK     1      75.778  58.775 103.354  0.00  0.00    +0.000 N 
ATOM     15  C   UNK     1      75.647  60.068 102.930  0.00  0.00    +0.000 C 
ATOM     16  O   UNK     1      75.777  61.016 103.662  0.00  0.00    +0.000 OA
ATOM     17  C   UNK     1      75.306  60.199 101.450  0.00  0.00    +0.000 C 
ATOM     18  N   UNK     1      75.191  61.581 100.966  0.00  0.00    +0.000 N 
ATOM     19  C   UNK     1      76.183  62.508 100.793  0.00  0.00    +0.000 C 
ATOM     20  O   UNK     1      75.934  63.550 100.240  0.00  0.00    +0.000 OA
ATOM     21  C   UNK     1      77.595  62.210 101.302  0.00  0.00    +0.000 C 
ATOM     22  N   UNK     1      78.039  63.409 102.031  0.00  0.00    +0.000 N 
ATOM     23  C   UNK     1      79.046  63.404 102.960  0.00  0.00    +0.000 C 
ATOM     24  O   UNK     1      79.541  62.390 103.385  0.00  0.00    +0.000 OA
ATOM     25  C   UNK     1      79.518  64.798 103.376  0.00  0.00    +0.000 C 
ATOM     26  N   UNK     1      78.342  65.635 103.624  0.00  0.00    +0.000 N 
ATOM     27  C   UNK     1      78.333  66.989 103.443  0.00  0.00    +0.000 C 
ATOM     28  O   UNK     1      79.318  67.612 103.134  0.00  0.00    +0.000 OA
ATOM     29  C   UNK     1      76.977  67.662 103.668  0.00  0.00    +0.000 C 
ATOM     30  N   UNK     1      75.954  66.796 104.279  0.00  0.00    +0.000 N 
ATOM     31  C   UNK     1      75.421  65.702 103.652  0.00  0.00    +0.000 C 
ATOM     32  O   UNK     1      75.884  65.247 102.638  0.00  0.00    +0.000 OA
ATOM     33  H   UNK     1      70.690  60.189 106.005  0.00  0.00    +0.000 HD
ATOM     34  H   UNK     1      74.817  60.413 105.342  0.00  0.00    +0.000 HD
ATOM     35  H   UNK     1      75.538  58.028 102.702  0.00  0.00    +0.000 HD
ATOM     36  H   UNK     1      74.285  61.885 100.609  0.00  0.00    +0.000 HD
ATOM     37  H   UNK     1      77.582  64.290 101.772  0.00  0.00    +0.000 HD
ATOM     38  H   UNK     1      77.482  65.172 103.914  0.00  0.00    +0.000 HD
ATOM     39  H   UNK     1      75.544  67.086 105.168  0.00  0.00    +0.000 HD
ENDROOT
BRANCH   1  42
ATOM     40  C   UNK     1      74.767  64.990 106.779  0.00  0.00    +0.000 C 
ATOM     41  O   UNK     1      74.626  66.174 106.957  0.00  0.00    +0.000 OA
ATOM     42  N   UNK     1      74.618  64.390 105.565  0.00  0.00    +0.000 N 
ATOM     43  H   UNK     1      74.799  63.390 105.480  0.00  0.00    +0.000 HD
BRANCH  40  44
ATOM     44  C   UNK     1      75.088  64.059 107.949  0.00  0.00    +0.000 C 
BRANCH  44  47
ATOM     45  C   UNK     1      73.529  64.159 109.896  0.00  0.00    +0.000 C 
ATOM     46  O   UNK     1      73.224  62.993 109.868  0.00  0.00    +0.000 OA
ATOM     47  N   UNK     1      74.482  64.731 109.106  0.00  0.00    +0.000 N 
ATOM     48  H   UNK     1      74.682  65.727 109.201  0.00  0.00    +0.000 HD
BRANCH  45  49
ATOM     49  C   UNK     1      72.816  65.114 110.851  0.00  0.00    +0.000 C 
BRANCH  49  52
ATOM     50  C   UNK     1      74.523  65.081 112.683  0.00  0.00    +0.000 C 
ATOM     51  O   UNK     1      75.384  65.625 112.037  0.00  0.00    +0.000 OA
ATOM     52  N   UNK     1      73.293  64.762 112.191  0.00  0.00    +0.000 N 
ATOM     53  H   UNK     1      72.644  64.232 112.776  0.00  0.00    +0.000 HD
BRANCH  50  54
ATOM     54  C   UNK     1      74.710  64.705 114.156  0.00  0.00    +0.000 C 
BRANCH  54  57
ATOM     55  C   UNK     1      75.408  62.270 114.327  0.00  0.00    +0.000 C 
ATOM     56  O   UNK     1      75.040  61.130 114.453  0.00  0.00    +0.000 OA
ATOM     57  N   UNK     1      74.473  63.270 114.356  0.00  0.00    +0.000 N 
ATOM     58  H   UNK     1      73.510  62.943 114.424  0.00  0.00    +0.000 HD
BRANCH  55  62
ATOM     59  C   UNK     1      78.215  60.849 115.153  0.00  0.00    +0.000 C 
ATOM     60  N   UNK     1      78.071  61.720 116.059  0.00  0.00    +0.000 NA
ATOM     61  C   UNK     1      77.589  63.007 115.483  0.00  0.00    +0.000 C 
ATOM     62  C   UNK     1      76.879  62.655 114.158  0.00  0.00    +0.000 C 
ATOM     63  S   UNK     1      77.911  61.243 113.773  0.00  0.00    +0.000 S 
BRANCH  59  64
ATOM     64  C   UNK     1      78.552  59.430 115.545  0.00  0.00    +0.000 C 
BRANCH  64  65
ATOM     65  N   UNK     1      77.594  58.533 114.875  0.00  0.00    +0.000 NA
ATOM     66  H   UNK     1      77.094  57.956 115.573  0.00  0.00    +0.000 HD
ATOM     67  H   UNK     1      76.842  59.066 114.405  0.00  0.00    +0.000 HD
ENDBRANCH  64  65
BRANCH  64  68
ATOM     68  C   UNK     1      80.020  59.041 115.270  0.00  0.00    +0.000 C 
ATOM     69  C   UNK     1      80.913  59.505 116.439  0.00  0.00    +0.000 C 
BRANCH  68  71
ATOM     70  C   UNK     1      81.455  57.177 114.176  0.00  0.00    +0.000 C 
ATOM     71  C   UNK     1      80.224  57.530 115.026  0.00  0.00    +0.000 C 
ENDBRANCH  68  71
ENDBRANCH  64  68
ENDBRANCH  59  64
ENDBRANCH  55  62
ENDBRANCH  54  57
BRANCH  54  72
ATOM     72  C   UNK     1      73.768  65.534 115.050  0.00  0.00    +0.000 C 
BRANCH  72  73
ATOM     73  C   UNK     1      74.061  67.048 115.082  0.00  0.00    +0.000 C 
ATOM     74  C   UNK     1      73.120  67.807 116.032  0.00  0.00    +0.000 C 
ATOM     75  C   UNK     1      75.525  67.287 115.497  0.00  0.00    +0.000 C 
ENDBRANCH  72  73
ENDBRANCH  54  72
ENDBRANCH  50  54
ENDBRANCH  49  52
BRANCH  49  76
ATOM     76  C   UNK     1      71.282  65.002 110.797  0.00  0.00    +0.000 C 
BRANCH  76  77
ATOM     77  C   UNK     1      70.706  65.262 109.394  0.00  0.00    +0.000 C 
BRANCH  77  78
ATOM     78  C   UNK     1      70.868  66.690 108.901  0.00  0.00    +0.000 C 
ATOM     79  O   UNK     1      71.664  66.885 107.955  0.00  0.00    +0.000 OA
ATOM     80  O   UNK     1      70.193  67.590 109.445  0.00  0.00    +0.000 OA
ENDBRANCH  77  78
ENDBRANCH  76  77
ENDBRANCH  49  76
ENDBRANCH  45  49
ENDBRANCH  44  47
BRANCH  44  81
ATOM     81  C   UNK     1      76.612  63.858 108.113  0.00  0.00    +0.000 C 
ATOM     82  C   UNK     1      77.343  65.172 108.451  0.00  0.00    +0.000 C 
BRANCH  81  83
ATOM     83  C   UNK     1      76.971  62.808 109.186  0.00  0.00    +0.000 C 
ATOM     84  C   UNK     1      78.197  63.158 110.036  0.00  0.00    +0.000 C 
ENDBRANCH  81  83
ENDBRANCH  44  81
ENDBRANCH  40  44
ENDBRANCH   1  42
BRANCH  25  85
ATOM     85  C   UNK     1      80.552  64.893 104.522  0.00  0.00    +0.000 C 
ATOM     86  C   UNK     1      81.854  64.133 104.209  0.00  0.00    +0.000 C 
BRANCH  85  87
ATOM     87  C   UNK     1      79.953  64.517 105.890  0.00  0.00    +0.000 C 
ATOM     88  C   UNK     1      80.574  63.268 106.527  0.00  0.00    +0.000 C 
ENDBRANCH  85  87
ENDBRANCH  25  85
BRANCH   9  89
ATOM     89  C   UNK     1      73.260  59.837 107.981  0.00  0.00    +0.000 C 
BRANCH  89  90
ATOM     90  C   UNK     1      72.647  58.634 108.680  0.00  0.00    +0.000 C 
ATOM     91  N   UNK     1      72.156  57.683 107.844  0.00  0.00    +0.000 N 
ATOM     92  O   UNK     1      72.592  58.490 109.873  0.00  0.00    +0.000 OA
ATOM     93  H   UNK     1      71.705  56.878 108.252  0.00  0.00    +0.000 HD
ATOM     94  H   UNK     1      72.366  57.710 106.855  0.00  0.00    +0.000 HD
ENDBRANCH  89  90
ENDBRANCH   9  89
BRANCH  13  95
ATOM     95  C   UNK     1      76.976  57.033 104.620  0.00  0.00    +0.000 C 
BRANCH  95  96
ATOM     96  C   UNK     1      78.442  57.132 104.232  0.00  0.00    +0.000 C 
ATOM     97  O   UNK     1      79.091  58.125 104.634  0.00  0.00    +0.000 OA
ATOM     98  O   UNK     1      78.924  56.201 103.551  0.00  0.00    +0.000 OA
ENDBRANCH  95  96
ENDBRANCH  13  95
BRANCH  17  99
ATOM     99  C   UNK     1      76.101  59.274 100.511  0.00  0.00    +0.000 C 
BRANCH  99 100
ATOM    100  C   UNK     1      75.278  58.714  99.388  0.00  0.00    +0.000 A 
ATOM    101  C   UNK     1      75.221  57.442  98.967  0.00  0.00    +0.000 A 
ATOM    102  N   UNK     1      74.408  57.449  97.995  0.00  0.00    +0.000 N 
ATOM    103  C   UNK     1      74.005  58.640  97.837  0.00  0.00    +0.000 A 
ATOM    104  N   UNK     1      74.518  59.435  98.676  0.00  0.00    +0.000 NA
ATOM    105  H   UNK     1      74.125  56.621  97.423  0.00  0.00    +0.000 HD
ENDBRANCH  99 100
ENDBRANCH  17  99
BRANCH  21 106
ATOM    106  C   UNK     1      78.516  61.997 100.080  0.00  0.00    +0.000 C 
BRANCH 106 107
ATOM    107  C   UNK     1      79.439  63.175  99.849  0.00  0.00    +0.000 A 
ATOM    108  C   UNK     1      80.750  63.101 100.142  0.00  0.00    +0.000 A 
ATOM    109  C   UNK     1      81.568  64.139  99.911  0.00  0.00    +0.000 A 
ATOM    110  C   UNK     1      81.082  65.271  99.381  0.00  0.00    +0.000 A 
ATOM    111  C   UNK     1      79.776  65.361  99.088  0.00  0.00    +0.000 A 
ATOM    112  C   UNK     1      78.963  64.319  99.323  0.00  0.00    +0.000 A 
ENDBRANCH 106 107
ENDBRANCH  21 106
BRANCH  29 113
ATOM    113  C   UNK     1      76.405  68.375 102.427  0.00  0.00    +0.000 C 
BRANCH 113 114
ATOM    114  C   UNK     1      76.051  69.858 102.622  0.00  0.00    +0.000 C 
BRANCH 114 115
ATOM    115  C   UNK     1      74.769  70.034 103.451  0.00  0.00    +0.000 C 
BRANCH 115 116
ATOM    116  N   UNK     1      73.803  68.963 103.155  0.00  0.00    +0.000 NA
ATOM    117  H   UNK     1      72.866  69.365 102.978  0.00  0.00    +0.000 HD
ATOM    118  H   UNK     1      74.060  68.477 102.279  0.00  0.00    +0.000 HD
ENDBRANCH 115 116
ENDBRANCH 114 115
ENDBRANCH 113 114
ENDBRANCH  29 113
TORSDOF 33
ENDMDL
MODEL 4
REMARK VINA RESULT:      -6.5      3.033      7.944
REMARK  Name = ./1791.pdb
REMARK  41 active torsions:
REMARK  status: ('A' for Active; 'I' for Inactive)
REMARK    1  A    between atoms: C_1  and  C_2
REMARK    2  A    between atoms: C_2  and  C_3
REMARK    3  A    between atoms: C_3  and  C_4
REMARK    4  A    between atoms: C_3  and  C_5
REMARK    5  A    between atoms: C_5  and  N_6
REMARK    6  A    between atoms: C_5  and  C_7
REMARK    7  A    between atoms: C_10  and  C_12
REMARK    8  A    between atoms: N_14  and  C_15
REMARK    9  A    between atoms: C_15  and  C_16
REMARK   10  A    between atoms: C_15  and  C_20
REMARK   11  A    between atoms: C_16  and  C_17
REMARK   12  A    between atoms: C_17  and  C_18
REMARK   13  A    between atoms: C_17  and  C_19
REMARK   14  A    between atoms: N_22  and  C_23
REMARK   15  A    between atoms: C_23  and  C_24
REMARK   16  A    between atoms: C_23  and  C_29
REMARK   17  A    between atoms: C_24  and  C_25
REMARK   18  A    between atoms: C_25  and  C_26
REMARK   19  A    between atoms: N_31  and  C_32
REMARK   20  A    between atoms: C_32  and  C_33
REMARK   21  A    between atoms: C_32  and  C_37
REMARK   22  A    between atoms: C_33  and  C_34
REMARK   23  A    between atoms: C_33  and  C_35
REMARK   24  A    between atoms: C_35  and  C_36
REMARK   25  A    between atoms: N_39  and  C_40
REMARK   26  A    between atoms: C_48  and  C_49
REMARK   27  A    between atoms: C_49  and  C_50
REMARK   28  A    between atoms: C_56  and  C_57
REMARK   29  A    between atoms: C_57  and  C_58
REMARK   30  A    between atoms: C_64  and  C_65
REMARK   31  A    between atoms: C_65  and  C_66
REMARK   32  A    between atoms: C_74  and  C_75
REMARK   33  A    between atoms: C_75  and  C_76
REMARK   34  A    between atoms: C_85  and  C_97
REMARK   35  A    between atoms: C_89  and  C_90
REMARK   36  A    between atoms: C_90  and  C_91
REMARK   37  A    between atoms: C_91  and  C_92
REMARK   38  A    between atoms: C_92  and  N_93
REMARK   39  A    between atoms: C_97  and  C_98
REMARK   40  A    between atoms: C_97  and  C_99
REMARK   41  A    between atoms: C_99  and  C_100
REMARK                            x       y       z     vdW  Elec       q    Type
REMARK                         _______ _______ _______ _____ _____    ______ ____
ROOT
ATOM      1  C   UNK     1      75.774  58.019 102.855  0.00  0.00    +0.000 C 
ATOM      2  C   UNK     1      75.930  58.756 101.512  0.00  0.00    +0.000 C 
ATOM      3  C   UNK     1      76.607  60.128 101.719  0.00  0.00    +0.000 C 
ATOM      4  C   UNK     1      76.239  61.183 100.657  0.00  0.00    +0.000 C 
ATOM      5  C   UNK     1      76.013  62.597 101.234  0.00  0.00    +0.000 C 
ATOM      6  N   UNK     1      74.608  62.959 101.470  0.00  0.00    +0.000 N 
ATOM      7  C   UNK     1      73.680  62.122 102.018  0.00  0.00    +0.000 C 
ATOM      8  O   UNK     1      73.914  61.036 102.476  0.00  0.00    +0.000 OA
ATOM      9  C   UNK     1      72.254  62.655 102.023  0.00  0.00    +0.000 C 
ATOM     10  N   UNK     1      71.410  61.524 101.628  0.00  0.00    +0.000 N 
ATOM     11  C   UNK     1      70.145  61.671 101.140  0.00  0.00    +0.000 C 
ATOM     12  O   UNK     1      69.578  62.734 101.166  0.00  0.00    +0.000 OA
ATOM     13  C   UNK     1      69.561  60.395 100.541  0.00  0.00    +0.000 C 
ATOM     14  N   UNK     1      70.423  59.908  99.452  0.00  0.00    +0.000 N 
ATOM     15  C   UNK     1      71.514  59.105  99.639  0.00  0.00    +0.000 C 
ATOM     16  O   UNK     1      71.947  58.827 100.729  0.00  0.00    +0.000 OA
ATOM     17  C   UNK     1      72.140  58.604  98.342  0.00  0.00    +0.000 C 
ATOM     18  N   UNK     1      73.295  57.714  98.520  0.00  0.00    +0.000 N 
ATOM     19  C   UNK     1      73.315  56.431  98.996  0.00  0.00    +0.000 C 
ATOM     20  O   UNK     1      74.334  55.790  98.932  0.00  0.00    +0.000 OA
ATOM     21  C   UNK     1      72.045  55.825  99.597  0.00  0.00    +0.000 C 
ATOM     22  N   UNK     1      72.444  55.190 100.863  0.00  0.00    +0.000 N 
ATOM     23  C   UNK     1      71.570  54.901 101.877  0.00  0.00    +0.000 C 
ATOM     24  O   UNK     1      70.431  55.296 101.894  0.00  0.00    +0.000 OA
ATOM     25  C   UNK     1      72.152  53.997 102.965  0.00  0.00    +0.000 C 
ATOM     26  N   UNK     1      73.490  54.485 103.312  0.00  0.00    +0.000 N 
ATOM     27  C   UNK     1      74.491  53.672 103.762  0.00  0.00    +0.000 C 
ATOM     28  O   UNK     1      74.329  52.497 103.981  0.00  0.00    +0.000 OA
ATOM     29  C   UNK     1      75.838  54.365 103.978  0.00  0.00    +0.000 C 
ATOM     30  N   UNK     1      75.793  55.836 103.905  0.00  0.00    +0.000 N 
ATOM     31  C   UNK     1      75.507  56.524 102.756  0.00  0.00    +0.000 C 
ATOM     32  O   UNK     1      75.079  55.986 101.767  0.00  0.00    +0.000 OA
ATOM     33  H   UNK     1      74.323  63.931 101.327  0.00  0.00    +0.000 HD
ATOM     34  H   UNK     1      71.826  60.594 101.715  0.00  0.00    +0.000 HD
ATOM     35  H   UNK     1      70.191  60.189  98.500  0.00  0.00    +0.000 HD
ATOM     36  H   UNK     1      74.195  58.028  98.158  0.00  0.00    +0.000 HD
ATOM     37  H   UNK     1      73.430  54.916 100.939  0.00  0.00    +0.000 HD
ATOM     38  H   UNK     1      73.684  55.475 103.175  0.00  0.00    +0.000 HD
ATOM     39  H   UNK     1      76.093  56.370 104.721  0.00  0.00    +0.000 HD
ENDROOT
BRANCH   1  42
ATOM     40  C   UNK     1      74.905  59.003 104.968  0.00  0.00    +0.000 C 
ATOM     41  O   UNK     1      75.904  58.744 105.591  0.00  0.00    +0.000 OA
ATOM     42  N   UNK     1      74.730  58.671 103.658  0.00  0.00    +0.000 N 
ATOM     43  H   UNK     1      73.839  58.880 103.207  0.00  0.00    +0.000 HD
BRANCH  40  44
ATOM     44  C   UNK     1      73.760  59.781 105.618  0.00  0.00    +0.000 C 
BRANCH  44  47
ATOM     45  C   UNK     1      74.799  61.922 106.372  0.00  0.00    +0.000 C 
ATOM     46  O   UNK     1      74.443  62.572 105.421  0.00  0.00    +0.000 OA
ATOM     47  N   UNK     1      74.433  60.629 106.610  0.00  0.00    +0.000 N 
ATOM     48  H   UNK     1      74.777  60.155 107.445  0.00  0.00    +0.000 HD
BRANCH  45  49
ATOM     49  C   UNK     1      75.743  62.531 107.405  0.00  0.00    +0.000 C 
BRANCH  49  52
ATOM     50  C   UNK     1      74.172  63.031 109.290  0.00  0.00    +0.000 C 
ATOM     51  O   UNK     1      74.055  61.882 109.640  0.00  0.00    +0.000 OA
ATOM     52  N   UNK     1      74.916  63.425 108.218  0.00  0.00    +0.000 N 
ATOM     53  H   UNK     1      74.904  64.408 107.938  0.00  0.00    +0.000 HD
BRANCH  50  54
ATOM     54  C   UNK     1      73.508  64.191 110.036  0.00  0.00    +0.000 C 
BRANCH  54  57
ATOM     55  C   UNK     1      73.067  66.331 108.742  0.00  0.00    +0.000 C 
ATOM     56  O   UNK     1      73.546  67.324 108.256  0.00  0.00    +0.000 OA
ATOM     57  N   UNK     1      73.884  65.476 109.431  0.00  0.00    +0.000 N 
ATOM     58  H   UNK     1      74.870  65.735 109.420  0.00  0.00    +0.000 HD
BRANCH  55  62
ATOM     59  C   UNK     1      70.524  67.769 107.311  0.00  0.00    +0.000 C 
ATOM     60  N   UNK     1      70.386  68.107 108.523  0.00  0.00    +0.000 NA
ATOM     61  C   UNK     1      70.664  66.957 109.428  0.00  0.00    +0.000 C 
ATOM     62  C   UNK     1      71.579  65.992 108.642  0.00  0.00    +0.000 C 
ATOM     63  S   UNK     1      70.901  66.379 107.030  0.00  0.00    +0.000 S 
BRANCH  59  64
ATOM     64  C   UNK     1      70.434  68.827 106.238  0.00  0.00    +0.000 C 
BRANCH  64  65
ATOM     65  N   UNK     1      69.319  69.728 106.580  0.00  0.00    +0.000 NA
ATOM     66  H   UNK     1      69.682  70.637 106.915  0.00  0.00    +0.000 HD
ATOM     67  H   UNK     1      68.761  69.973 105.744  0.00  0.00    +0.000 HD
ENDBRANCH  64  65
BRANCH  64  68
ATOM     68  C   UNK     1      71.757  69.586 106.000  0.00  0.00    +0.000 C 
ATOM     69  C   UNK     1      72.002  69.749 104.487  0.00  0.00    +0.000 C 
BRANCH  68  71
ATOM     70  C   UNK     1      72.601  70.997 108.007  0.00  0.00    +0.000 C 
ATOM     71  C   UNK     1      71.810  70.967 106.690  0.00  0.00    +0.000 C 
ENDBRANCH  68  71
ENDBRANCH  64  68
ENDBRANCH  59  64
ENDBRANCH  55  62
ENDBRANCH  54  57
BRANCH  54  72
ATOM     72  C   UNK     1      73.893  64.167 111.527  0.00  0.00    +0.000 C 
BRANCH  72  73
ATOM     73  C   UNK     1      75.276  64.765 111.855  0.00  0.00    +0.000 C 
ATOM     74  C   UNK     1      75.176  66.033 112.720  0.00  0.00    +0.000 C 
ATOM     75  C   UNK     1      76.142  63.713 112.572  0.00  0.00    +0.000 C 
ENDBRANCH  72  73
ENDBRANCH  54  72
ENDBRANCH  50  54
ENDBRANCH  49  52
BRANCH  49  76
ATOM     76  C   UNK     1      76.907  63.321 106.781  0.00  0.00    +0.000 C 
BRANCH  76  77
ATOM     77  C   UNK     1      76.972  64.782 107.261  0.00  0.00    +0.000 C 
BRANCH  77  78
ATOM     78  C   UNK     1      76.426  65.795 106.269  0.00  0.00    +0.000 C 
ATOM     79  O   UNK     1      77.227  66.642 105.812  0.00  0.00    +0.000 OA
ATOM     80  O   UNK     1      75.222  65.725 105.946  0.00  0.00    +0.000 OA
ENDBRANCH  77  78
ENDBRANCH  76  77
ENDBRANCH  49  76
ENDBRANCH  45  49
ENDBRANCH  44  47
BRANCH  44  81
ATOM     81  C   UNK     1      72.721  58.831 106.259  0.00  0.00    +0.000 C 
ATOM     82  C   UNK     1      73.266  57.401 106.436  0.00  0.00    +0.000 C 
BRANCH  81  83
ATOM     83  C   UNK     1      72.208  59.332 107.626  0.00  0.00    +0.000 C 
ATOM     84  C   UNK     1      72.662  58.492 108.825  0.00  0.00    +0.000 C 
ENDBRANCH  81  83
ENDBRANCH  44  81
ENDBRANCH  40  44
ENDBRANCH   1  42
BRANCH  25  85
ATOM     85  C   UNK     1      71.286  53.733 104.219  0.00  0.00    +0.000 C 
ATOM     86  C   UNK     1      70.054  52.862 103.914  0.00  0.00    +0.000 C 
BRANCH  85  87
ATOM     87  C   UNK     1      70.934  55.027 104.975  0.00  0.00    +0.000 C 
ATOM     88  C   UNK     1      70.186  54.801 106.295  0.00  0.00    +0.000 C 
ENDBRANCH  85  87
ENDBRANCH  25  85
BRANCH   9  89
ATOM     89  C   UNK     1      71.932  63.202 103.421  0.00  0.00    +0.000 C 
BRANCH  89  90
ATOM     90  C   UNK     1      70.960  62.302 104.168  0.00  0.00    +0.000 C 
ATOM     91  N   UNK     1      69.799  62.903 104.534  0.00  0.00    +0.000 N 
ATOM     92  O   UNK     1      71.159  61.144 104.425  0.00  0.00    +0.000 OA
ATOM     93  H   UNK     1      69.131  62.364 105.064  0.00  0.00    +0.000 HD
ATOM     94  H   UNK     1      69.551  63.810 104.161  0.00  0.00    +0.000 HD
ENDBRANCH  89  90
ENDBRANCH   9  89
BRANCH  13  95
ATOM     95  C   UNK     1      68.122  60.582 100.017  0.00  0.00    +0.000 C 
BRANCH  95  96
ATOM     96  C   UNK     1      67.968  60.382  98.518  0.00  0.00    +0.000 C 
ATOM     97  O   UNK     1      68.273  61.334  97.764  0.00  0.00    +0.000 OA
ATOM     98  O   UNK     1      67.567  59.266  98.122  0.00  0.00    +0.000 OA
ENDBRANCH  95  96
ENDBRANCH  13  95
BRANCH  17  99
ATOM     99  C   UNK     1      71.139  58.121  97.276  0.00  0.00    +0.000 C 
BRANCH  99 100
ATOM    100  C   UNK     1      70.912  59.117  96.177  0.00  0.00    +0.000 A 
ATOM    101  C   UNK     1      71.690  60.155  95.836  0.00  0.00    +0.000 A 
ATOM    102  N   UNK     1      71.095  60.713  94.867  0.00  0.00    +0.000 N 
ATOM    103  C   UNK     1      70.033  60.060  94.638  0.00  0.00    +0.000 A 
ATOM    104  N   UNK     1      69.896  59.078  95.422  0.00  0.00    +0.000 NA
ATOM    105  H   UNK     1      71.421  61.562  94.351  0.00  0.00    +0.000 HD
ENDBRANCH  99 100
ENDBRANCH  17  99
BRANCH  21 106
ATOM    106  C   UNK     1      71.521  54.738  98.634  0.00  0.00    +0.000 C 
BRANCH 106 107
ATOM    107  C   UNK     1      70.106  55.017  98.174  0.00  0.00    +0.000 A 
ATOM    108  C   UNK     1      69.207  55.588  98.997  0.00  0.00    +0.000 A 
ATOM    109  C   UNK     1      67.961  55.856  98.577  0.00  0.00    +0.000 A 
ATOM    110  C   UNK     1      67.596  55.555  97.322  0.00  0.00    +0.000 A 
ATOM    111  C   UNK     1      68.481  54.980  96.493  0.00  0.00    +0.000 A 
ATOM    112  C   UNK     1      69.725  54.714  96.920  0.00  0.00    +0.000 A 
ENDBRANCH 106 107
ENDBRANCH  21 106
BRANCH  29 113
ATOM    113  C   UNK     1      76.983  53.820 103.101  0.00  0.00    +0.000 C 
BRANCH 113 114
ATOM    114  C   UNK     1      78.059  53.013 103.848  0.00  0.00    +0.000 C 
BRANCH 114 115
ATOM    115  C   UNK     1      77.773  51.504 103.802  0.00  0.00    +0.000 C 
BRANCH 115 116
ATOM    116  N   UNK     1      76.886  51.172 102.674  0.00  0.00    +0.000 NA
ATOM    117  H   UNK     1      77.226  51.624 101.807  0.00  0.00    +0.000 HD
ATOM    118  H   UNK     1      76.913  50.156 102.480  0.00  0.00    +0.000 HD
ENDBRANCH 115 116
ENDBRANCH 114 115
ENDBRANCH 113 114
ENDBRANCH  29 113
TORSDOF 33
ENDMDL
MODEL 5
REMARK VINA RESULT:      -6.4      2.947     12.002
REMARK  Name = ./1791.pdb
REMARK  41 active torsions:
REMARK  status: ('A' for Active; 'I' for Inactive)
REMARK    1  A    between atoms: C_1  and  C_2
REMARK    2  A    between atoms: C_2  and  C_3
REMARK    3  A    between atoms: C_3  and  C_4
REMARK    4  A    between atoms: C_3  and  C_5
REMARK    5  A    between atoms: C_5  and  N_6
REMARK    6  A    between atoms: C_5  and  C_7
REMARK    7  A    between atoms: C_10  and  C_12
REMARK    8  A    between atoms: N_14  and  C_15
REMARK    9  A    between atoms: C_15  and  C_16
REMARK   10  A    between atoms: C_15  and  C_20
REMARK   11  A    between atoms: C_16  and  C_17
REMARK   12  A    between atoms: C_17  and  C_18
REMARK   13  A    between atoms: C_17  and  C_19
REMARK   14  A    between atoms: N_22  and  C_23
REMARK   15  A    between atoms: C_23  and  C_24
REMARK   16  A    between atoms: C_23  and  C_29
REMARK   17  A    between atoms: C_24  and  C_25
REMARK   18  A    between atoms: C_25  and  C_26
REMARK   19  A    between atoms: N_31  and  C_32
REMARK   20  A    between atoms: C_32  and  C_33
REMARK   21  A    between atoms: C_32  and  C_37
REMARK   22  A    between atoms: C_33  and  C_34
REMARK   23  A    between atoms: C_33  and  C_35
REMARK   24  A    between atoms: C_35  and  C_36
REMARK   25  A    between atoms: N_39  and  C_40
REMARK   26  A    between atoms: C_48  and  C_49
REMARK   27  A    between atoms: C_49  and  C_50
REMARK   28  A    between atoms: C_56  and  C_57
REMARK   29  A    between atoms: C_57  and  C_58
REMARK   30  A    between atoms: C_64  and  C_65
REMARK   31  A    between atoms: C_65  and  C_66
REMARK   32  A    between atoms: C_74  and  C_75
REMARK   33  A    between atoms: C_75  and  C_76
REMARK   34  A    between atoms: C_85  and  C_97
REMARK   35  A    between atoms: C_89  and  C_90
REMARK   36  A    between atoms: C_90  and  C_91
REMARK   37  A    between atoms: C_91  and  C_92
REMARK   38  A    between atoms: C_92  and  N_93
REMARK   39  A    between atoms: C_97  and  C_98
REMARK   40  A    between atoms: C_97  and  C_99
REMARK   41  A    between atoms: C_99  and  C_100
REMARK                            x       y       z     vdW  Elec       q    Type
REMARK                         _______ _______ _______ _____ _____    ______ ____
ROOT
ATOM      1  C   UNK     1      75.292  65.172 104.272  0.00  0.00    +0.000 C 
ATOM      2  C   UNK     1      75.351  66.377 103.315  0.00  0.00    +0.000 C 
ATOM      3  C   UNK     1      76.322  66.099 102.147  0.00  0.00    +0.000 C 
ATOM      4  C   UNK     1      76.957  67.364 101.536  0.00  0.00    +0.000 C 
ATOM      5  C   UNK     1      78.452  67.204 101.185  0.00  0.00    +0.000 C 
ATOM      6  N   UNK     1      79.389  67.731 102.187  0.00  0.00    +0.000 N 
ATOM      7  C   UNK     1      79.248  67.565 103.534  0.00  0.00    +0.000 C 
ATOM      8  O   UNK     1      78.414  66.880 104.062  0.00  0.00    +0.000 OA
ATOM      9  C   UNK     1      80.251  68.329 104.387  0.00  0.00    +0.000 C 
ATOM     10  N   UNK     1      79.477  68.888 105.498  0.00  0.00    +0.000 N 
ATOM     11  C   UNK     1      79.909  69.938 106.255  0.00  0.00    +0.000 C 
ATOM     12  O   UNK     1      81.035  70.361 106.166  0.00  0.00    +0.000 OA
ATOM     13  C   UNK     1      78.836  70.526 107.166  0.00  0.00    +0.000 C 
ATOM     14  N   UNK     1      77.684  70.974 106.367  0.00  0.00    +0.000 N 
ATOM     15  C   UNK     1      76.655  70.161 105.982  0.00  0.00    +0.000 C 
ATOM     16  O   UNK     1      76.661  68.968 106.152  0.00  0.00    +0.000 OA
ATOM     17  C   UNK     1      75.506  70.900 105.305  0.00  0.00    +0.000 C 
ATOM     18  N   UNK     1      74.375  70.049 104.911  0.00  0.00    +0.000 N 
ATOM     19  C   UNK     1      73.463  69.420 105.715  0.00  0.00    +0.000 C 
ATOM     20  O   UNK     1      72.505  68.883 105.219  0.00  0.00    +0.000 OA
ATOM     21  C   UNK     1      73.670  69.408 107.231  0.00  0.00    +0.000 C 
ATOM     22  N   UNK     1      73.452  68.021 107.672  0.00  0.00    +0.000 N 
ATOM     23  C   UNK     1      73.927  67.517 108.854  0.00  0.00    +0.000 C 
ATOM     24  O   UNK     1      74.707  68.111 109.555  0.00  0.00    +0.000 OA
ATOM     25  C   UNK     1      73.346  66.152 109.227  0.00  0.00    +0.000 C 
ATOM     26  N   UNK     1      73.368  65.293 108.040  0.00  0.00    +0.000 N 
ATOM     27  C   UNK     1      72.464  64.293 107.821  0.00  0.00    +0.000 C 
ATOM     28  O   UNK     1      71.619  63.990 108.625  0.00  0.00    +0.000 OA
ATOM     29  C   UNK     1      72.607  63.577 106.476  0.00  0.00    +0.000 C 
ATOM     30  N   UNK     1      73.837  63.901 105.733  0.00  0.00    +0.000 N 
ATOM     31  C   UNK     1      74.099  65.141 105.216  0.00  0.00    +0.000 C 
ATOM     32  O   UNK     1      73.441  66.112 105.493  0.00  0.00    +0.000 OA
ATOM     33  H   UNK     1      80.265  68.149 101.865  0.00  0.00    +0.000 HD
ATOM     34  H   UNK     1      78.565  68.463 105.676  0.00  0.00    +0.000 HD
ATOM     35  H   UNK     1      77.655  71.954 106.083  0.00  0.00    +0.000 HD
ATOM     36  H   UNK     1      74.156  69.982 103.917  0.00  0.00    +0.000 HD
ATOM     37  H   UNK     1      72.869  67.440 107.062  0.00  0.00    +0.000 HD
ATOM     38  H   UNK     1      74.077  65.480 107.333  0.00  0.00    +0.000 HD
ATOM     39  H   UNK     1      74.476  63.140 105.499  0.00  0.00    +0.000 HD
ENDROOT
BRANCH   1  42
ATOM     40  C   UNK     1      77.225  63.916 105.205  0.00  0.00    +0.000 C 
ATOM     41  O   UNK     1      76.831  62.853 104.796  0.00  0.00    +0.000 OA
ATOM     42  N   UNK     1      76.546  65.085 105.034  0.00  0.00    +0.000 N 
ATOM     43  H   UNK     1      76.916  65.940 105.447  0.00  0.00    +0.000 HD
BRANCH  40  44
ATOM     44  C   UNK     1      78.571  64.026 105.923  0.00  0.00    +0.000 C 
BRANCH  44  47
ATOM     45  C   UNK     1      80.108  62.626 104.542  0.00  0.00    +0.000 C 
ATOM     46  O   UNK     1      80.564  63.541 103.902  0.00  0.00    +0.000 OA
ATOM     47  N   UNK     1      79.248  62.766 105.591  0.00  0.00    +0.000 N 
ATOM     48  H   UNK     1      78.915  61.936 106.082  0.00  0.00    +0.000 HD
BRANCH  45  49
ATOM     49  C   UNK     1      80.470  61.187 104.183  0.00  0.00    +0.000 C 
BRANCH  49  52
ATOM     50  C   UNK     1      78.382  60.213 103.201  0.00  0.00    +0.000 C 
ATOM     51  O   UNK     1      78.553  60.681 102.101  0.00  0.00    +0.000 OA
ATOM     52  N   UNK     1      79.215  60.435 104.256  0.00  0.00    +0.000 N 
ATOM     53  H   UNK     1      78.962  60.067 105.176  0.00  0.00    +0.000 HD
BRANCH  50  54
ATOM     54  C   UNK     1      77.209  59.287 103.529  0.00  0.00    +0.000 C 
BRANCH  54  57
ATOM     55  C   UNK     1      74.900  60.341 103.438  0.00  0.00    +0.000 C 
ATOM     56  O   UNK     1      74.095  61.037 104.002  0.00  0.00    +0.000 OA
ATOM     57  N   UNK     1      76.080  60.056 104.071  0.00  0.00    +0.000 N 
ATOM     58  H   UNK     1      76.200  60.523 104.968  0.00  0.00    +0.000 HD
BRANCH  55  62
ATOM     59  C   UNK     1      72.643  60.824 101.146  0.00  0.00    +0.000 C 
ATOM     60  N   UNK     1      72.250  59.756 101.699  0.00  0.00    +0.000 NA
ATOM     61  C   UNK     1      73.399  58.847 101.971  0.00  0.00    +0.000 C 
ATOM     62  C   UNK     1      74.655  59.742 102.052  0.00  0.00    +0.000 C 
ATOM     63  S   UNK     1      74.078  60.964 100.876  0.00  0.00    +0.000 S 
BRANCH  59  64
ATOM     64  C   UNK     1      71.654  61.943 100.922  0.00  0.00    +0.000 C 
BRANCH  64  65
ATOM     65  N   UNK     1      71.769  62.378  99.518  0.00  0.00    +0.000 NA
ATOM     66  H   UNK     1      71.604  63.397  99.444  0.00  0.00    +0.000 HD
ATOM     67  H   UNK     1      72.733  62.254  99.162  0.00  0.00    +0.000 HD
ENDBRANCH  64  65
BRANCH  64  68
ATOM     68  C   UNK     1      70.205  61.579 101.312  0.00  0.00    +0.000 C 
ATOM     69  C   UNK     1      69.581  62.726 102.134  0.00  0.00    +0.000 C 
BRANCH  68  71
ATOM     70  C   UNK     1      68.918  59.771  99.969  0.00  0.00    +0.000 C 
ATOM     71  C   UNK     1      69.303  61.254 100.102  0.00  0.00    +0.000 C 
ENDBRANCH  68  71
ENDBRANCH  64  68
ENDBRANCH  59  64
ENDBRANCH  55  62
ENDBRANCH  54  57
BRANCH  54  72
ATOM     72  C   UNK     1      77.642  58.196 104.526  0.00  0.00    +0.000 C 
BRANCH  72  73
ATOM     73  C   UNK     1      76.954  56.829 104.339  0.00  0.00    +0.000 C 
ATOM     74  C   UNK     1      75.692  56.684 105.206  0.00  0.00    +0.000 C 
ATOM     75  C   UNK     1      76.593  56.625 102.856  0.00  0.00    +0.000 C 
ENDBRANCH  72  73
ENDBRANCH  54  72
ENDBRANCH  50  54
ENDBRANCH  49  52
BRANCH  49  76
ATOM     76  C   UNK     1      81.509  60.562 105.131  0.00  0.00    +0.000 C 
BRANCH  76  77
ATOM     77  C   UNK     1      82.183  59.307 104.546  0.00  0.00    +0.000 C 
BRANCH  77  78
ATOM     78  C   UNK     1      81.909  58.028 105.319  0.00  0.00    +0.000 C 
ATOM     79  O   UNK     1      82.140  56.945 104.736  0.00  0.00    +0.000 OA
ATOM     80  O   UNK     1      81.490  58.117 106.492  0.00  0.00    +0.000 OA
ENDBRANCH  77  78
ENDBRANCH  76  77
ENDBRANCH  49  76
ENDBRANCH  45  49
ENDBRANCH  44  47
BRANCH  44  81
ATOM     81  C   UNK     1      78.387  64.215 107.447  0.00  0.00    +0.000 C 
ATOM     82  C   UNK     1      77.228  63.367 108.006  0.00  0.00    +0.000 C 
BRANCH  81  83
ATOM     83  C   UNK     1      79.663  63.891 108.254  0.00  0.00    +0.000 C 
ATOM     84  C   UNK     1      79.409  63.427 109.692  0.00  0.00    +0.000 C 
ENDBRANCH  81  83
ENDBRANCH  44  81
ENDBRANCH  40  44
ENDBRANCH   1  42
BRANCH  25  85
ATOM     85  C   UNK     1      73.928  65.440 110.471  0.00  0.00    +0.000 C 
ATOM     86  C   UNK     1      73.401  66.032 111.792  0.00  0.00    +0.000 C 
BRANCH  85  87
ATOM     87  C   UNK     1      75.464  65.340 110.429  0.00  0.00    +0.000 C 
ATOM     88  C   UNK     1      76.057  64.333 111.423  0.00  0.00    +0.000 C 
ENDBRANCH  85  87
ENDBRANCH  25  85
BRANCH   9  89
ATOM     89  C   UNK     1      81.359  67.365 104.835  0.00  0.00    +0.000 C 
BRANCH  89  90
ATOM     90  C   UNK     1      82.332  67.061 103.707  0.00  0.00    +0.000 C 
ATOM     91  N   UNK     1      82.589  65.741 103.520  0.00  0.00    +0.000 N 
ATOM     92  O   UNK     1      82.846  67.891 103.003  0.00  0.00    +0.000 OA
ATOM     93  H   UNK     1      83.255  65.482 102.809  0.00  0.00    +0.000 HD
ATOM     94  H   UNK     1      82.024  65.039 103.978  0.00  0.00    +0.000 HD
ENDBRANCH  89  90
ENDBRANCH   9  89
BRANCH  13  95
ATOM     95  C   UNK     1      79.355  71.696 108.027  0.00  0.00    +0.000 C 
BRANCH  95  96
ATOM     96  C   UNK     1      78.818  73.060 107.623  0.00  0.00    +0.000 C 
ATOM     97  O   UNK     1      79.329  73.621 106.626  0.00  0.00    +0.000 OA
ATOM     98  O   UNK     1      77.879  73.534 108.298  0.00  0.00    +0.000 OA
ENDBRANCH  95  96
ENDBRANCH  13  95
BRANCH  17  99
ATOM     99  C   UNK     1      75.089  72.219 105.980  0.00  0.00    +0.000 C 
BRANCH  99 100
ATOM    100  C   UNK     1      75.769  73.426 105.402  0.00  0.00    +0.000 A 
ATOM    101  C   UNK     1      75.656  74.701 105.801  0.00  0.00    +0.000 A 
ATOM    102  N   UNK     1      76.399  75.362 105.017  0.00  0.00    +0.000 N 
ATOM    103  C   UNK     1      76.922  74.546 104.201  0.00  0.00    +0.000 A 
ATOM    104  N   UNK     1      76.557  73.355 104.414  0.00  0.00    +0.000 NA
ATOM    105  H   UNK     1      76.550  76.397 105.038  0.00  0.00    +0.000 HD
ENDBRANCH  99 100
ENDBRANCH  17  99
BRANCH  21 106
ATOM    106  C   UNK     1      72.596  70.313 107.874  0.00  0.00    +0.000 C 
BRANCH 106 107
ATOM    107  C   UNK     1      73.207  71.485 108.613  0.00  0.00    +0.000 A 
ATOM    108  C   UNK     1      74.343  71.347 109.320  0.00  0.00    +0.000 A 
ATOM    109  C   UNK     1      74.894  72.395 109.951  0.00  0.00    +0.000 A 
ATOM    110  C   UNK     1      74.311  73.601 109.885  0.00  0.00    +0.000 A 
ATOM    111  C   UNK     1      73.174  73.752 109.188  0.00  0.00    +0.000 A 
ATOM    112  C   UNK     1      72.628  72.699 108.559  0.00  0.00    +0.000 A 
ENDBRANCH 106 107
ENDBRANCH  21 106
BRANCH  29 113
ATOM    113  C   UNK     1      71.376  63.697 105.556  0.00  0.00    +0.000 C 
BRANCH 113 114
ATOM    114  C   UNK     1      70.333  62.576 105.698  0.00  0.00    +0.000 C 
BRANCH 114 115
ATOM    115  C   UNK     1      70.996  61.199 105.865  0.00  0.00    +0.000 C 
BRANCH 115 116
ATOM    116  N   UNK     1      71.161  60.536 104.560  0.00  0.00    +0.000 NA
ATOM    117  H   UNK     1      70.307  60.655 103.988  0.00  0.00    +0.000 HD
ATOM    118  H   UNK     1      71.917  60.988 104.019  0.00  0.00    +0.000 HD
ENDBRANCH 115 116
ENDBRANCH 114 115
ENDBRANCH 113 114
ENDBRANCH  29 113
TORSDOF 33
ENDMDL
MODEL 6
REMARK VINA RESULT:      -6.4      2.276      4.122
REMARK  Name = ./1791.pdb
REMARK  41 active torsions:
REMARK  status: ('A' for Active; 'I' for Inactive)
REMARK    1  A    between atoms: C_1  and  C_2
REMARK    2  A    between atoms: C_2  and  C_3
REMARK    3  A    between atoms: C_3  and  C_4
REMARK    4  A    between atoms: C_3  and  C_5
REMARK    5  A    between atoms: C_5  and  N_6
REMARK    6  A    between atoms: C_5  and  C_7
REMARK    7  A    between atoms: C_10  and  C_12
REMARK    8  A    between atoms: N_14  and  C_15
REMARK    9  A    between atoms: C_15  and  C_16
REMARK   10  A    between atoms: C_15  and  C_20
REMARK   11  A    between atoms: C_16  and  C_17
REMARK   12  A    between atoms: C_17  and  C_18
REMARK   13  A    between atoms: C_17  and  C_19
REMARK   14  A    between atoms: N_22  and  C_23
REMARK   15  A    between atoms: C_23  and  C_24
REMARK   16  A    between atoms: C_23  and  C_29
REMARK   17  A    between atoms: C_24  and  C_25
REMARK   18  A    between atoms: C_25  and  C_26
REMARK   19  A    between atoms: N_31  and  C_32
REMARK   20  A    between atoms: C_32  and  C_33
REMARK   21  A    between atoms: C_32  and  C_37
REMARK   22  A    between atoms: C_33  and  C_34
REMARK   23  A    between atoms: C_33  and  C_35
REMARK   24  A    between atoms: C_35  and  C_36
REMARK   25  A    between atoms: N_39  and  C_40
REMARK   26  A    between atoms: C_48  and  C_49
REMARK   27  A    between atoms: C_49  and  C_50
REMARK   28  A    between atoms: C_56  and  C_57
REMARK   29  A    between atoms: C_57  and  C_58
REMARK   30  A    between atoms: C_64  and  C_65
REMARK   31  A    between atoms: C_65  and  C_66
REMARK   32  A    between atoms: C_74  and  C_75
REMARK   33  A    between atoms: C_75  and  C_76
REMARK   34  A    between atoms: C_85  and  C_97
REMARK   35  A    between atoms: C_89  and  C_90
REMARK   36  A    between atoms: C_90  and  C_91
REMARK   37  A    between atoms: C_91  and  C_92
REMARK   38  A    between atoms: C_92  and  N_93
REMARK   39  A    between atoms: C_97  and  C_98
REMARK   40  A    between atoms: C_97  and  C_99
REMARK   41  A    between atoms: C_99  and  C_100
REMARK                            x       y       z     vdW  Elec       q    Type
REMARK                         _______ _______ _______ _____ _____    ______ ____
ROOT
ATOM      1  C   UNK     1      73.993  65.021 104.348  0.00  0.00    +0.000 C 
ATOM      2  C   UNK     1      73.116  64.113 103.464  0.00  0.00    +0.000 C 
ATOM      3  C   UNK     1      71.726  63.907 104.104  0.00  0.00    +0.000 C 
ATOM      4  C   UNK     1      71.040  62.582 103.715  0.00  0.00    +0.000 C 
ATOM      5  C   UNK     1      70.310  61.891 104.887  0.00  0.00    +0.000 C 
ATOM      6  N   UNK     1      71.065  60.817 105.547  0.00  0.00    +0.000 N 
ATOM      7  C   UNK     1      72.392  60.886 105.854  0.00  0.00    +0.000 C 
ATOM      8  O   UNK     1      73.079  61.864 105.730  0.00  0.00    +0.000 OA
ATOM      9  C   UNK     1      72.998  59.598 106.392  0.00  0.00    +0.000 C 
ATOM     10  N   UNK     1      74.298  59.468 105.729  0.00  0.00    +0.000 N 
ATOM     11  C   UNK     1      74.973  58.287 105.634  0.00  0.00    +0.000 C 
ATOM     12  O   UNK     1      74.621  57.307 106.241  0.00  0.00    +0.000 OA
ATOM     13  C   UNK     1      76.158  58.327 104.674  0.00  0.00    +0.000 C 
ATOM     14  N   UNK     1      75.705  58.712 103.328  0.00  0.00    +0.000 N 
ATOM     15  C   UNK     1      75.555  60.005 102.910  0.00  0.00    +0.000 C 
ATOM     16  O   UNK     1      75.656  60.951 103.649  0.00  0.00    +0.000 OA
ATOM     17  C   UNK     1      75.234  60.139 101.425  0.00  0.00    +0.000 C 
ATOM     18  N   UNK     1      75.099  61.522 100.948  0.00  0.00    +0.000 N 
ATOM     19  C   UNK     1      76.076  62.469 100.797  0.00  0.00    +0.000 C 
ATOM     20  O   UNK     1      75.814  63.509 100.246  0.00  0.00    +0.000 OA
ATOM     21  C   UNK     1      77.486  62.195 101.325  0.00  0.00    +0.000 C 
ATOM     22  N   UNK     1      77.894  63.398 102.068  0.00  0.00    +0.000 N 
ATOM     23  C   UNK     1      78.887  63.406 103.012  0.00  0.00    +0.000 C 
ATOM     24  O   UNK     1      79.395  62.400 103.439  0.00  0.00    +0.000 OA
ATOM     25  C   UNK     1      79.325  64.807 103.444  0.00  0.00    +0.000 C 
ATOM     26  N   UNK     1      78.129  65.619 103.679  0.00  0.00    +0.000 N 
ATOM     27  C   UNK     1      78.096  66.974 103.506  0.00  0.00    +0.000 C 
ATOM     28  O   UNK     1      79.073  67.618 103.217  0.00  0.00    +0.000 OA
ATOM     29  C   UNK     1      76.724  67.619 103.715  0.00  0.00    +0.000 C 
ATOM     30  N   UNK     1      75.709  66.729 104.305  0.00  0.00    +0.000 N 
ATOM     31  C   UNK     1      75.207  65.629 103.663  0.00  0.00    +0.000 C 
ATOM     32  O   UNK     1      75.694  65.189 102.653  0.00  0.00    +0.000 OA
ATOM     33  H   UNK     1      70.551  60.009 105.908  0.00  0.00    +0.000 HD
ATOM     34  H   UNK     1      74.682  60.318 105.310  0.00  0.00    +0.000 HD
ATOM     35  H   UNK     1      75.490  57.965 102.667  0.00  0.00    +0.000 HD
ATOM     36  H   UNK     1      74.193  61.810 100.579  0.00  0.00    +0.000 HD
ATOM     37  H   UNK     1      77.425  64.271 101.807  0.00  0.00    +0.000 HD
ATOM     38  H   UNK     1      77.274  65.137 103.953  0.00  0.00    +0.000 HD
ATOM     39  H   UNK     1      75.280  67.005 105.189  0.00  0.00    +0.000 HD
ENDROOT
BRANCH   1  42
ATOM     40  C   UNK     1      74.381  64.846 106.798  0.00  0.00    +0.000 C 
ATOM     41  O   UNK     1      74.080  65.994 107.007  0.00  0.00    +0.000 OA
ATOM     42  N   UNK     1      74.402  64.289 105.555  0.00  0.00    +0.000 N 
ATOM     43  H   UNK     1      74.712  63.323 105.448  0.00  0.00    +0.000 HD
BRANCH  40  44
ATOM     44  C   UNK     1      74.726  63.907 107.955  0.00  0.00    +0.000 C 
BRANCH  44  47
ATOM     45  C   UNK     1      73.028  64.535 109.674  0.00  0.00    +0.000 C 
ATOM     46  O   UNK     1      72.222  63.696 109.361  0.00  0.00    +0.000 OA
ATOM     47  N   UNK     1      74.282  64.642 109.146  0.00  0.00    +0.000 N 
ATOM     48  H   UNK     1      74.904  65.382 109.474  0.00  0.00    +0.000 HD
BRANCH  45  49
ATOM     49  C   UNK     1      72.668  65.592 110.716  0.00  0.00    +0.000 C 
BRANCH  49  52
ATOM     50  C   UNK     1      73.725  67.657 109.772  0.00  0.00    +0.000 C 
ATOM     51  O   UNK     1      74.823  67.429 110.217  0.00  0.00    +0.000 OA
ATOM     52  N   UNK     1      72.638  66.865 109.993  0.00  0.00    +0.000 N 
ATOM     53  H   UNK     1      71.724  67.166 109.647  0.00  0.00    +0.000 HD
BRANCH  50  54
ATOM     54  C   UNK     1      73.432  68.865 108.878  0.00  0.00    +0.000 C 
BRANCH  54  57
ATOM     55  C   UNK     1      71.705  69.092 107.030  0.00  0.00    +0.000 C 
ATOM     56  O   UNK     1      71.204  68.583 106.061  0.00  0.00    +0.000 OA
ATOM     57  N   UNK     1      72.738  68.444 107.653  0.00  0.00    +0.000 N 
ATOM     58  H   UNK     1      72.957  67.529 107.263  0.00  0.00    +0.000 HD
BRANCH  55  62
ATOM     59  C   UNK     1      70.237  71.684 105.725  0.00  0.00    +0.000 C 
ATOM     60  N   UNK     1      71.448  72.048 105.770  0.00  0.00    +0.000 NA
ATOM     61  C   UNK     1      72.074  71.642 107.059  0.00  0.00    +0.000 C 
ATOM     62  C   UNK     1      71.254  70.444 107.586  0.00  0.00    +0.000 C 
ATOM     63  S   UNK     1      69.693  70.978 106.889  0.00  0.00    +0.000 S 
BRANCH  59  64
ATOM     64  C   UNK     1      69.462  71.867 104.441  0.00  0.00    +0.000 C 
BRANCH  64  65
ATOM     65  N   UNK     1      69.930  73.109 103.800  0.00  0.00    +0.000 NA
ATOM     66  H   UNK     1      70.960  73.101 103.712  0.00  0.00    +0.000 HD
ATOM     67  H   UNK     1      69.595  73.180 102.824  0.00  0.00    +0.000 HD
ENDBRANCH  64  65
BRANCH  64  68
ATOM     68  C   UNK     1      69.532  70.649 103.494  0.00  0.00    +0.000 C 
ATOM     69  C   UNK     1      68.119  70.301 102.984  0.00  0.00    +0.000 C 
BRANCH  68  71
ATOM     70  C   UNK     1      71.919  70.352 102.523  0.00  0.00    +0.000 C 
ATOM     71  C   UNK     1      70.484  70.853 102.295  0.00  0.00    +0.000 C 
ENDBRANCH  68  71
ENDBRANCH  64  68
ENDBRANCH  59  64
ENDBRANCH  55  62
ENDBRANCH  54  57
BRANCH  54  72
ATOM     72  C   UNK     1      74.736  69.607 108.527  0.00  0.00    +0.000 C 
BRANCH  72  73
ATOM     73  C   UNK     1      75.362  69.222 107.171  0.00  0.00    +0.000 C 
ATOM     74  C   UNK     1      75.525  70.432 106.236  0.00  0.00    +0.000 C 
ATOM     75  C   UNK     1      76.731  68.553 107.400  0.00  0.00    +0.000 C 
ENDBRANCH  72  73
ENDBRANCH  54  72
ENDBRANCH  50  54
ENDBRANCH  49  52
BRANCH  49  76
ATOM     76  C   UNK     1      73.675  65.675 111.877  0.00  0.00    +0.000 C 
BRANCH  76  77
ATOM     77  C   UNK     1      73.008  65.959 113.235  0.00  0.00    +0.000 C 
BRANCH  77  78
ATOM     78  C   UNK     1      73.677  67.054 114.048  0.00  0.00    +0.000 C 
ATOM     79  O   UNK     1      74.652  67.642 113.528  0.00  0.00    +0.000 OA
ATOM     80  O   UNK     1      73.217  67.326 115.178  0.00  0.00    +0.000 OA
ENDBRANCH  77  78
ENDBRANCH  76  77
ENDBRANCH  49  76
ENDBRANCH  45  49
ENDBRANCH  44  47
BRANCH  44  81
ATOM     81  C   UNK     1      76.238  63.582 107.991  0.00  0.00    +0.000 C 
ATOM     82  C   UNK     1      77.110  64.853 107.997  0.00  0.00    +0.000 C 
BRANCH  81  83
ATOM     83  C   UNK     1      76.639  62.708 109.199  0.00  0.00    +0.000 C 
ATOM     84  C   UNK     1      77.938  63.135 109.892  0.00  0.00    +0.000 C 
ENDBRANCH  81  83
ENDBRANCH  44  81
ENDBRANCH  40  44
ENDBRANCH   1  42
BRANCH  25  85
ATOM     85  C   UNK     1      80.340  64.915 104.607  0.00  0.00    +0.000 C 
ATOM     86  C   UNK     1      81.729  64.369 104.232  0.00  0.00    +0.000 C 
BRANCH  85  87
ATOM     87  C   UNK     1      79.797  64.322 105.920  0.00  0.00    +0.000 C 
ATOM     88  C   UNK     1      80.656  63.193 106.503  0.00  0.00    +0.000 C 
ENDBRANCH  85  87
ENDBRANCH  25  85
BRANCH   9  89
ATOM     89  C   UNK     1      73.096  59.694 107.921  0.00  0.00    +0.000 C 
BRANCH  89  90
ATOM     90  C   UNK     1      72.514  58.466 108.603  0.00  0.00    +0.000 C 
ATOM     91  N   UNK     1      72.043  57.517 107.754  0.00  0.00    +0.000 N 
ATOM     92  O   UNK     1      72.466  58.302 109.794  0.00  0.00    +0.000 OA
ATOM     93  H   UNK     1      71.612  56.695 108.150  0.00  0.00    +0.000 HD
ATOM     94  H   UNK     1      72.249  57.565 106.765  0.00  0.00    +0.000 HD
ENDBRANCH  89  90
ENDBRANCH   9  89
BRANCH  13  95
ATOM     95  C   UNK     1      76.917  56.986 104.601  0.00  0.00    +0.000 C 
BRANCH  95  96
ATOM     96  C   UNK     1      78.380  57.113 104.206  0.00  0.00    +0.000 C 
ATOM     97  O   UNK     1      79.020  58.101 104.633  0.00  0.00    +0.000 OA
ATOM     98  O   UNK     1      78.867  56.208 103.494  0.00  0.00    +0.000 OA
ENDBRANCH  95  96
ENDBRANCH  13  95
BRANCH  17  99
ATOM     99  C   UNK     1      76.062  59.235 100.493  0.00  0.00    +0.000 C 
BRANCH  99 100
ATOM    100  C   UNK     1      75.342  58.863  99.230  0.00  0.00    +0.000 A 
ATOM    101  C   UNK     1      75.833  58.205  98.169  0.00  0.00    +0.000 A 
ATOM    102  N   UNK     1      74.870  58.132  97.348  0.00  0.00    +0.000 N 
ATOM    103  C   UNK     1      73.870  58.706  97.874  0.00  0.00    +0.000 A 
ATOM    104  N   UNK     1      74.128  59.161  99.025  0.00  0.00    +0.000 NA
ATOM    105  H   UNK     1      74.898  57.683  96.405  0.00  0.00    +0.000 HD
ENDBRANCH  99 100
ENDBRANCH  17  99
BRANCH  21 106
ATOM    106  C   UNK     1      78.429  62.008 100.116  0.00  0.00    +0.000 C 
BRANCH 106 107
ATOM    107  C   UNK     1      79.329  63.208  99.903  0.00  0.00    +0.000 A 
ATOM    108  C   UNK     1      78.843  64.365  99.420  0.00  0.00    +0.000 A 
ATOM    109  C   UNK     1      79.639  65.433  99.258  0.00  0.00    +0.000 A 
ATOM    110  C   UNK     1      80.939  65.356  99.578  0.00  0.00    +0.000 A 
ATOM    111  C   UNK     1      81.438  64.205 100.057  0.00  0.00    +0.000 A 
ATOM    112  C   UNK     1      80.636  63.141 100.216  0.00  0.00    +0.000 A 
ENDBRANCH 106 107
ENDBRANCH  21 106
BRANCH  29 113
ATOM    113  C   UNK     1      76.157  68.328 102.469  0.00  0.00    +0.000 C 
BRANCH 113 114
ATOM    114  C   UNK     1      76.007  69.854 102.589  0.00  0.00    +0.000 C 
BRANCH 114 115
ATOM    115  C   UNK     1      75.903  70.526 101.211  0.00  0.00    +0.000 C 
BRANCH 115 116
ATOM    116  N   UNK     1      74.849  69.895 100.398  0.00  0.00    +0.000 NA
ATOM    117  H   UNK     1      74.292  69.245 100.978  0.00  0.00    +0.000 HD
ATOM    118  H   UNK     1      74.177  70.607 100.064  0.00  0.00    +0.000 HD
ENDBRANCH 115 116
ENDBRANCH 114 115
ENDBRANCH 113 114
ENDBRANCH  29 113
TORSDOF 33
ENDMDL
MODEL 7
REMARK VINA RESULT:      -6.4      3.243      8.850
REMARK  Name = ./1791.pdb
REMARK  41 active torsions:
REMARK  status: ('A' for Active; 'I' for Inactive)
REMARK    1  A    between atoms: C_1  and  C_2
REMARK    2  A    between atoms: C_2  and  C_3
REMARK    3  A    between atoms: C_3  and  C_4
REMARK    4  A    between atoms: C_3  and  C_5
REMARK    5  A    between atoms: C_5  and  N_6
REMARK    6  A    between atoms: C_5  and  C_7
REMARK    7  A    between atoms: C_10  and  C_12
REMARK    8  A    between atoms: N_14  and  C_15
REMARK    9  A    between atoms: C_15  and  C_16
REMARK   10  A    between atoms: C_15  and  C_20
REMARK   11  A    between atoms: C_16  and  C_17
REMARK   12  A    between atoms: C_17  and  C_18
REMARK   13  A    between atoms: C_17  and  C_19
REMARK   14  A    between atoms: N_22  and  C_23
REMARK   15  A    between atoms: C_23  and  C_24
REMARK   16  A    between atoms: C_23  and  C_29
REMARK   17  A    between atoms: C_24  and  C_25
REMARK   18  A    between atoms: C_25  and  C_26
REMARK   19  A    between atoms: N_31  and  C_32
REMARK   20  A    between atoms: C_32  and  C_33
REMARK   21  A    between atoms: C_32  and  C_37
REMARK   22  A    between atoms: C_33  and  C_34
REMARK   23  A    between atoms: C_33  and  C_35
REMARK   24  A    between atoms: C_35  and  C_36
REMARK   25  A    between atoms: N_39  and  C_40
REMARK   26  A    between atoms: C_48  and  C_49
REMARK   27  A    between atoms: C_49  and  C_50
REMARK   28  A    between atoms: C_56  and  C_57
REMARK   29  A    between atoms: C_57  and  C_58
REMARK   30  A    between atoms: C_64  and  C_65
REMARK   31  A    between atoms: C_65  and  C_66
REMARK   32  A    between atoms: C_74  and  C_75
REMARK   33  A    between atoms: C_75  and  C_76
REMARK   34  A    between atoms: C_85  and  C_97
REMARK   35  A    between atoms: C_89  and  C_90
REMARK   36  A    between atoms: C_90  and  C_91
REMARK   37  A    between atoms: C_91  and  C_92
REMARK   38  A    between atoms: C_92  and  N_93
REMARK   39  A    between atoms: C_97  and  C_98
REMARK   40  A    between atoms: C_97  and  C_99
REMARK   41  A    between atoms: C_99  and  C_100
REMARK                            x       y       z     vdW  Elec       q    Type
REMARK                         _______ _______ _______ _____ _____    ______ ____
ROOT
ATOM      1  C   UNK     1      78.115  65.714 107.655  0.00  0.00    +0.000 C 
ATOM      2  C   UNK     1      78.562  64.240 107.653  0.00  0.00    +0.000 C 
ATOM      3  C   UNK     1      80.101  64.137 107.593  0.00  0.00    +0.000 C 
ATOM      4  C   UNK     1      80.624  62.839 106.945  0.00  0.00    +0.000 C 
ATOM      5  C   UNK     1      81.840  63.050 106.018  0.00  0.00    +0.000 C 
ATOM      6  N   UNK     1      81.526  63.140 104.586  0.00  0.00    +0.000 N 
ATOM      7  C   UNK     1      80.472  63.837 104.071  0.00  0.00    +0.000 C 
ATOM      8  O   UNK     1      79.742  64.551 104.704  0.00  0.00    +0.000 OA
ATOM      9  C   UNK     1      80.250  63.660 102.575  0.00  0.00    +0.000 C 
ATOM     10  N   UNK     1      78.801  63.517 102.408  0.00  0.00    +0.000 N 
ATOM     11  C   UNK     1      78.229  62.961 101.301  0.00  0.00    +0.000 C 
ATOM     12  O   UNK     1      78.875  62.708 100.315  0.00  0.00    +0.000 OA
ATOM     13  C   UNK     1      76.741  62.664 101.457  0.00  0.00    +0.000 C 
ATOM     14  N   UNK     1      76.523  61.758 102.596  0.00  0.00    +0.000 N 
ATOM     15  C   UNK     1      76.391  62.173 103.892  0.00  0.00    +0.000 C 
ATOM     16  O   UNK     1      76.571  63.313 104.239  0.00  0.00    +0.000 OA
ATOM     17  C   UNK     1      76.009  61.059 104.860  0.00  0.00    +0.000 C 
ATOM     18  N   UNK     1      75.831  61.489 106.254  0.00  0.00    +0.000 N 
ATOM     19  C   UNK     1      74.833  62.260 106.786  0.00  0.00    +0.000 C 
ATOM     20  O   UNK     1      74.757  62.391 107.981  0.00  0.00    +0.000 OA
ATOM     21  C   UNK     1      73.825  62.941 105.858  0.00  0.00    +0.000 C 
ATOM     22  N   UNK     1      73.716  64.336 106.312  0.00  0.00    +0.000 N 
ATOM     23  C   UNK     1      73.248  65.357 105.526  0.00  0.00    +0.000 C 
ATOM     24  O   UNK     1      73.046  65.235 104.344  0.00  0.00    +0.000 OA
ATOM     25  C   UNK     1      72.962  66.651 106.290  0.00  0.00    +0.000 C 
ATOM     26  N   UNK     1      74.085  66.920 107.191  0.00  0.00    +0.000 N 
ATOM     27  C   UNK     1      73.953  67.591 108.374  0.00  0.00    +0.000 C 
ATOM     28  O   UNK     1      72.911  68.079 108.734  0.00  0.00    +0.000 OA
ATOM     29  C   UNK     1      75.232  67.684 109.210  0.00  0.00    +0.000 C 
ATOM     30  N   UNK     1      76.457  67.257 108.511  0.00  0.00    +0.000 N 
ATOM     31  C   UNK     1      76.687  65.968 108.115  0.00  0.00    +0.000 C 
ATOM     32  O   UNK     1      75.831  65.121 108.130  0.00  0.00    +0.000 OA
ATOM     33  H   UNK     1      82.196  62.756 103.914  0.00  0.00    +0.000 HD
ATOM     34  H   UNK     1      78.220  63.840 103.183  0.00  0.00    +0.000 HD
ATOM     35  H   UNK     1      76.468  60.757 102.404  0.00  0.00    +0.000 HD
ATOM     36  H   UNK     1      76.459  61.097 106.955  0.00  0.00    +0.000 HD
ATOM     37  H   UNK     1      73.966  64.514 107.291  0.00  0.00    +0.000 HD
ATOM     38  H   UNK     1      75.000  66.557 106.931  0.00  0.00    +0.000 HD
ATOM     39  H   UNK     1      77.216  67.932 108.411  0.00  0.00    +0.000 HD
ENDROOT
BRANCH   1  42
ATOM     40  C   UNK     1      78.813  67.558 106.138  0.00  0.00    +0.000 C 
ATOM     41  O   UNK     1      79.048  68.319 107.044  0.00  0.00    +0.000 OA
ATOM     42  N   UNK     1      78.332  66.297 106.323  0.00  0.00    +0.000 N 
ATOM     43  H   UNK     1      78.111  65.725 105.508  0.00  0.00    +0.000 HD
BRANCH  40  44
ATOM     44  C   UNK     1      79.088  67.962 104.689  0.00  0.00    +0.000 C 
BRANCH  44  47
ATOM     45  C   UNK     1      81.179  69.298 104.960  0.00  0.00    +0.000 C 
ATOM     46  O   UNK     1      81.936  68.372 104.805  0.00  0.00    +0.000 OA
ATOM     47  N   UNK     1      79.825  69.226 104.813  0.00  0.00    +0.000 N 
ATOM     48  H   UNK     1      79.258  70.062 104.958  0.00  0.00    +0.000 HD
BRANCH  45  49
ATOM     49  C   UNK     1      81.717  70.667 105.370  0.00  0.00    +0.000 C 
BRANCH  49  52
ATOM     50  C   UNK     1      82.062  71.524 107.698  0.00  0.00    +0.000 C 
ATOM     51  O   UNK     1      83.147  72.004 107.476  0.00  0.00    +0.000 OA
ATOM     52  N   UNK     1      81.334  70.838 106.773  0.00  0.00    +0.000 N 
ATOM     53  H   UNK     1      80.458  70.395 107.059  0.00  0.00    +0.000 HD
BRANCH  50  54
ATOM     54  C   UNK     1      81.365  71.656 109.054  0.00  0.00    +0.000 C 
BRANCH  54  57
ATOM     55  C   UNK     1      79.125  72.805 108.719  0.00  0.00    +0.000 C 
ATOM     56  O   UNK     1      78.528  73.851 108.715  0.00  0.00    +0.000 OA
ATOM     57  N   UNK     1      80.452  72.808 109.055  0.00  0.00    +0.000 N 
ATOM     58  H   UNK     1      80.843  73.734 109.218  0.00  0.00    +0.000 HD
BRANCH  55  62
ATOM     59  C   UNK     1      76.034  71.849 108.383  0.00  0.00    +0.000 C 
ATOM     60  N   UNK     1      76.325  71.438 109.544  0.00  0.00    +0.000 NA
ATOM     61  C   UNK     1      77.690  70.841 109.568  0.00  0.00    +0.000 C 
ATOM     62  C   UNK     1      78.462  71.468 108.386  0.00  0.00    +0.000 C 
ATOM     63  S   UNK     1      77.033  71.664 107.324  0.00  0.00    +0.000 S 
BRANCH  59  64
ATOM     64  C   UNK     1      74.754  72.623 108.177  0.00  0.00    +0.000 C 
BRANCH  64  65
ATOM     65  N   UNK     1      75.109  73.971 107.699  0.00  0.00    +0.000 NA
ATOM     66  H   UNK     1      75.937  74.325 108.209  0.00  0.00    +0.000 HD
ATOM     67  H   UNK     1      75.412  73.954 106.710  0.00  0.00    +0.000 HD
ENDBRANCH  64  65
BRANCH  64  68
ATOM     68  C   UNK     1      73.741  71.914 107.252  0.00  0.00    +0.000 C 
ATOM     69  C   UNK     1      72.514  71.461 108.069  0.00  0.00    +0.000 C 
BRANCH  68  71
ATOM     70  C   UNK     1      73.931  72.416 104.714  0.00  0.00    +0.000 C 
ATOM     71  C   UNK     1      73.283  72.780 106.059  0.00  0.00    +0.000 C 
ENDBRANCH  68  71
ENDBRANCH  64  68
ENDBRANCH  59  64
ENDBRANCH  55  62
ENDBRANCH  54  57
BRANCH  54  72
ATOM     72  C   UNK     1      82.402  71.793 110.185  0.00  0.00    +0.000 C 
BRANCH  72  73
ATOM     73  C   UNK     1      82.195  70.841 111.380  0.00  0.00    +0.000 C 
ATOM     74  C   UNK     1      80.741  70.353 111.496  0.00  0.00    +0.000 C 
ATOM     75  C   UNK     1      83.141  69.632 111.253  0.00  0.00    +0.000 C 
ENDBRANCH  72  73
ENDBRANCH  54  72
ENDBRANCH  50  54
ENDBRANCH  49  52
BRANCH  49  76
ATOM     76  C   UNK     1      81.152  71.825 104.529  0.00  0.00    +0.000 C 
BRANCH  76  77
ATOM     77  C   UNK     1      80.017  72.587 105.236  0.00  0.00    +0.000 C 
BRANCH  77  78
ATOM     78  C   UNK     1      80.260  74.079 105.389  0.00  0.00    +0.000 C 
ATOM     79  O   UNK     1      80.996  74.447 106.332  0.00  0.00    +0.000 OA
ATOM     80  O   UNK     1      79.735  74.857 104.565  0.00  0.00    +0.000 OA
ENDBRANCH  77  78
ENDBRANCH  76  77
ENDBRANCH  49  76
ENDBRANCH  45  49
ENDBRANCH  44  47
BRANCH  44  81
ATOM     81  C   UNK     1      77.777  68.118 103.884  0.00  0.00    +0.000 C 
ATOM     82  C   UNK     1      77.541  69.570 103.425  0.00  0.00    +0.000 C 
BRANCH  81  83
ATOM     83  C   UNK     1      77.715  67.197 102.647  0.00  0.00    +0.000 C 
ATOM     84  C   UNK     1      76.455  66.329 102.561  0.00  0.00    +0.000 C 
ENDBRANCH  81  83
ENDBRANCH  44  81
ENDBRANCH  40  44
ENDBRANCH   1  42
BRANCH  25  85
ATOM     85  C   UNK     1      72.566  67.898 105.465  0.00  0.00    +0.000 C 
ATOM     86  C   UNK     1      73.751  68.852 105.230  0.00  0.00    +0.000 C 
BRANCH  85  87
ATOM     87  C   UNK     1      71.325  68.611 106.033  0.00  0.00    +0.000 C 
ATOM     88  C   UNK     1      70.834  69.792 105.185  0.00  0.00    +0.000 C 
ENDBRANCH  85  87
ENDBRANCH  25  85
BRANCH   9  89
ATOM     89  C   UNK     1      80.836  64.872 101.838  0.00  0.00    +0.000 C 
BRANCH  89  90
ATOM     90  C   UNK     1      82.022  64.484 100.970  0.00  0.00    +0.000 C 
ATOM     91  N   UNK     1      81.711  63.719  99.893  0.00  0.00    +0.000 N 
ATOM     92  O   UNK     1      83.160  64.817 101.177  0.00  0.00    +0.000 OA
ATOM     93  H   UNK     1      82.463  63.402  99.300  0.00  0.00    +0.000 HD
ATOM     94  H   UNK     1      80.746  63.596  99.613  0.00  0.00    +0.000 HD
ENDBRANCH  89  90
ENDBRANCH   9  89
BRANCH  13  95
ATOM     95  C   UNK     1      76.113  62.057 100.185  0.00  0.00    +0.000 C 
BRANCH  95  96
ATOM     96  C   UNK     1      74.668  61.613 100.348  0.00  0.00    +0.000 C 
ATOM     97  O   UNK     1      74.454  60.472 100.818  0.00  0.00    +0.000 OA
ATOM     98  O   UNK     1      73.775  62.425 100.025  0.00  0.00    +0.000 OA
ENDBRANCH  95  96
ENDBRANCH  13  95
BRANCH  17  99
ATOM     99  C   UNK     1      74.911  60.104 104.358  0.00  0.00    +0.000 C 
BRANCH  99 100
ATOM    100  C   UNK     1      74.647  58.957 105.288  0.00  0.00    +0.000 A 
ATOM    101  C   UNK     1      75.363  57.832 105.428  0.00  0.00    +0.000 A 
ATOM    102  N   UNK     1      74.757  57.159 106.315  0.00  0.00    +0.000 N 
ATOM    103  C   UNK     1      73.746  57.828 106.683  0.00  0.00    +0.000 A 
ATOM    104  N   UNK     1      73.654  58.932 106.075  0.00  0.00    +0.000 NA
ATOM    105  H   UNK     1      75.040  56.219 106.674  0.00  0.00    +0.000 HD
ENDBRANCH  99 100
ENDBRANCH  17  99
BRANCH  21 106
ATOM    106  C   UNK     1      72.456  62.248 106.035  0.00  0.00    +0.000 C 
BRANCH 106 107
ATOM    107  C   UNK     1      71.679  62.180 104.737  0.00  0.00    +0.000 A 
ATOM    108  C   UNK     1      70.460  62.738 104.625  0.00  0.00    +0.000 A 
ATOM    109  C   UNK     1      69.787  62.697 103.466  0.00  0.00    +0.000 A 
ATOM    110  C   UNK     1      70.327  62.094 102.396  0.00  0.00    +0.000 A 
ATOM    111  C   UNK     1      71.540  61.529 102.495  0.00  0.00    +0.000 A 
ATOM    112  C   UNK     1      72.208  61.573 103.658  0.00  0.00    +0.000 A 
ENDBRANCH 106 107
ENDBRANCH  21 106
BRANCH  29 113
ATOM    113  C   UNK     1      75.140  67.008 110.592  0.00  0.00    +0.000 C 
BRANCH 113 114
ATOM    114  C   UNK     1      74.862  67.954 111.772  0.00  0.00    +0.000 C 
BRANCH 114 115
ATOM    115  C   UNK     1      75.001  67.235 113.123  0.00  0.00    +0.000 C 
BRANCH 115 116
ATOM    116  N   UNK     1      75.633  68.114 114.122  0.00  0.00    +0.000 NA
ATOM    117  H   UNK     1      75.896  69.017 113.689  0.00  0.00    +0.000 HD
ATOM    118  H   UNK     1      74.958  68.357 114.868  0.00  0.00    +0.000 HD
ENDBRANCH 115 116
ENDBRANCH 114 115
ENDBRANCH 113 114
ENDBRANCH  29 113
TORSDOF 33
ENDMDL
MODEL 8
REMARK VINA RESULT:      -6.4      4.057      7.953
REMARK  Name = ./1791.pdb
REMARK  41 active torsions:
REMARK  status: ('A' for Active; 'I' for Inactive)
REMARK    1  A    between atoms: C_1  and  C_2
REMARK    2  A    between atoms: C_2  and  C_3
REMARK    3  A    between atoms: C_3  and  C_4
REMARK    4  A    between atoms: C_3  and  C_5
REMARK    5  A    between atoms: C_5  and  N_6
REMARK    6  A    between atoms: C_5  and  C_7
REMARK    7  A    between atoms: C_10  and  C_12
REMARK    8  A    between atoms: N_14  and  C_15
REMARK    9  A    between atoms: C_15  and  C_16
REMARK   10  A    between atoms: C_15  and  C_20
REMARK   11  A    between atoms: C_16  and  C_17
REMARK   12  A    between atoms: C_17  and  C_18
REMARK   13  A    between atoms: C_17  and  C_19
REMARK   14  A    between atoms: N_22  and  C_23
REMARK   15  A    between atoms: C_23  and  C_24
REMARK   16  A    between atoms: C_23  and  C_29
REMARK   17  A    between atoms: C_24  and  C_25
REMARK   18  A    between atoms: C_25  and  C_26
REMARK   19  A    between atoms: N_31  and  C_32
REMARK   20  A    between atoms: C_32  and  C_33
REMARK   21  A    between atoms: C_32  and  C_37
REMARK   22  A    between atoms: C_33  and  C_34
REMARK   23  A    between atoms: C_33  and  C_35
REMARK   24  A    between atoms: C_35  and  C_36
REMARK   25  A    between atoms: N_39  and  C_40
REMARK   26  A    between atoms: C_48  and  C_49
REMARK   27  A    between atoms: C_49  and  C_50
REMARK   28  A    between atoms: C_56  and  C_57
REMARK   29  A    between atoms: C_57  and  C_58
REMARK   30  A    between atoms: C_64  and  C_65
REMARK   31  A    between atoms: C_65  and  C_66
REMARK   32  A    between atoms: C_74  and  C_75
REMARK   33  A    between atoms: C_75  and  C_76
REMARK   34  A    between atoms: C_85  and  C_97
REMARK   35  A    between atoms: C_89  and  C_90
REMARK   36  A    between atoms: C_90  and  C_91
REMARK   37  A    between atoms: C_91  and  C_92
REMARK   38  A    between atoms: C_92  and  N_93
REMARK   39  A    between atoms: C_97  and  C_98
REMARK   40  A    between atoms: C_97  and  C_99
REMARK   41  A    between atoms: C_99  and  C_100
REMARK                            x       y       z     vdW  Elec       q    Type
REMARK                         _______ _______ _______ _____ _____    ______ ____
ROOT
ATOM      1  C   UNK     1      72.630  69.012 105.711  0.00  0.00    +0.000 C 
ATOM      2  C   UNK     1      71.887  67.703 106.041  0.00  0.00    +0.000 C 
ATOM      3  C   UNK     1      70.893  67.919 107.203  0.00  0.00    +0.000 C 
ATOM      4  C   UNK     1      70.603  66.652 108.032  0.00  0.00    +0.000 C 
ATOM      5  C   UNK     1      70.517  66.907 109.552  0.00  0.00    +0.000 C 
ATOM      6  N   UNK     1      71.743  66.609 110.306  0.00  0.00    +0.000 N 
ATOM      7  C   UNK     1      73.001  66.934 109.890  0.00  0.00    +0.000 C 
ATOM      8  O   UNK     1      73.258  67.599 108.922  0.00  0.00    +0.000 OA
ATOM      9  C   UNK     1      74.128  66.387 110.755  0.00  0.00    +0.000 C 
ATOM     10  N   UNK     1      75.145  65.906 109.817  0.00  0.00    +0.000 N 
ATOM     11  C   UNK     1      76.114  65.010 110.161  0.00  0.00    +0.000 C 
ATOM     12  O   UNK     1      76.299  64.690 111.309  0.00  0.00    +0.000 OA
ATOM     13  C   UNK     1      76.886  64.446 108.973  0.00  0.00    +0.000 C 
ATOM     14  N   UNK     1      75.960  63.789 108.036  0.00  0.00    +0.000 N 
ATOM     15  C   UNK     1      75.276  64.443 107.049  0.00  0.00    +0.000 C 
ATOM     16  O   UNK     1      75.268  65.642 106.939  0.00  0.00    +0.000 OA
ATOM     17  C   UNK     1      74.512  63.515 106.110  0.00  0.00    +0.000 C 
ATOM     18  N   UNK     1      73.794  64.195 105.024  0.00  0.00    +0.000 N 
ATOM     19  C   UNK     1      74.313  64.833 103.930  0.00  0.00    +0.000 C 
ATOM     20  O   UNK     1      73.574  65.206 103.054  0.00  0.00    +0.000 OA
ATOM     21  C   UNK     1      75.823  65.062 103.831  0.00  0.00    +0.000 C 
ATOM     22  N   UNK     1      76.008  66.467 103.436  0.00  0.00    +0.000 N 
ATOM     23  C   UNK     1      77.170  67.165 103.631  0.00  0.00    +0.000 C 
ATOM     24  O   UNK     1      78.084  66.744 104.296  0.00  0.00    +0.000 OA
ATOM     25  C   UNK     1      77.225  68.504 102.895  0.00  0.00    +0.000 C 
ATOM     26  N   UNK     1      75.951  69.199 103.093  0.00  0.00    +0.000 N 
ATOM     27  C   UNK     1      75.422  70.071 102.183  0.00  0.00    +0.000 C 
ATOM     28  O   UNK     1      76.002  70.394 101.176  0.00  0.00    +0.000 OA
ATOM     29  C   UNK     1      74.038  70.616 102.539  0.00  0.00    +0.000 C 
ATOM     30  N   UNK     1      73.592  70.317 103.911  0.00  0.00    +0.000 N 
ATOM     31  C   UNK     1      73.320  69.051 104.355  0.00  0.00    +0.000 C 
ATOM     32  O   UNK     1      73.609  68.066 103.724  0.00  0.00    +0.000 OA
ATOM     33  H   UNK     1      71.654  66.238 111.255  0.00  0.00    +0.000 HD
ATOM     34  H   UNK     1      75.086  66.261 108.860  0.00  0.00    +0.000 HD
ATOM     35  H   UNK     1      75.822  62.782 108.131  0.00  0.00    +0.000 HD
ATOM     36  H   UNK     1      72.778  64.110 105.001  0.00  0.00    +0.000 HD
ATOM     37  H   UNK     1      75.221  66.905 102.945  0.00  0.00    +0.000 HD
ATOM     38  H   UNK     1      75.422  68.991 103.939  0.00  0.00    +0.000 HD
ATOM     39  H   UNK     1      73.373  71.099 104.530  0.00  0.00    +0.000 HD
ENDROOT
BRANCH   1  42
ATOM     40  C   UNK     1      73.725  70.562 107.318  0.00  0.00    +0.000 C 
ATOM     41  O   UNK     1      73.111  71.524 106.929  0.00  0.00    +0.000 OA
ATOM     42  N   UNK     1      73.591  69.318 106.780  0.00  0.00    +0.000 N 
ATOM     43  H   UNK     1      74.178  68.560 107.129  0.00  0.00    +0.000 HD
BRANCH  40  44
ATOM     44  C   UNK     1      74.687  70.678 108.501  0.00  0.00    +0.000 C 
BRANCH  44  47
ATOM     45  C   UNK     1      74.407  72.806 109.776  0.00  0.00    +0.000 C 
ATOM     46  O   UNK     1      74.024  72.288 110.795  0.00  0.00    +0.000 OA
ATOM     47  N   UNK     1      74.849  72.127 108.679  0.00  0.00    +0.000 N 
ATOM     48  H   UNK     1      75.162  72.646 107.858  0.00  0.00    +0.000 HD
BRANCH  45  49
ATOM     49  C   UNK     1      74.399  74.326 109.640  0.00  0.00    +0.000 C 
BRANCH  49  52
ATOM     50  C   UNK     1      72.734  75.678 110.933  0.00  0.00    +0.000 C 
ATOM     51  O   UNK     1      73.553  76.205 111.645  0.00  0.00    +0.000 OA
ATOM     52  N   UNK     1      73.039  74.747 109.987  0.00  0.00    +0.000 N 
ATOM     53  H   UNK     1      72.281  74.289 109.476  0.00  0.00    +0.000 HD
BRANCH  50  54
ATOM     54  C   UNK     1      71.243  76.020 110.999  0.00  0.00    +0.000 C 
BRANCH  54  57
ATOM     55  C   UNK     1      69.966  75.779 108.818  0.00  0.00    +0.000 C 
ATOM     56  O   UNK     1      69.704  76.275 107.751  0.00  0.00    +0.000 OA
ATOM     57  N   UNK     1      70.760  76.476 109.689  0.00  0.00    +0.000 N 
ATOM     58  H   UNK     1      71.119  77.355 109.320  0.00  0.00    +0.000 HD
BRANCH  55  62
ATOM     59  C   UNK     1      68.744  73.227 107.214  0.00  0.00    +0.000 C 
ATOM     60  N   UNK     1      67.704  73.796 107.658  0.00  0.00    +0.000 NA
ATOM     61  C   UNK     1      67.908  74.249 109.063  0.00  0.00    +0.000 C 
ATOM     62  C   UNK     1      69.432  74.414 109.253  0.00  0.00    +0.000 C 
ATOM     63  S   UNK     1      69.895  73.110 108.116  0.00  0.00    +0.000 S 
BRANCH  59  64
ATOM     64  C   UNK     1      68.798  72.828 105.758  0.00  0.00    +0.000 C 
BRANCH  64  65
ATOM     65  N   UNK     1      69.308  73.978 104.990  0.00  0.00    +0.000 NA
ATOM     66  H   UNK     1      68.658  74.211 104.220  0.00  0.00    +0.000 HD
ATOM     67  H   UNK     1      69.333  74.836 105.567  0.00  0.00    +0.000 HD
ENDBRANCH  64  65
BRANCH  64  68
ATOM     68  C   UNK     1      69.603  71.537 105.498  0.00  0.00    +0.000 C 
ATOM     69  C   UNK     1      68.687  70.307 105.661  0.00  0.00    +0.000 C 
BRANCH  68  71
ATOM     70  C   UNK     1      69.563  70.631 103.067  0.00  0.00    +0.000 C 
ATOM     71  C   UNK     1      70.282  71.501 104.111  0.00  0.00    +0.000 C 
ENDBRANCH  68  71
ENDBRANCH  64  68
ENDBRANCH  59  64
ENDBRANCH  55  62
ENDBRANCH  54  57
BRANCH  54  72
ATOM     72  C   UNK     1      70.981  77.095 112.071  0.00  0.00    +0.000 C 
BRANCH  72  73
ATOM     73  C   UNK     1      69.718  76.870 112.927  0.00  0.00    +0.000 C 
ATOM     74  C   UNK     1      69.180  75.435 112.811  0.00  0.00    +0.000 C 
ATOM     75  C   UNK     1      70.023  77.196 114.401  0.00  0.00    +0.000 C 
ENDBRANCH  72  73
ENDBRANCH  54  72
ENDBRANCH  50  54
ENDBRANCH  49  52
BRANCH  49  76
ATOM     76  C   UNK     1      74.752  74.818 108.225  0.00  0.00    +0.000 C 
BRANCH  76  77
ATOM     77  C   UNK     1      73.557  75.448 107.488  0.00  0.00    +0.000 C 
BRANCH  77  78
ATOM     78  C   UNK     1      73.273  74.847 106.121  0.00  0.00    +0.000 C 
ATOM     79  O   UNK     1      72.076  74.772 105.764  0.00  0.00    +0.000 OA
ATOM     80  O   UNK     1      74.238  74.479 105.419  0.00  0.00    +0.000 OA
ENDBRANCH  77  78
ENDBRANCH  76  77
ENDBRANCH  49  76
ENDBRANCH  45  49
ENDBRANCH  44  47
BRANCH  44  81
ATOM     81  C   UNK     1      76.028  69.963 108.214  0.00  0.00    +0.000 C 
ATOM     82  C   UNK     1      76.951  70.795 107.303  0.00  0.00    +0.000 C 
BRANCH  81  83
ATOM     83  C   UNK     1      76.805  69.600 109.498  0.00  0.00    +0.000 C 
ATOM     84  C   UNK     1      78.087  70.411 109.718  0.00  0.00    +0.000 C 
ENDBRANCH  81  83
ENDBRANCH  44  81
ENDBRANCH  40  44
ENDBRANCH   1  42
BRANCH  25  85
ATOM     85  C   UNK     1      78.438  69.425 103.169  0.00  0.00    +0.000 C 
ATOM     86  C   UNK     1      78.050  70.702 103.936  0.00  0.00    +0.000 C 
BRANCH  85  87
ATOM     87  C   UNK     1      79.257  69.715 101.897  0.00  0.00    +0.000 C 
ATOM     88  C   UNK     1      79.082  68.673 100.785  0.00  0.00    +0.000 C 
ENDBRANCH  85  87
ENDBRANCH  25  85
BRANCH   9  89
ATOM     89  C   UNK     1      74.629  67.503 111.683  0.00  0.00    +0.000 C 
BRANCH  89  90
ATOM     90  C   UNK     1      74.558  67.093 113.146  0.00  0.00    +0.000 C 
ATOM     91  N   UNK     1      74.271  65.783 113.354  0.00  0.00    +0.000 N 
ATOM     92  O   UNK     1      74.747  67.835 114.074  0.00  0.00    +0.000 OA
ATOM     93  H   UNK     1      74.177  65.462 114.306  0.00  0.00    +0.000 HD
ATOM     94  H   UNK     1      74.298  65.124 112.588  0.00  0.00    +0.000 HD
ENDBRANCH  89  90
ENDBRANCH   9  89
BRANCH  13  95
ATOM     95  C   UNK     1      77.990  63.453 109.391  0.00  0.00    +0.000 C 
BRANCH  95  96
ATOM     96  C   UNK     1      79.395  63.865 108.978  0.00  0.00    +0.000 C 
ATOM     97  O   UNK     1      80.338  63.597 109.757  0.00  0.00    +0.000 OA
ATOM     98  O   UNK     1      79.530  64.428 107.871  0.00  0.00    +0.000 OA
ENDBRANCH  95  96
ENDBRANCH  13  95
BRANCH  17  99
ATOM     99  C   UNK     1      75.283  62.261 105.660  0.00  0.00    +0.000 C 
BRANCH  99 100
ATOM    100  C   UNK     1      74.669  60.979 106.139  0.00  0.00    +0.000 A 
ATOM    101  C   UNK     1      74.116  60.730 107.335  0.00  0.00    +0.000 A 
ATOM    102  N   UNK     1      73.746  59.519 107.286  0.00  0.00    +0.000 N 
ATOM    103  C   UNK     1      74.054  59.067 106.143  0.00  0.00    +0.000 A 
ATOM    104  N   UNK     1      74.618  59.938 105.419  0.00  0.00    +0.000 NA
ATOM    105  H   UNK     1      73.274  58.988 108.052  0.00  0.00    +0.000 HD
ENDBRANCH  99 100
ENDBRANCH  17  99
BRANCH  21 106
ATOM    106  C   UNK     1      76.380  64.150 102.717  0.00  0.00    +0.000 C 
BRANCH 106 107
ATOM    107  C   UNK     1      77.522  63.284 103.206  0.00  0.00    +0.000 A 
ATOM    108  C   UNK     1      78.131  63.533 104.379  0.00  0.00    +0.000 A 
ATOM    109  C   UNK     1      79.125  62.747 104.820  0.00  0.00    +0.000 A 
ATOM    110  C   UNK     1      79.526  61.697 104.088  0.00  0.00    +0.000 A 
ATOM    111  C   UNK     1      78.931  61.440 102.913  0.00  0.00    +0.000 A 
ATOM    112  C   UNK     1      77.937  62.231 102.478  0.00  0.00    +0.000 A 
ENDBRANCH 106 107
ENDBRANCH  21 106
BRANCH  29 113
ATOM    113  C   UNK     1      72.932  70.260 101.527  0.00  0.00    +0.000 C 
BRANCH 113 114
ATOM    114  C   UNK     1      72.427  71.427 100.663  0.00  0.00    +0.000 C 
BRANCH 114 115
ATOM    115  C   UNK     1      71.361  70.969  99.654  0.00  0.00    +0.000 C 
BRANCH 115 116
ATOM    116  N   UNK     1      71.396  69.507  99.482  0.00  0.00    +0.000 NA
ATOM    117  H   UNK     1      70.433  69.128  99.452  0.00  0.00    +0.000 HD
ATOM    118  H   UNK     1      71.814  69.261  98.569  0.00  0.00    +0.000 HD
ENDBRANCH 115 116
ENDBRANCH 114 115
ENDBRANCH 113 114
ENDBRANCH  29 113
TORSDOF 33
ENDMDL
MODEL 9
REMARK VINA RESULT:      -6.4      3.361      8.488
REMARK  Name = ./1791.pdb
REMARK  41 active torsions:
REMARK  status: ('A' for Active; 'I' for Inactive)
REMARK    1  A    between atoms: C_1  and  C_2
REMARK    2  A    between atoms: C_2  and  C_3
REMARK    3  A    between atoms: C_3  and  C_4
REMARK    4  A    between atoms: C_3  and  C_5
REMARK    5  A    between atoms: C_5  and  N_6
REMARK    6  A    between atoms: C_5  and  C_7
REMARK    7  A    between atoms: C_10  and  C_12
REMARK    8  A    between atoms: N_14  and  C_15
REMARK    9  A    between atoms: C_15  and  C_16
REMARK   10  A    between atoms: C_15  and  C_20
REMARK   11  A    between atoms: C_16  and  C_17
REMARK   12  A    between atoms: C_17  and  C_18
REMARK   13  A    between atoms: C_17  and  C_19
REMARK   14  A    between atoms: N_22  and  C_23
REMARK   15  A    between atoms: C_23  and  C_24
REMARK   16  A    between atoms: C_23  and  C_29
REMARK   17  A    between atoms: C_24  and  C_25
REMARK   18  A    between atoms: C_25  and  C_26
REMARK   19  A    between atoms: N_31  and  C_32
REMARK   20  A    between atoms: C_32  and  C_33
REMARK   21  A    between atoms: C_32  and  C_37
REMARK   22  A    between atoms: C_33  and  C_34
REMARK   23  A    between atoms: C_33  and  C_35
REMARK   24  A    between atoms: C_35  and  C_36
REMARK   25  A    between atoms: N_39  and  C_40
REMARK   26  A    between atoms: C_48  and  C_49
REMARK   27  A    between atoms: C_49  and  C_50
REMARK   28  A    between atoms: C_56  and  C_57
REMARK   29  A    between atoms: C_57  and  C_58
REMARK   30  A    between atoms: C_64  and  C_65
REMARK   31  A    between atoms: C_65  and  C_66
REMARK   32  A    between atoms: C_74  and  C_75
REMARK   33  A    between atoms: C_75  and  C_76
REMARK   34  A    between atoms: C_85  and  C_97
REMARK   35  A    between atoms: C_89  and  C_90
REMARK   36  A    between atoms: C_90  and  C_91
REMARK   37  A    between atoms: C_91  and  C_92
REMARK   38  A    between atoms: C_92  and  N_93
REMARK   39  A    between atoms: C_97  and  C_98
REMARK   40  A    between atoms: C_97  and  C_99
REMARK   41  A    between atoms: C_99  and  C_100
REMARK                            x       y       z     vdW  Elec       q    Type
REMARK                         _______ _______ _______ _____ _____    ______ ____
ROOT
ATOM      1  C   UNK     1      75.418  57.239 102.568  0.00  0.00    +0.000 C 
ATOM      2  C   UNK     1      75.610  57.931 101.205  0.00  0.00    +0.000 C 
ATOM      3  C   UNK     1      76.418  59.237 101.365  0.00  0.00    +0.000 C 
ATOM      4  C   UNK     1      76.124  60.300 100.287  0.00  0.00    +0.000 C 
ATOM      5  C   UNK     1      76.047  61.740 100.837  0.00  0.00    +0.000 C 
ATOM      6  N   UNK     1      74.689  62.238 101.097  0.00  0.00    +0.000 N 
ATOM      7  C   UNK     1      73.699  61.504 101.685  0.00  0.00    +0.000 C 
ATOM      8  O   UNK     1      73.842  60.411 102.163  0.00  0.00    +0.000 OA
ATOM      9  C   UNK     1      72.331  62.170 101.710  0.00  0.00    +0.000 C 
ATOM     10  N   UNK     1      71.375  61.116 101.361  0.00  0.00    +0.000 N 
ATOM     11  C   UNK     1      70.117  61.372 100.899  0.00  0.00    +0.000 C 
ATOM     12  O   UNK     1      69.653  62.484 100.913  0.00  0.00    +0.000 OA
ATOM     13  C   UNK     1      69.401  60.145 100.343  0.00  0.00    +0.000 C 
ATOM     14  N   UNK     1      70.186  59.556  99.246  0.00  0.00    +0.000 N 
ATOM     15  C   UNK     1      71.201  58.657  99.426  0.00  0.00    +0.000 C 
ATOM     16  O   UNK     1      71.633  58.362 100.511  0.00  0.00    +0.000 OA
ATOM     17  C   UNK     1      71.744  58.073  98.127  0.00  0.00    +0.000 C 
ATOM     18  N   UNK     1      72.815  57.081  98.299  0.00  0.00    +0.000 N 
ATOM     19  C   UNK     1      72.726  55.812  98.803  0.00  0.00    +0.000 C 
ATOM     20  O   UNK     1      73.678  55.076  98.731  0.00  0.00    +0.000 OA
ATOM     21  C   UNK     1      71.420  55.342  99.447  0.00  0.00    +0.000 C 
ATOM     22  N   UNK     1      71.789  54.698 100.717  0.00  0.00    +0.000 N 
ATOM     23  C   UNK     1      70.916  54.514 101.758  0.00  0.00    +0.000 C 
ATOM     24  O   UNK     1      69.821  55.015 101.791  0.00  0.00    +0.000 OA
ATOM     25  C   UNK     1      71.438  53.582 102.852  0.00  0.00    +0.000 C 
ATOM     26  N   UNK     1      72.824  53.948 103.157  0.00  0.00    +0.000 N 
ATOM     27  C   UNK     1      73.755  53.053 103.604  0.00  0.00    +0.000 C 
ATOM     28  O   UNK     1      73.489  51.904 103.853  0.00  0.00    +0.000 OA
ATOM     29  C   UNK     1      75.166  53.620 103.772  0.00  0.00    +0.000 C 
ATOM     30  N   UNK     1      75.258  55.087 103.666  0.00  0.00    +0.000 N 
ATOM     31  C   UNK     1      75.009  55.775 102.510  0.00  0.00    +0.000 C 
ATOM     32  O   UNK     1      74.509  55.260 101.543  0.00  0.00    +0.000 OA
ATOM     33  H   UNK     1      74.493  63.229 100.938  0.00  0.00    +0.000 HD
ATOM     34  H   UNK     1      71.704  60.153 101.459  0.00  0.00    +0.000 HD
ATOM     35  H   UNK     1      69.957  59.838  98.292  0.00  0.00    +0.000 HD
ATOM     36  H   UNK     1      73.731  57.301  97.909  0.00  0.00    +0.000 HD
ATOM     37  H   UNK     1      72.745  54.333 100.778  0.00  0.00    +0.000 HD
ATOM     38  H   UNK     1      73.107  54.913 102.993  0.00  0.00    +0.000 HD
ATOM     39  H   UNK     1      75.627  55.607 104.463  0.00  0.00    +0.000 HD
ENDROOT
BRANCH   1  42
ATOM     40  C   UNK     1      74.459  57.976 104.742  0.00  0.00    +0.000 C 
ATOM     41  O   UNK     1      75.202  57.285 105.392  0.00  0.00    +0.000 OA
ATOM     42  N   UNK     1      74.460  58.004 103.379  0.00  0.00    +0.000 N 
ATOM     43  H   UNK     1      73.771  58.577 102.893  0.00  0.00    +0.000 HD
BRANCH  40  44
ATOM     44  C   UNK     1      73.472  58.920 105.427  0.00  0.00    +0.000 C 
BRANCH  44  47
ATOM     45  C   UNK     1      75.457  60.434 105.457  0.00  0.00    +0.000 C 
ATOM     46  O   UNK     1      76.281  59.553 105.480  0.00  0.00    +0.000 OA
ATOM     47  N   UNK     1      74.114  60.236 105.318  0.00  0.00    +0.000 N 
ATOM     48  H   UNK     1      73.487  61.041 105.303  0.00  0.00    +0.000 HD
BRANCH  45  49
ATOM     49  C   UNK     1      75.888  61.890 105.609  0.00  0.00    +0.000 C 
BRANCH  49  52
ATOM     50  C   UNK     1      74.982  63.616 107.181  0.00  0.00    +0.000 C 
ATOM     51  O   UNK     1      76.057  64.095 107.446  0.00  0.00    +0.000 OA
ATOM     52  N   UNK     1      74.812  62.545 106.356  0.00  0.00    +0.000 N 
ATOM     53  H   UNK     1      73.877  62.148 106.241  0.00  0.00    +0.000 HD
BRANCH  50  54
ATOM     54  C   UNK     1      73.670  64.181 107.731  0.00  0.00    +0.000 C 
BRANCH  54  57
ATOM     55  C   UNK     1      73.764  64.203 110.268  0.00  0.00    +0.000 C 
ATOM     56  O   UNK     1      73.515  63.606 111.284  0.00  0.00    +0.000 OA
ATOM     57  N   UNK     1      73.399  63.646 109.072  0.00  0.00    +0.000 N 
ATOM     58  H   UNK     1      72.990  62.716 109.149  0.00  0.00    +0.000 HD
BRANCH  55  62
ATOM     59  C   UNK     1      74.053  66.598 112.451  0.00  0.00    +0.000 C 
ATOM     60  N   UNK     1      73.138  67.028 111.690  0.00  0.00    +0.000 NA
ATOM     61  C   UNK     1      73.469  66.763 110.262  0.00  0.00    +0.000 C 
ATOM     62  C   UNK     1      74.451  65.570 110.255  0.00  0.00    +0.000 C 
ATOM     63  S   UNK     1      75.217  65.961 111.826  0.00  0.00    +0.000 S 
BRANCH  59  64
ATOM     64  C   UNK     1      73.842  66.633 113.946  0.00  0.00    +0.000 C 
BRANCH  64  65
ATOM     65  N   UNK     1      72.891  65.563 114.297  0.00  0.00    +0.000 NA
ATOM     66  H   UNK     1      73.276  64.976 115.057  0.00  0.00    +0.000 HD
ATOM     67  H   UNK     1      72.018  65.949 114.695  0.00  0.00    +0.000 HD
ENDBRANCH  64  65
BRANCH  64  68
ATOM     68  C   UNK     1      75.151  66.552 114.760  0.00  0.00    +0.000 C 
ATOM     69  C   UNK     1      75.698  67.972 115.013  0.00  0.00    +0.000 C 
BRANCH  68  71
ATOM     70  C   UNK     1      76.245  65.025 116.548  0.00  0.00    +0.000 C 
ATOM     71  C   UNK     1      74.999  65.805 116.103  0.00  0.00    +0.000 C 
ENDBRANCH  68  71
ENDBRANCH  64  68
ENDBRANCH  59  64
ENDBRANCH  55  62
ENDBRANCH  54  57
BRANCH  54  72
ATOM     72  C   UNK     1      72.501  63.860 106.780  0.00  0.00    +0.000 C 
BRANCH  72  73
ATOM     73  C   UNK     1      71.656  65.076 106.349  0.00  0.00    +0.000 C 
ATOM     74  C   UNK     1      70.662  65.515 107.437  0.00  0.00    +0.000 C 
ATOM     75  C   UNK     1      72.582  66.251 105.984  0.00  0.00    +0.000 C 
ENDBRANCH  72  73
ENDBRANCH  54  72
ENDBRANCH  50  54
ENDBRANCH  49  52
BRANCH  49  76
ATOM     76  C   UNK     1      76.105  62.609 104.266  0.00  0.00    +0.000 C 
BRANCH  76  77
ATOM     77  C   UNK     1      77.529  63.171 104.104  0.00  0.00    +0.000 C 
BRANCH  77  78
ATOM     78  C   UNK     1      78.633  62.136 104.235  0.00  0.00    +0.000 C 
ATOM     79  O   UNK     1      79.471  62.302 105.150  0.00  0.00    +0.000 OA
ATOM     80  O   UNK     1      78.641  61.168 103.445  0.00  0.00    +0.000 OA
ENDBRANCH  77  78
ENDBRANCH  76  77
ENDBRANCH  49  76
ENDBRANCH  45  49
ENDBRANCH  44  47
BRANCH  44  81
ATOM     81  C   UNK     1      73.215  58.507 106.895  0.00  0.00    +0.000 C 
ATOM     82  C   UNK     1      73.041  59.724 107.824  0.00  0.00    +0.000 C 
BRANCH  81  83
ATOM     83  C   UNK     1      71.987  57.587 107.058  0.00  0.00    +0.000 C 
ATOM     84  C   UNK     1      70.636  58.286 106.866  0.00  0.00    +0.000 C 
ENDBRANCH  81  83
ENDBRANCH  44  81
ENDBRANCH  40  44
ENDBRANCH   1  42
BRANCH  25  85
ATOM     85  C   UNK     1      70.583  53.427 104.132  0.00  0.00    +0.000 C 
ATOM     86  C   UNK     1      69.148  52.956 103.830  0.00  0.00    +0.000 C 
BRANCH  85  87
ATOM     87  C   UNK     1      70.627  54.679 105.026  0.00  0.00    +0.000 C 
ATOM     88  C   UNK     1      69.898  54.522 106.366  0.00  0.00    +0.000 C 
ENDBRANCH  85  87
ENDBRANCH  25  85
BRANCH   9  89
ATOM     89  C   UNK     1      72.097  62.773 103.102  0.00  0.00    +0.000 C 
BRANCH  89  90
ATOM     90  C   UNK     1      71.045  62.000 103.882  0.00  0.00    +0.000 C 
ATOM     91  N   UNK     1      69.940  62.718 104.208  0.00  0.00    +0.000 N 
ATOM     92  O   UNK     1      71.139  60.842 104.196  0.00  0.00    +0.000 OA
ATOM     93  H   UNK     1      69.224  62.267 104.757  0.00  0.00    +0.000 HD
ATOM     94  H   UNK     1      69.775  63.625 103.790  0.00  0.00    +0.000 HD
ENDBRANCH  89  90
ENDBRANCH   9  89
BRANCH  13  95
ATOM     95  C   UNK     1      67.974  60.456  99.847  0.00  0.00    +0.000 C 
BRANCH  95  96
ATOM     96  C   UNK     1      67.785  60.317  98.345  0.00  0.00    +0.000 C 
ATOM     97  O   UNK     1      67.373  59.220  97.904  0.00  0.00    +0.000 OA
ATOM     98  O   UNK     1      68.032  61.317  97.637  0.00  0.00    +0.000 OA
ENDBRANCH  95  96
ENDBRANCH  13  95
BRANCH  17  99
ATOM     99  C   UNK     1      70.676  57.665  97.095  0.00  0.00    +0.000 C 
BRANCH  99 100
ATOM    100  C   UNK     1      70.663  58.537  95.874  0.00  0.00    +0.000 A 
ATOM    101  C   UNK     1      70.645  58.151  94.590  0.00  0.00    +0.000 A 
ATOM    102  N   UNK     1      70.651  59.226  93.919  0.00  0.00    +0.000 N 
ATOM    103  C   UNK     1      70.672  60.192  94.738  0.00  0.00    +0.000 A 
ATOM    104  N   UNK     1      70.677  59.802  95.941  0.00  0.00    +0.000 NA
ATOM    105  H   UNK     1      70.643  59.301  92.877  0.00  0.00    +0.000 HD
ENDBRANCH  99 100
ENDBRANCH  17  99
BRANCH  21 106
ATOM    106  C   UNK     1      70.772  54.290  98.521  0.00  0.00    +0.000 C 
BRANCH 106 107
ATOM    107  C   UNK     1      69.291  54.535  98.326  0.00  0.00    +0.000 A 
ATOM    108  C   UNK     1      68.677  55.583  98.906  0.00  0.00    +0.000 A 
ATOM    109  C   UNK     1      67.369  55.811  98.709  0.00  0.00    +0.000 A 
ATOM    110  C   UNK     1      66.655  54.988  97.927  0.00  0.00    +0.000 A 
ATOM    111  C   UNK     1      67.253  53.936  97.347  0.00  0.00    +0.000 A 
ATOM    112  C   UNK     1      68.562  53.714  97.548  0.00  0.00    +0.000 A 
ENDBRANCH 106 107
ENDBRANCH  21 106
BRANCH  29 113
ATOM    113  C   UNK     1      76.233  52.951 102.883  0.00  0.00    +0.000 C 
BRANCH 113 114
ATOM    114  C   UNK     1      77.689  53.152 103.333  0.00  0.00    +0.000 C 
BRANCH 114 115
ATOM    115  C   UNK     1      78.379  54.277 102.545  0.00  0.00    +0.000 C 
BRANCH 115 116
ATOM    116  N   UNK     1      78.544  55.478 103.381  0.00  0.00    +0.000 NA
ATOM    117  H   UNK     1      77.621  55.884 103.609  0.00  0.00    +0.000 HD
ATOM    118  H   UNK     1      78.965  55.228 104.293  0.00  0.00    +0.000 HD
ENDBRANCH 115 116
ENDBRANCH 114 115
ENDBRANCH 113 114
ENDBRANCH  29 113
TORSDOF 33
ENDMDL
MODEL 10
REMARK VINA RESULT:      -6.4      3.620      9.601
REMARK  Name = ./1791.pdb
REMARK  41 active torsions:
REMARK  status: ('A' for Active; 'I' for Inactive)
REMARK    1  A    between atoms: C_1  and  C_2
REMARK    2  A    between atoms: C_2  and  C_3
REMARK    3  A    between atoms: C_3  and  C_4
REMARK    4  A    between atoms: C_3  and  C_5
REMARK    5  A    between atoms: C_5  and  N_6
REMARK    6  A    between atoms: C_5  and  C_7
REMARK    7  A    between atoms: C_10  and  C_12
REMARK    8  A    between atoms: N_14  and  C_15
REMARK    9  A    between atoms: C_15  and  C_16
REMARK   10  A    between atoms: C_15  and  C_20
REMARK   11  A    between atoms: C_16  and  C_17
REMARK   12  A    between atoms: C_17  and  C_18
REMARK   13  A    between atoms: C_17  and  C_19
REMARK   14  A    between atoms: N_22  and  C_23
REMARK   15  A    between atoms: C_23  and  C_24
REMARK   16  A    between atoms: C_23  and  C_29
REMARK   17  A    between atoms: C_24  and  C_25
REMARK   18  A    between atoms: C_25  and  C_26
REMARK   19  A    between atoms: N_31  and  C_32
REMARK   20  A    between atoms: C_32  and  C_33
REMARK   21  A    between atoms: C_32  and  C_37
REMARK   22  A    between atoms: C_33  and  C_34
REMARK   23  A    between atoms: C_33  and  C_35
REMARK   24  A    between atoms: C_35  and  C_36
REMARK   25  A    between atoms: N_39  and  C_40
REMARK   26  A    between atoms: C_48  and  C_49
REMARK   27  A    between atoms: C_49  and  C_50
REMARK   28  A    between atoms: C_56  and  C_57
REMARK   29  A    between atoms: C_57  and  C_58
REMARK   30  A    between atoms: C_64  and  C_65
REMARK   31  A    between atoms: C_65  and  C_66
REMARK   32  A    between atoms: C_74  and  C_75
REMARK   33  A    between atoms: C_75  and  C_76
REMARK   34  A    between atoms: C_85  and  C_97
REMARK   35  A    between atoms: C_89  and  C_90
REMARK   36  A    between atoms: C_90  and  C_91
REMARK   37  A    between atoms: C_91  and  C_92
REMARK   38  A    between atoms: C_92  and  N_93
REMARK   39  A    between atoms: C_97  and  C_98
REMARK   40  A    between atoms: C_97  and  C_99
REMARK   41  A    between atoms: C_99  and  C_100
REMARK                            x       y       z     vdW  Elec       q    Type
REMARK                         _______ _______ _______ _____ _____    ______ ____
ROOT
ATOM      1  C   UNK     1      78.771  66.058 106.992  0.00  0.00    +0.000 C 
ATOM      2  C   UNK     1      78.968  64.530 107.025  0.00  0.00    +0.000 C 
ATOM      3  C   UNK     1      80.461  64.170 106.866  0.00  0.00    +0.000 C 
ATOM      4  C   UNK     1      80.714  62.782 106.242  0.00  0.00    +0.000 C 
ATOM      5  C   UNK     1      81.877  62.758 105.227  0.00  0.00    +0.000 C 
ATOM      6  N   UNK     1      81.477  62.852 103.816  0.00  0.00    +0.000 N 
ATOM      7  C   UNK     1      80.516  63.698 103.344  0.00  0.00    +0.000 C 
ATOM      8  O   UNK     1      79.962  64.544 103.992  0.00  0.00    +0.000 OA
ATOM      9  C   UNK     1      80.158  63.512 101.876  0.00  0.00    +0.000 C 
ATOM     10  N   UNK     1      78.697  63.607 101.813  0.00  0.00    +0.000 N 
ATOM     11  C   UNK     1      77.962  63.118 100.773  0.00  0.00    +0.000 C 
ATOM     12  O   UNK     1      78.483  62.730  99.758  0.00  0.00    +0.000 OA
ATOM     13  C   UNK     1      76.461  63.080 101.042  0.00  0.00    +0.000 C 
ATOM     14  N   UNK     1      76.182  62.260 102.233  0.00  0.00    +0.000 N 
ATOM     15  C   UNK     1      76.216  62.733 103.514  0.00  0.00    +0.000 C 
ATOM     16  O   UNK     1      76.606  63.838 103.798  0.00  0.00    +0.000 OA
ATOM     17  C   UNK     1      75.729  61.730 104.555  0.00  0.00    +0.000 C 
ATOM     18  N   UNK     1      75.728  62.229 105.936  0.00  0.00    +0.000 N 
ATOM     19  C   UNK     1      74.911  63.172 106.500  0.00  0.00    +0.000 C 
ATOM     20  O   UNK     1      74.946  63.353 107.691  0.00  0.00    +0.000 OA
ATOM     21  C   UNK     1      73.963  63.982 105.613  0.00  0.00    +0.000 C 
ATOM     22  N   UNK     1      74.118  65.390 106.011  0.00  0.00    +0.000 N 
ATOM     23  C   UNK     1      73.767  66.448 105.214  0.00  0.00    +0.000 C 
ATOM     24  O   UNK     1      73.461  66.323 104.055  0.00  0.00    +0.000 OA
ATOM     25  C   UNK     1      73.754  67.795 105.937  0.00  0.00    +0.000 C 
ATOM     26  N   UNK     1      74.970  67.903 106.748  0.00  0.00    +0.000 N 
ATOM     27  C   UNK     1      75.038  68.624 107.906  0.00  0.00    +0.000 C 
ATOM     28  O   UNK     1      74.119  69.291 108.314  0.00  0.00    +0.000 OA
ATOM     29  C   UNK     1      76.372  68.530 108.649  0.00  0.00    +0.000 C 
ATOM     30  N   UNK     1      77.455  67.883 107.889  0.00  0.00    +0.000 N 
ATOM     31  C   UNK     1      77.442  66.560 107.536  0.00  0.00    +0.000 C 
ATOM     32  O   UNK     1      76.461  65.870 107.646  0.00  0.00    +0.000 OA
ATOM     33  H   UNK     1      82.023  62.340 103.119  0.00  0.00    +0.000 HD
ATOM     34  H   UNK     1      78.236  64.048 102.611  0.00  0.00    +0.000 HD
ATOM     35  H   UNK     1      75.949  61.277 102.089  0.00  0.00    +0.000 HD
ATOM     36  H   UNK     1      76.333  61.760 106.610  0.00  0.00    +0.000 HD
ATOM     37  H   UNK     1      74.465  65.555 106.962  0.00  0.00    +0.000 HD
ATOM     38  H   UNK     1      75.791  67.384 106.443  0.00  0.00    +0.000 HD
ATOM     39  H   UNK     1      78.306  68.418 107.708  0.00  0.00    +0.000 HD
ENDROOT
BRANCH   1  42
ATOM     40  C   UNK     1      79.753  67.639 105.342  0.00  0.00    +0.000 C 
ATOM     41  O   UNK     1      80.282  68.316 106.189  0.00  0.00    +0.000 OA
ATOM     42  N   UNK     1      78.981  66.552 105.624  0.00  0.00    +0.000 N 
ATOM     43  H   UNK     1      78.526  66.054 104.859  0.00  0.00    +0.000 HD
BRANCH  40  44
ATOM     44  C   UNK     1      79.959  67.945 103.858  0.00  0.00    +0.000 C 
BRANCH  44  47
ATOM     45  C   UNK     1      78.473  67.549 101.892  0.00  0.00    +0.000 C 
ATOM     46  O   UNK     1      79.261  67.934 101.064  0.00  0.00    +0.000 OA
ATOM     47  N   UNK     1      78.748  67.412 103.221  0.00  0.00    +0.000 N 
ATOM     48  H   UNK     1      78.023  67.072 103.852  0.00  0.00    +0.000 HD
BRANCH  45  49
ATOM     49  C   UNK     1      77.045  67.197 101.484  0.00  0.00    +0.000 C 
BRANCH  49  52
ATOM     50  C   UNK     1      76.223  67.077  99.121  0.00  0.00    +0.000 C 
ATOM     51  O   UNK     1      75.765  65.965  99.223  0.00  0.00    +0.000 OA
ATOM     52  N   UNK     1      76.881  67.721 100.126  0.00  0.00    +0.000 N 
ATOM     53  H   UNK     1      77.308  68.630  99.939  0.00  0.00    +0.000 HD
BRANCH  50  54
ATOM     54  C   UNK     1      76.091  67.908  97.843  0.00  0.00    +0.000 C 
BRANCH  54  57
ATOM     55  C   UNK     1      77.794  69.506  96.846  0.00  0.00    +0.000 C 
ATOM     56  O   UNK     1      78.543  70.427  97.052  0.00  0.00    +0.000 OA
ATOM     57  N   UNK     1      77.011  69.053  97.874  0.00  0.00    +0.000 N 
ATOM     58  H   UNK     1      77.182  69.512  98.767  0.00  0.00    +0.000 HD
BRANCH  55  62
ATOM     59  C   UNK     1      79.892  67.996  94.872  0.00  0.00    +0.000 C 
ATOM     60  N   UNK     1      79.788  69.139  94.340  0.00  0.00    +0.000 NA
ATOM     61  C   UNK     1      78.369  69.594  94.336  0.00  0.00    +0.000 C 
ATOM     62  C   UNK     1      77.663  68.832  95.480  0.00  0.00    +0.000 C 
ATOM     63  S   UNK     1      78.665  67.353  95.352  0.00  0.00    +0.000 S 
BRANCH  59  64
ATOM     64  C   UNK     1      81.268  67.419  95.110  0.00  0.00    +0.000 C 
BRANCH  64  65
ATOM     65  N   UNK     1      81.149  66.368  96.136  0.00  0.00    +0.000 NA
ATOM     66  H   UNK     1      82.004  66.335  96.717  0.00  0.00    +0.000 HD
ATOM     67  H   UNK     1      80.395  66.583  96.811  0.00  0.00    +0.000 HD
ENDBRANCH  64  65
BRANCH  64  68
ATOM     68  C   UNK     1      81.962  66.918  93.825  0.00  0.00    +0.000 C 
ATOM     69  C   UNK     1      81.105  65.820  93.162  0.00  0.00    +0.000 C 
BRANCH  68  71
ATOM     70  C   UNK     1      83.620  68.725  92.981  0.00  0.00    +0.000 C 
ATOM     71  C   UNK     1      82.257  68.038  92.804  0.00  0.00    +0.000 C 
ENDBRANCH  68  71
ENDBRANCH  64  68
ENDBRANCH  59  64
ENDBRANCH  55  62
ENDBRANCH  54  57
BRANCH  54  72
ATOM     72  C   UNK     1      74.640  68.393  97.659  0.00  0.00    +0.000 C 
BRANCH  72  73
ATOM     73  C   UNK     1      73.993  68.020  96.310  0.00  0.00    +0.000 C 
ATOM     74  C   UNK     1      74.103  69.152  95.274  0.00  0.00    +0.000 C 
ATOM     75  C   UNK     1      74.644  66.741  95.754  0.00  0.00    +0.000 C 
ENDBRANCH  72  73
ENDBRANCH  54  72
ENDBRANCH  50  54
ENDBRANCH  49  52
BRANCH  49  76
ATOM     76  C   UNK     1      75.975  67.804 102.409  0.00  0.00    +0.000 C 
BRANCH  76  77
ATOM     77  C   UNK     1      76.015  69.342 102.452  0.00  0.00    +0.000 C 
BRANCH  77  78
ATOM     78  C   UNK     1      75.123  70.024 101.429  0.00  0.00    +0.000 C 
ATOM     79  O   UNK     1      75.665  70.437 100.379  0.00  0.00    +0.000 OA
ATOM     80  O   UNK     1      73.902  70.124 101.673  0.00  0.00    +0.000 OA
ENDBRANCH  77  78
ENDBRANCH  76  77
ENDBRANCH  49  76
ENDBRANCH  45  49
ENDBRANCH  44  47
BRANCH  44  81
ATOM     81  C   UNK     1      81.251  67.289 103.317  0.00  0.00    +0.000 C 
ATOM     82  C   UNK     1      82.094  68.266 102.475  0.00  0.00    +0.000 C 
BRANCH  81  83
ATOM     83  C   UNK     1      82.145  66.706 104.432  0.00  0.00    +0.000 C 
ATOM     84  C   UNK     1      83.394  65.974 103.930  0.00  0.00    +0.000 C 
ENDBRANCH  81  83
ENDBRANCH  44  81
ENDBRANCH  40  44
ENDBRANCH   1  42
BRANCH  25  85
ATOM     85  C   UNK     1      73.508  69.064 105.087  0.00  0.00    +0.000 C 
ATOM     86  C   UNK     1      74.590  70.138 105.300  0.00  0.00    +0.000 C 
BRANCH  85  87
ATOM     87  C   UNK     1      72.078  69.613 105.246  0.00  0.00    +0.000 C 
ATOM     88  C   UNK     1      71.200  68.809 106.214  0.00  0.00    +0.000 C 
ENDBRANCH  85  87
ENDBRANCH  25  85
BRANCH   9  89
ATOM     89  C   UNK     1      80.879  64.585 101.048  0.00  0.00    +0.000 C 
BRANCH  89  90
ATOM     90  C   UNK     1      81.589  63.986  99.844  0.00  0.00    +0.000 C 
ATOM     91  N   UNK     1      80.989  64.234  98.651  0.00  0.00    +0.000 N 
ATOM     92  O   UNK     1      82.607  63.347  99.897  0.00  0.00    +0.000 OA
ATOM     93  H   UNK     1      81.396  63.831  97.821  0.00  0.00    +0.000 HD
ATOM     94  H   UNK     1      80.248  64.919  98.582  0.00  0.00    +0.000 HD
ENDBRANCH  89  90
ENDBRANCH   9  89
BRANCH  13  95
ATOM     95  C   UNK     1      75.650  62.544  99.844  0.00  0.00    +0.000 C 
BRANCH  95  96
ATOM     96  C   UNK     1      75.171  61.110 100.000  0.00  0.00    +0.000 C 
ATOM     97  O   UNK     1      74.001  60.922 100.406  0.00  0.00    +0.000 OA
ATOM     98  O   UNK     1      75.968  60.198  99.690  0.00  0.00    +0.000 OA
ENDBRANCH  95  96
ENDBRANCH  13  95
BRANCH  17  99
ATOM     99  C   UNK     1      74.455  60.956 104.170  0.00  0.00    +0.000 C 
BRANCH  99 100
ATOM    100  C   UNK     1      74.049  59.932 105.189  0.00  0.00    +0.000 A 
ATOM    101  C   UNK     1      72.809  59.630 105.601  0.00  0.00    +0.000 A 
ATOM    102  N   UNK     1      72.959  58.721 106.471  0.00  0.00    +0.000 N 
ATOM    103  C   UNK     1      74.200  58.491 106.579  0.00  0.00    +0.000 A 
ATOM    104  N   UNK     1      74.892  59.214 105.806  0.00  0.00    +0.000 NA
ATOM    105  H   UNK     1      72.195  58.249 107.006  0.00  0.00    +0.000 HD
ENDBRANCH  99 100
ENDBRANCH  17  99
BRANCH  21 106
ATOM    106  C   UNK     1      72.516  63.532 105.912  0.00  0.00    +0.000 C 
BRANCH 106 107
ATOM    107  C   UNK     1      71.759  63.169 104.652  0.00  0.00    +0.000 A 
ATOM    108  C   UNK     1      70.469  62.791 104.700  0.00  0.00    +0.000 A 
ATOM    109  C   UNK     1      69.795  62.495 103.577  0.00  0.00    +0.000 A 
ATOM    110  C   UNK     1      70.407  62.574 102.386  0.00  0.00    +0.000 A 
ATOM    111  C   UNK     1      71.695  62.946 102.325  0.00  0.00    +0.000 A 
ATOM    112  C   UNK     1      72.363  63.240 103.451  0.00  0.00    +0.000 A 
ENDBRANCH 106 107
ENDBRANCH  21 106
BRANCH  29 113
ATOM    113  C   UNK     1      76.273  67.924 110.063  0.00  0.00    +0.000 C 
BRANCH 113 114
ATOM    114  C   UNK     1      75.025  67.066 110.328  0.00  0.00    +0.000 C 
BRANCH 114 115
ATOM    115  C   UNK     1      74.367  67.417 111.672  0.00  0.00    +0.000 C 
BRANCH 115 116
ATOM    116  N   UNK     1      75.284  68.203 112.515  0.00  0.00    +0.000 NA
ATOM    117  H   UNK     1      75.963  68.714 111.925  0.00  0.00    +0.000 HD
ATOM    118  H   UNK     1      74.764  68.935 113.029  0.00  0.00    +0.000 HD
ENDBRANCH 115 116
ENDBRANCH 114 115
ENDBRANCH 113 114
ENDBRANCH  29 113
TORSDOF 33
ENDMDL
MODEL 11
REMARK VINA RESULT:      -6.3      3.269      7.996
REMARK  Name = ./1791.pdb
REMARK  41 active torsions:
REMARK  status: ('A' for Active; 'I' for Inactive)
REMARK    1  A    between atoms: C_1  and  C_2
REMARK    2  A    between atoms: C_2  and  C_3
REMARK    3  A    between atoms: C_3  and  C_4
REMARK    4  A    between atoms: C_3  and  C_5
REMARK    5  A    between atoms: C_5  and  N_6
REMARK    6  A    between atoms: C_5  and  C_7
REMARK    7  A    between atoms: C_10  and  C_12
REMARK    8  A    between atoms: N_14  and  C_15
REMARK    9  A    between atoms: C_15  and  C_16
REMARK   10  A    between atoms: C_15  and  C_20
REMARK   11  A    between atoms: C_16  and  C_17
REMARK   12  A    between atoms: C_17  and  C_18
REMARK   13  A    between atoms: C_17  and  C_19
REMARK   14  A    between atoms: N_22  and  C_23
REMARK   15  A    between atoms: C_23  and  C_24
REMARK   16  A    between atoms: C_23  and  C_29
REMARK   17  A    between atoms: C_24  and  C_25
REMARK   18  A    between atoms: C_25  and  C_26
REMARK   19  A    between atoms: N_31  and  C_32
REMARK   20  A    between atoms: C_32  and  C_33
REMARK   21  A    between atoms: C_32  and  C_37
REMARK   22  A    between atoms: C_33  and  C_34
REMARK   23  A    between atoms: C_33  and  C_35
REMARK   24  A    between atoms: C_35  and  C_36
REMARK   25  A    between atoms: N_39  and  C_40
REMARK   26  A    between atoms: C_48  and  C_49
REMARK   27  A    between atoms: C_49  and  C_50
REMARK   28  A    between atoms: C_56  and  C_57
REMARK   29  A    between atoms: C_57  and  C_58
REMARK   30  A    between atoms: C_64  and  C_65
REMARK   31  A    between atoms: C_65  and  C_66
REMARK   32  A    between atoms: C_74  and  C_75
REMARK   33  A    between atoms: C_75  and  C_76
REMARK   34  A    between atoms: C_85  and  C_97
REMARK   35  A    between atoms: C_89  and  C_90
REMARK   36  A    between atoms: C_90  and  C_91
REMARK   37  A    between atoms: C_91  and  C_92
REMARK   38  A    between atoms: C_92  and  N_93
REMARK   39  A    between atoms: C_97  and  C_98
REMARK   40  A    between atoms: C_97  and  C_99
REMARK   41  A    between atoms: C_99  and  C_100
REMARK                            x       y       z     vdW  Elec       q    Type
REMARK                         _______ _______ _______ _____ _____    ______ ____
ROOT
ATOM      1  C   UNK     1      75.682  58.153 102.998  0.00  0.00    +0.000 C 
ATOM      2  C   UNK     1      75.864  58.902 101.664  0.00  0.00    +0.000 C 
ATOM      3  C   UNK     1      76.460  60.306 101.904  0.00  0.00    +0.000 C 
ATOM      4  C   UNK     1      76.089  61.344 100.826  0.00  0.00    +0.000 C 
ATOM      5  C   UNK     1      75.765  62.743 101.393  0.00  0.00    +0.000 C 
ATOM      6  N   UNK     1      74.334  63.032 101.563  0.00  0.00    +0.000 N 
ATOM      7  C   UNK     1      73.424  62.148 102.065  0.00  0.00    +0.000 C 
ATOM      8  O   UNK     1      73.692  61.074 102.533  0.00  0.00    +0.000 OA
ATOM      9  C   UNK     1      71.975  62.608 102.003  0.00  0.00    +0.000 C 
ATOM     10  N   UNK     1      71.209  61.437 101.568  0.00  0.00    +0.000 N 
ATOM     11  C   UNK     1      69.963  61.521 101.021  0.00  0.00    +0.000 C 
ATOM     12  O   UNK     1      69.341  62.554 101.020  0.00  0.00    +0.000 OA
ATOM     13  C   UNK     1      69.473  60.220 100.394  0.00  0.00    +0.000 C 
ATOM     14  N   UNK     1      70.409  59.779  99.347  0.00  0.00    +0.000 N 
ATOM     15  C   UNK     1      71.529  59.032  99.585  0.00  0.00    +0.000 C 
ATOM     16  O   UNK     1      71.924  58.774 100.693  0.00  0.00    +0.000 OA
ATOM     17  C   UNK     1      72.240  58.568  98.318  0.00  0.00    +0.000 C 
ATOM     18  N   UNK     1      73.429  57.737  98.550  0.00  0.00    +0.000 N 
ATOM     19  C   UNK     1      73.492  56.455  99.025  0.00  0.00    +0.000 C 
ATOM     20  O   UNK     1      74.544  55.866  99.010  0.00  0.00    +0.000 OA
ATOM     21  C   UNK     1      72.227  55.784  99.566  0.00  0.00    +0.000 C 
ATOM     22  N   UNK     1      72.598  55.165 100.848  0.00  0.00    +0.000 N 
ATOM     23  C   UNK     1      71.692  54.830 101.820  0.00  0.00    +0.000 C 
ATOM     24  O   UNK     1      70.535  55.166 101.783  0.00  0.00    +0.000 OA
ATOM     25  C   UNK     1      72.268  53.953 102.933  0.00  0.00    +0.000 C 
ATOM     26  N   UNK     1      73.561  54.507 103.344  0.00  0.00    +0.000 N 
ATOM     27  C   UNK     1      74.580  53.745 103.841  0.00  0.00    +0.000 C 
ATOM     28  O   UNK     1      74.467  52.562 104.051  0.00  0.00    +0.000 OA
ATOM     29  C   UNK     1      75.878  54.504 104.120  0.00  0.00    +0.000 C 
ATOM     30  N   UNK     1      75.762  55.971 104.046  0.00  0.00    +0.000 N 
ATOM     31  C   UNK     1      75.495  56.647 102.886  0.00  0.00    +0.000 C 
ATOM     32  O   UNK     1      75.143  56.091 101.877  0.00  0.00    +0.000 OA
ATOM     33  H   UNK     1      74.007  63.989 101.407  0.00  0.00    +0.000 HD
ATOM     34  H   UNK     1      71.667  60.529 101.673  0.00  0.00    +0.000 HD
ATOM     35  H   UNK     1      70.208  60.051  98.384  0.00  0.00    +0.000 HD
ATOM     36  H   UNK     1      74.329  58.097  98.231  0.00  0.00    +0.000 HD
ATOM     37  H   UNK     1      73.591  54.941 100.971  0.00  0.00    +0.000 HD
ATOM     38  H   UNK     1      73.711  55.507 103.217  0.00  0.00    +0.000 HD
ATOM     39  H   UNK     1      75.996  56.517 104.876  0.00  0.00    +0.000 HD
ENDROOT
BRANCH   1  42
ATOM     40  C   UNK     1      74.667  59.092 105.066  0.00  0.00    +0.000 C 
ATOM     41  O   UNK     1      75.649  58.887 105.734  0.00  0.00    +0.000 OA
ATOM     42  N   UNK     1      74.569  58.749 103.751  0.00  0.00    +0.000 N 
ATOM     43  H   UNK     1      73.690  58.911 103.260  0.00  0.00    +0.000 HD
BRANCH  40  44
ATOM     44  C   UNK     1      73.454  59.807 105.661  0.00  0.00    +0.000 C 
BRANCH  44  47
ATOM     45  C   UNK     1      74.308  62.054 106.336  0.00  0.00    +0.000 C 
ATOM     46  O   UNK     1      73.918  62.633 105.353  0.00  0.00    +0.000 OA
ATOM     47  N   UNK     1      74.041  60.747 106.625  0.00  0.00    +0.000 N 
ATOM     48  H   UNK     1      74.407  60.337 107.484  0.00  0.00    +0.000 HD
BRANCH  45  49
ATOM     49  C   UNK     1      75.184  62.779 107.355  0.00  0.00    +0.000 C 
BRANCH  49  52
ATOM     50  C   UNK     1      73.310  63.738 108.711  0.00  0.00    +0.000 C 
ATOM     51  O   UNK     1      72.885  62.670 109.076  0.00  0.00    +0.000 OA
ATOM     52  N   UNK     1      74.367  63.883 107.864  0.00  0.00    +0.000 N 
ATOM     53  H   UNK     1      74.621  64.819 107.539  0.00  0.00    +0.000 HD
BRANCH  50  54
ATOM     54  C   UNK     1      72.718  65.067 109.186  0.00  0.00    +0.000 C 
BRANCH  54  57
ATOM     55  C   UNK     1      72.778  65.185 111.721  0.00  0.00    +0.000 C 
ATOM     56  O   UNK     1      72.189  64.962 112.748  0.00  0.00    +0.000 OA
ATOM     57  N   UNK     1      72.149  64.927 110.533  0.00  0.00    +0.000 N 
ATOM     58  H   UNK     1      71.230  64.499 110.628  0.00  0.00    +0.000 HD
BRANCH  55  62
ATOM     59  C   UNK     1      75.563  64.415 113.215  0.00  0.00    +0.000 C 
ATOM     60  N   UNK     1      75.154  65.405 113.889  0.00  0.00    +0.000 NA
ATOM     61  C   UNK     1      74.615  66.467 112.994  0.00  0.00    +0.000 C 
ATOM     62  C   UNK     1      74.194  65.764 111.685  0.00  0.00    +0.000 C 
ATOM     63  S   UNK     1      75.451  64.490 111.755  0.00  0.00    +0.000 S 
BRANCH  59  64
ATOM     64  C   UNK     1      76.010  63.167 113.941  0.00  0.00    +0.000 C 
BRANCH  64  65
ATOM     65  N   UNK     1      74.991  62.125 113.721  0.00  0.00    +0.000 NA
ATOM     66  H   UNK     1      75.361  61.198 113.995  0.00  0.00    +0.000 HD
ATOM     67  H   UNK     1      74.172  62.260 114.339  0.00  0.00    +0.000 HD
ENDBRANCH  64  65
BRANCH  64  68
ATOM     68  C   UNK     1      77.429  62.699 113.555  0.00  0.00    +0.000 C 
ATOM     69  C   UNK     1      78.251  62.417 114.830  0.00  0.00    +0.000 C 
BRANCH  68  71
ATOM     70  C   UNK     1      78.200  61.641 111.316  0.00  0.00    +0.000 C 
ATOM     71  C   UNK     1      77.443  61.455 112.640  0.00  0.00    +0.000 C 
ENDBRANCH  68  71
ENDBRANCH  64  68
ENDBRANCH  59  64
ENDBRANCH  55  62
ENDBRANCH  54  57
BRANCH  54  72
ATOM     72  C   UNK     1      71.643  65.564 108.200  0.00  0.00    +0.000 C 
BRANCH  72  73
ATOM     73  C   UNK     1      72.034  66.812 107.382  0.00  0.00    +0.000 C 
ATOM     74  C   UNK     1      73.119  67.651 108.075  0.00  0.00    +0.000 C 
ATOM     75  C   UNK     1      72.518  66.387 105.983  0.00  0.00    +0.000 C 
ENDBRANCH  72  73
ENDBRANCH  54  72
ENDBRANCH  50  54
ENDBRANCH  49  52
BRANCH  49  76
ATOM     76  C   UNK     1      76.492  63.329 106.757  0.00  0.00    +0.000 C 
BRANCH  76  77
ATOM     77  C   UNK     1      76.994  62.516 105.551  0.00  0.00    +0.000 C 
BRANCH  77  78
ATOM     78  C   UNK     1      78.370  62.920 105.048  0.00  0.00    +0.000 C 
ATOM     79  O   UNK     1      79.218  63.259 105.904  0.00  0.00    +0.000 OA
ATOM     80  O   UNK     1      78.592  62.879 103.820  0.00  0.00    +0.000 OA
ENDBRANCH  77  78
ENDBRANCH  76  77
ENDBRANCH  49  76
ENDBRANCH  45  49
ENDBRANCH  44  47
BRANCH  44  81
ATOM     81  C   UNK     1      72.477  58.810 106.328  0.00  0.00    +0.000 C 
ATOM     82  C   UNK     1      73.058  57.385 106.406  0.00  0.00    +0.000 C 
BRANCH  81  83
ATOM     83  C   UNK     1      72.048  59.242 107.747  0.00  0.00    +0.000 C 
ATOM     84  C   UNK     1      72.750  58.490 108.882  0.00  0.00    +0.000 C 
ENDBRANCH  81  83
ENDBRANCH  44  81
ENDBRANCH  40  44
ENDBRANCH   1  42
BRANCH  25  85
ATOM     85  C   UNK     1      71.358  53.642 104.145  0.00  0.00    +0.000 C 
ATOM     86  C   UNK     1      70.204  52.687 103.788  0.00  0.00    +0.000 C 
BRANCH  85  87
ATOM     87  C   UNK     1      70.880  54.916 104.866  0.00  0.00    +0.000 C 
ATOM     88  C   UNK     1      70.125  54.652 106.175  0.00  0.00    +0.000 C 
ENDBRANCH  85  87
ENDBRANCH  25  85
BRANCH   9  89
ATOM     89  C   UNK     1      71.560  63.134 103.384  0.00  0.00    +0.000 C 
BRANCH  89  90
ATOM     90  C   UNK     1      70.686  62.136 104.128  0.00  0.00    +0.000 C 
ATOM     91  N   UNK     1      69.678  62.692 104.848  0.00  0.00    +0.000 N 
ATOM     92  O   UNK     1      70.833  60.942 104.099  0.00  0.00    +0.000 OA
ATOM     93  H   UNK     1      69.087  62.080 105.391  0.00  0.00    +0.000 HD
ATOM     94  H   UNK     1      69.437  63.667 104.726  0.00  0.00    +0.000 HD
ENDBRANCH  89  90
ENDBRANCH   9  89
BRANCH  13  95
ATOM     95  C   UNK     1      68.053  60.335  99.802  0.00  0.00    +0.000 C 
BRANCH  95  96
ATOM     96  C   UNK     1      67.996  60.261  98.285  0.00  0.00    +0.000 C 
ATOM     97  O   UNK     1      67.740  59.153  97.760  0.00  0.00    +0.000 OA
ATOM     98  O   UNK     1      68.186  61.319  97.647  0.00  0.00    +0.000 OA
ENDBRANCH  95  96
ENDBRANCH  13  95
BRANCH  17  99
ATOM     99  C   UNK     1      71.317  58.038  97.206  0.00  0.00    +0.000 C 
BRANCH  99 100
ATOM    100  C   UNK     1      71.072  59.033  96.110  0.00  0.00    +0.000 A 
ATOM    101  C   UNK     1      71.703  60.198  95.903  0.00  0.00    +0.000 A 
ATOM    102  N   UNK     1      71.155  60.696  94.875  0.00  0.00    +0.000 N 
ATOM    103  C   UNK     1      70.257  59.891  94.488  0.00  0.00    +0.000 A 
ATOM    104  N   UNK     1      70.184  58.864  95.222  0.00  0.00    +0.000 NA
ATOM    105  H   UNK     1      71.399  61.609  94.428  0.00  0.00    +0.000 HD
ENDBRANCH  99 100
ENDBRANCH  17  99
BRANCH  21 106
ATOM    106  C   UNK     1      71.805  54.675  98.578  0.00  0.00    +0.000 C 
BRANCH 106 107
ATOM    107  C   UNK     1      70.302  54.498  98.526  0.00  0.00    +0.000 A 
ATOM    108  C   UNK     1      69.746  53.274  98.486  0.00  0.00    +0.000 A 
ATOM    109  C   UNK     1      68.413  53.122  98.466  0.00  0.00    +0.000 A 
ATOM    110  C   UNK     1      67.615  54.200  98.485  0.00  0.00    +0.000 A 
ATOM    111  C   UNK     1      68.156  55.427  98.519  0.00  0.00    +0.000 A 
ATOM    112  C   UNK     1      69.490  55.571  98.539  0.00  0.00    +0.000 A 
ENDBRANCH 106 107
ENDBRANCH  21 106
BRANCH  29 113
ATOM    113  C   UNK     1      77.089  54.020 103.299  0.00  0.00    +0.000 C 
BRANCH 113 114
ATOM    114  C   UNK     1      76.817  52.837 102.355  0.00  0.00    +0.000 C 
BRANCH 114 115
ATOM    115  C   UNK     1      76.671  53.294 100.895  0.00  0.00    +0.000 C 
BRANCH 115 116
ATOM    116  N   UNK     1      75.252  53.478 100.543  0.00  0.00    +0.000 NA
ATOM    117  H   UNK     1      74.647  53.137 101.310  0.00  0.00    +0.000 HD
ATOM    118  H   UNK     1      75.032  54.485 100.450  0.00  0.00    +0.000 HD
ENDBRANCH 115 116
ENDBRANCH 114 115
ENDBRANCH 113 114
ENDBRANCH  29 113
TORSDOF 33
ENDMDL
MODEL 12
REMARK VINA RESULT:      -6.3      3.442      7.469
REMARK  Name = ./1791.pdb
REMARK  41 active torsions:
REMARK  status: ('A' for Active; 'I' for Inactive)
REMARK    1  A    between atoms: C_1  and  C_2
REMARK    2  A    between atoms: C_2  and  C_3
REMARK    3  A    between atoms: C_3  and  C_4
REMARK    4  A    between atoms: C_3  and  C_5
REMARK    5  A    between atoms: C_5  and  N_6
REMARK    6  A    between atoms: C_5  and  C_7
REMARK    7  A    between atoms: C_10  and  C_12
REMARK    8  A    between atoms: N_14  and  C_15
REMARK    9  A    between atoms: C_15  and  C_16
REMARK   10  A    between atoms: C_15  and  C_20
REMARK   11  A    between atoms: C_16  and  C_17
REMARK   12  A    between atoms: C_17  and  C_18
REMARK   13  A    between atoms: C_17  and  C_19
REMARK   14  A    between atoms: N_22  and  C_23
REMARK   15  A    between atoms: C_23  and  C_24
REMARK   16  A    between atoms: C_23  and  C_29
REMARK   17  A    between atoms: C_24  and  C_25
REMARK   18  A    between atoms: C_25  and  C_26
REMARK   19  A    between atoms: N_31  and  C_32
REMARK   20  A    between atoms: C_32  and  C_33
REMARK   21  A    between atoms: C_32  and  C_37
REMARK   22  A    between atoms: C_33  and  C_34
REMARK   23  A    between atoms: C_33  and  C_35
REMARK   24  A    between atoms: C_35  and  C_36
REMARK   25  A    between atoms: N_39  and  C_40
REMARK   26  A    between atoms: C_48  and  C_49
REMARK   27  A    between atoms: C_49  and  C_50
REMARK   28  A    between atoms: C_56  and  C_57
REMARK   29  A    between atoms: C_57  and  C_58
REMARK   30  A    between atoms: C_64  and  C_65
REMARK   31  A    between atoms: C_65  and  C_66
REMARK   32  A    between atoms: C_74  and  C_75
REMARK   33  A    between atoms: C_75  and  C_76
REMARK   34  A    between atoms: C_85  and  C_97
REMARK   35  A    between atoms: C_89  and  C_90
REMARK   36  A    between atoms: C_90  and  C_91
REMARK   37  A    between atoms: C_91  and  C_92
REMARK   38  A    between atoms: C_92  and  N_93
REMARK   39  A    between atoms: C_97  and  C_98
REMARK   40  A    between atoms: C_97  and  C_99
REMARK   41  A    between atoms: C_99  and  C_100
REMARK                            x       y       z     vdW  Elec       q    Type
REMARK                         _______ _______ _______ _____ _____    ______ ____
ROOT
ATOM      1  C   UNK     1      78.125  68.039 103.898  0.00  0.00    +0.000 C 
ATOM      2  C   UNK     1      76.873  68.052 103.001  0.00  0.00    +0.000 C 
ATOM      3  C   UNK     1      76.252  69.464 102.952  0.00  0.00    +0.000 C 
ATOM      4  C   UNK     1      74.735  69.480 102.675  0.00  0.00    +0.000 C 
ATOM      5  C   UNK     1      73.959  70.518 103.515  0.00  0.00    +0.000 C 
ATOM      6  N   UNK     1      73.307  69.985 104.719  0.00  0.00    +0.000 N 
ATOM      7  C   UNK     1      73.881  69.089 105.573  0.00  0.00    +0.000 C 
ATOM      8  O   UNK     1      75.021  68.714 105.515  0.00  0.00    +0.000 OA
ATOM      9  C   UNK     1      72.963  68.559 106.665  0.00  0.00    +0.000 C 
ATOM     10  N   UNK     1      73.239  67.122 106.746  0.00  0.00    +0.000 N 
ATOM     11  C   UNK     1      72.376  66.227 107.307  0.00  0.00    +0.000 C 
ATOM     12  O   UNK     1      71.406  66.587 107.927  0.00  0.00    +0.000 OA
ATOM     13  C   UNK     1      72.735  64.769 107.037  0.00  0.00    +0.000 C 
ATOM     14  N   UNK     1      72.783  64.520 105.587  0.00  0.00    +0.000 N 
ATOM     15  C   UNK     1      73.882  64.746 104.807  0.00  0.00    +0.000 C 
ATOM     16  O   UNK     1      74.875  65.295 105.212  0.00  0.00    +0.000 OA
ATOM     17  C   UNK     1      73.730  64.254 103.372  0.00  0.00    +0.000 C 
ATOM     18  N   UNK     1      74.912  64.459 102.523  0.00  0.00    +0.000 N 
ATOM     19  C   UNK     1      76.124  63.827 102.585  0.00  0.00    +0.000 C 
ATOM     20  O   UNK     1      76.935  64.010 101.712  0.00  0.00    +0.000 OA
ATOM     21  C   UNK     1      76.435  62.896 103.759  0.00  0.00    +0.000 C 
ATOM     22  N   UNK     1      77.776  63.262 104.239  0.00  0.00    +0.000 N 
ATOM     23  C   UNK     1      78.243  62.959 105.491  0.00  0.00    +0.000 C 
ATOM     24  O   UNK     1      77.540  62.520 106.366  0.00  0.00    +0.000 OA
ATOM     25  C   UNK     1      79.746  63.187 105.668  0.00  0.00    +0.000 C 
ATOM     26  N   UNK     1      80.094  64.485 105.086  0.00  0.00    +0.000 N 
ATOM     27  C   UNK     1      81.319  64.762 104.549  0.00  0.00    +0.000 C 
ATOM     28  O   UNK     1      82.237  63.980 104.579  0.00  0.00    +0.000 OA
ATOM     29  C   UNK     1      81.446  66.146 103.909  0.00  0.00    +0.000 C 
ATOM     30  N   UNK     1      80.321  67.057 104.182  0.00  0.00    +0.000 N 
ATOM     31  C   UNK     1      79.052  66.845 103.716  0.00  0.00    +0.000 C 
ATOM     32  O   UNK     1      78.710  65.805 103.213  0.00  0.00    +0.000 OA
ATOM     33  H   UNK     1      72.412  70.388 105.009  0.00  0.00    +0.000 HD
ATOM     34  H   UNK     1      74.118  66.804 106.335  0.00  0.00    +0.000 HD
ATOM     35  H   UNK     1      71.942  64.156 105.139  0.00  0.00    +0.000 HD
ATOM     36  H   UNK     1      74.813  65.071 101.713  0.00  0.00    +0.000 HD
ATOM     37  H   UNK     1      78.389  63.725 103.560  0.00  0.00    +0.000 HD
ATOM     38  H   UNK     1      79.370  65.201 105.054  0.00  0.00    +0.000 HD
ATOM     39  H   UNK     1      80.518  67.942 104.650  0.00  0.00    +0.000 HD
ENDROOT
BRANCH   1  42
ATOM     40  C   UNK     1      78.517  68.740 106.252  0.00  0.00    +0.000 C 
ATOM     41  O   UNK     1      79.629  69.149 106.027  0.00  0.00    +0.000 OA
ATOM     42  N   UNK     1      77.725  68.162 105.307  0.00  0.00    +0.000 N 
ATOM     43  H   UNK     1      76.812  67.796 105.579  0.00  0.00    +0.000 HD
BRANCH  40  44
ATOM     44  C   UNK     1      77.898  68.891 107.641  0.00  0.00    +0.000 C 
BRANCH  44  47
ATOM     45  C   UNK     1      76.303  67.420 108.877  0.00  0.00    +0.000 C 
ATOM     46  O   UNK     1      76.221  68.123 109.854  0.00  0.00    +0.000 OA
ATOM     47  N   UNK     1      76.978  67.750 107.739  0.00  0.00    +0.000 N 
ATOM     48  H   UNK     1      76.991  67.097 106.955  0.00  0.00    +0.000 HD
BRANCH  45  49
ATOM     49  C   UNK     1      75.640  66.045 108.866  0.00  0.00    +0.000 C 
BRANCH  49  52
ATOM     50  C   UNK     1      74.242  65.912 110.940  0.00  0.00    +0.000 C 
ATOM     51  O   UNK     1      73.286  66.471 110.461  0.00  0.00    +0.000 OA
ATOM     52  N   UNK     1      75.412  65.705 110.272  0.00  0.00    +0.000 N 
ATOM     53  H   UNK     1      76.204  65.293 110.771  0.00  0.00    +0.000 HD
BRANCH  50  54
ATOM     54  C   UNK     1      74.238  65.344 112.361  0.00  0.00    +0.000 C 
BRANCH  54  57
ATOM     55  C   UNK     1      74.804  62.943 112.961  0.00  0.00    +0.000 C 
ATOM     56  O   UNK     1      74.540  61.780 112.791  0.00  0.00    +0.000 OA
ATOM     57  N   UNK     1      74.038  63.889 112.335  0.00  0.00    +0.000 N 
ATOM     58  H   UNK     1      73.326  63.510 111.713  0.00  0.00    +0.000 HD
BRANCH  55  62
ATOM     59  C   UNK     1      77.168  61.405 114.582  0.00  0.00    +0.000 C 
ATOM     60  N   UNK     1      76.323  61.647 115.492  0.00  0.00    +0.000 NA
ATOM     61  C   UNK     1      75.771  63.023 115.348  0.00  0.00    +0.000 C 
ATOM     62  C   UNK     1      75.947  63.412 113.863  0.00  0.00    +0.000 C 
ATOM     63  S   UNK     1      77.446  62.466 113.609  0.00  0.00    +0.000 S 
BRANCH  59  64
ATOM     64  C   UNK     1      77.736  60.010 114.459  0.00  0.00    +0.000 C 
BRANCH  64  65
ATOM     65  N   UNK     1      78.605  59.977 113.269  0.00  0.00    +0.000 NA
ATOM     66  H   UNK     1      79.002  59.030 113.142  0.00  0.00    +0.000 HD
ATOM     67  H   UNK     1      78.065  60.141 112.402  0.00  0.00    +0.000 HD
ENDBRANCH  64  65
BRANCH  64  68
ATOM     68  C   UNK     1      78.455  59.517 115.732  0.00  0.00    +0.000 C 
ATOM     69  C   UNK     1      77.749  58.259 116.279  0.00  0.00    +0.000 C 
BRANCH  68  71
ATOM     70  C   UNK     1      80.906  60.101 116.349  0.00  0.00    +0.000 C 
ATOM     71  C   UNK     1      79.956  59.223 115.520  0.00  0.00    +0.000 C 
ENDBRANCH  68  71
ENDBRANCH  64  68
ENDBRANCH  59  64
ENDBRANCH  55  62
ENDBRANCH  54  57
BRANCH  54  72
ATOM     72  C   UNK     1      73.145  66.020 113.211  0.00  0.00    +0.000 C 
BRANCH  72  73
ATOM     73  C   UNK     1      73.663  66.825 114.421  0.00  0.00    +0.000 C 
ATOM     74  C   UNK     1      73.605  66.019 115.729  0.00  0.00    +0.000 C 
ATOM     75  C   UNK     1      75.107  67.290 114.158  0.00  0.00    +0.000 C 
ENDBRANCH  72  73
ENDBRANCH  54  72
ENDBRANCH  50  54
ENDBRANCH  49  52
BRANCH  49  76
ATOM     76  C   UNK     1      76.498  64.957 108.198  0.00  0.00    +0.000 C 
BRANCH  76  77
ATOM     77  C   UNK     1      75.998  63.530 108.487  0.00  0.00    +0.000 C 
BRANCH  77  78
ATOM     78  C   UNK     1      76.687  62.846 109.656  0.00  0.00    +0.000 C 
ATOM     79  O   UNK     1      77.581  63.488 110.252  0.00  0.00    +0.000 OA
ATOM     80  O   UNK     1      76.320  61.695 109.975  0.00  0.00    +0.000 OA
ENDBRANCH  77  78
ENDBRANCH  76  77
ENDBRANCH  49  76
ENDBRANCH  45  49
ENDBRANCH  44  47
BRANCH  44  81
ATOM     81  C   UNK     1      77.174  70.249 107.797  0.00  0.00    +0.000 C 
ATOM     82  C   UNK     1      77.761  71.096 108.943  0.00  0.00    +0.000 C 
BRANCH  81  83
ATOM     83  C   UNK     1      77.191  71.094 106.505  0.00  0.00    +0.000 C 
ATOM     84  C   UNK     1      77.944  72.424 106.623  0.00  0.00    +0.000 C 
ENDBRANCH  81  83
ENDBRANCH  44  81
ENDBRANCH  40  44
ENDBRANCH   1  42
BRANCH  25  85
ATOM     85  C   UNK     1      80.337  63.008 107.087  0.00  0.00    +0.000 C 
ATOM     86  C   UNK     1      80.300  64.308 107.910  0.00  0.00    +0.000 C 
BRANCH  85  87
ATOM     87  C   UNK     1      81.728  62.349 107.067  0.00  0.00    +0.000 C 
ATOM     88  C   UNK     1      81.785  61.021 106.302  0.00  0.00    +0.000 C 
ENDBRANCH  85  87
ENDBRANCH  25  85
BRANCH   9  89
ATOM     89  C   UNK     1      73.254  69.313 107.970  0.00  0.00    +0.000 C 
BRANCH  89  90
ATOM     90  C   UNK     1      72.466  70.611 108.059  0.00  0.00    +0.000 C 
ATOM     91  N   UNK     1      73.213  71.737 107.937  0.00  0.00    +0.000 N 
ATOM     92  O   UNK     1      71.274  70.679 108.211  0.00  0.00    +0.000 OA
ATOM     93  H   UNK     1      72.749  72.629 108.023  0.00  0.00    +0.000 HD
ATOM     94  H   UNK     1      74.174  71.684 107.624  0.00  0.00    +0.000 HD
ENDBRANCH  89  90
ENDBRANCH   9  89
BRANCH  13  95
ATOM     95  C   UNK     1      71.757  63.777 107.701  0.00  0.00    +0.000 C 
BRANCH  95  96
ATOM     96  C   UNK     1      72.121  62.313 107.510  0.00  0.00    +0.000 C 
ATOM     97  O   UNK     1      72.787  61.752 108.409  0.00  0.00    +0.000 OA
ATOM     98  O   UNK     1      71.713  61.747 106.473  0.00  0.00    +0.000 OA
ENDBRANCH  95  96
ENDBRANCH  13  95
BRANCH  17  99
ATOM     99  C   UNK     1      73.089  62.862 103.222  0.00  0.00    +0.000 C 
BRANCH  99 100
ATOM    100  C   UNK     1      71.742  62.894 102.562  0.00  0.00    +0.000 A 
ATOM    101  C   UNK     1      70.539  62.921 103.154  0.00  0.00    +0.000 A 
ATOM    102  N   UNK     1      69.701  62.930 102.204  0.00  0.00    +0.000 N 
ATOM    103  C   UNK     1      70.350  62.907 101.116  0.00  0.00    +0.000 A 
ATOM    104  N   UNK     1      71.600  62.887 101.304  0.00  0.00    +0.000 NA
ATOM    105  H   UNK     1      68.660  62.949 102.302  0.00  0.00    +0.000 HD
ENDBRANCH  99 100
ENDBRANCH  17  99
BRANCH  21 106
ATOM    106  C   UNK     1      76.469  61.445 103.231  0.00  0.00    +0.000 C 
BRANCH 106 107
ATOM    107  C   UNK     1      75.984  60.450 104.265  0.00  0.00    +0.000 A 
ATOM    108  C   UNK     1      75.014  60.773 105.140  0.00  0.00    +0.000 A 
ATOM    109  C   UNK     1      74.569  59.880 106.036  0.00  0.00    +0.000 A 
ATOM    110  C   UNK     1      75.092  58.645 106.070  0.00  0.00    +0.000 A 
ATOM    111  C   UNK     1      76.063  58.311 105.206  0.00  0.00    +0.000 A 
ATOM    112  C   UNK     1      76.504  59.210 104.312  0.00  0.00    +0.000 A 
ENDBRANCH 106 107
ENDBRANCH  21 106
BRANCH  29 113
ATOM    113  C   UNK     1      81.765  66.124 102.401  0.00  0.00    +0.000 C 
BRANCH 113 114
ATOM    114  C   UNK     1      81.849  64.727 101.764  0.00  0.00    +0.000 C 
BRANCH 114 115
ATOM    115  C   UNK     1      80.587  64.394 100.953  0.00  0.00    +0.000 C 
BRANCH 115 116
ATOM    116  N   UNK     1      79.756  63.404 101.659  0.00  0.00    +0.000 NA
ATOM    117  H   UNK     1      78.757  63.551 101.435  0.00  0.00    +0.000 HD
ATOM    118  H   UNK     1      79.973  62.449 101.327  0.00  0.00    +0.000 HD
ENDBRANCH 115 116
ENDBRANCH 114 115
ENDBRANCH 113 114
ENDBRANCH  29 113
TORSDOF 33
ENDMDL
MODEL 13
REMARK VINA RESULT:      -6.3      3.432      9.288
REMARK  Name = ./1791.pdb
REMARK  41 active torsions:
REMARK  status: ('A' for Active; 'I' for Inactive)
REMARK    1  A    between atoms: C_1  and  C_2
REMARK    2  A    between atoms: C_2  and  C_3
REMARK    3  A    between atoms: C_3  and  C_4
REMARK    4  A    between atoms: C_3  and  C_5
REMARK    5  A    between atoms: C_5  and  N_6
REMARK    6  A    between atoms: C_5  and  C_7
REMARK    7  A    between atoms: C_10  and  C_12
REMARK    8  A    between atoms: N_14  and  C_15
REMARK    9  A    between atoms: C_15  and  C_16
REMARK   10  A    between atoms: C_15  and  C_20
REMARK   11  A    between atoms: C_16  and  C_17
REMARK   12  A    between atoms: C_17  and  C_18
REMARK   13  A    between atoms: C_17  and  C_19
REMARK   14  A    between atoms: N_22  and  C_23
REMARK   15  A    between atoms: C_23  and  C_24
REMARK   16  A    between atoms: C_23  and  C_29
REMARK   17  A    between atoms: C_24  and  C_25
REMARK   18  A    between atoms: C_25  and  C_26
REMARK   19  A    between atoms: N_31  and  C_32
REMARK   20  A    between atoms: C_32  and  C_33
REMARK   21  A    between atoms: C_32  and  C_37
REMARK   22  A    between atoms: C_33  and  C_34
REMARK   23  A    between atoms: C_33  and  C_35
REMARK   24  A    between atoms: C_35  and  C_36
REMARK   25  A    between atoms: N_39  and  C_40
REMARK   26  A    between atoms: C_48  and  C_49
REMARK   27  A    between atoms: C_49  and  C_50
REMARK   28  A    between atoms: C_56  and  C_57
REMARK   29  A    between atoms: C_57  and  C_58
REMARK   30  A    between atoms: C_64  and  C_65
REMARK   31  A    between atoms: C_65  and  C_66
REMARK   32  A    between atoms: C_74  and  C_75
REMARK   33  A    between atoms: C_75  and  C_76
REMARK   34  A    between atoms: C_85  and  C_97
REMARK   35  A    between atoms: C_89  and  C_90
REMARK   36  A    between atoms: C_90  and  C_91
REMARK   37  A    between atoms: C_91  and  C_92
REMARK   38  A    between atoms: C_92  and  N_93
REMARK   39  A    between atoms: C_97  and  C_98
REMARK   40  A    between atoms: C_97  and  C_99
REMARK   41  A    between atoms: C_99  and  C_100
REMARK                            x       y       z     vdW  Elec       q    Type
REMARK                         _______ _______ _______ _____ _____    ______ ____
ROOT
ATOM      1  C   UNK     1      77.966  67.377 105.278  0.00  0.00    +0.000 C 
ATOM      2  C   UNK     1      78.745  68.598 104.753  0.00  0.00    +0.000 C 
ATOM      3  C   UNK     1      78.366  69.869 105.544  0.00  0.00    +0.000 C 
ATOM      4  C   UNK     1      78.532  71.181 104.752  0.00  0.00    +0.000 C 
ATOM      5  C   UNK     1      77.394  72.198 104.983  0.00  0.00    +0.000 C 
ATOM      6  N   UNK     1      76.344  72.204 103.955  0.00  0.00    +0.000 N 
ATOM      7  C   UNK     1      75.806  71.081 103.397  0.00  0.00    +0.000 C 
ATOM      8  O   UNK     1      76.036  69.956 103.752  0.00  0.00    +0.000 OA
ATOM      9  C   UNK     1      74.847  71.331 102.241  0.00  0.00    +0.000 C 
ATOM     10  N   UNK     1      75.182  70.325 101.229  0.00  0.00    +0.000 N 
ATOM     11  C   UNK     1      74.836  70.445  99.915  0.00  0.00    +0.000 C 
ATOM     12  O   UNK     1      74.081  71.306  99.536  0.00  0.00    +0.000 OA
ATOM     13  C   UNK     1      75.517  69.431  99.002  0.00  0.00    +0.000 C 
ATOM     14  N   UNK     1      76.980  69.557  99.109  0.00  0.00    +0.000 N 
ATOM     15  C   UNK     1      77.735  68.934 100.063  0.00  0.00    +0.000 C 
ATOM     16  O   UNK     1      77.257  68.325 100.986  0.00  0.00    +0.000 OA
ATOM     17  C   UNK     1      79.238  69.091  99.859  0.00  0.00    +0.000 C 
ATOM     18  N   UNK     1      80.069  68.403 100.855  0.00  0.00    +0.000 N 
ATOM     19  C   UNK     1      80.259  67.058 101.023  0.00  0.00    +0.000 C 
ATOM     20  O   UNK     1      81.097  66.668 101.796  0.00  0.00    +0.000 OA
ATOM     21  C   UNK     1      79.408  66.068 100.224  0.00  0.00    +0.000 C 
ATOM     22  N   UNK     1      78.930  65.060 101.184  0.00  0.00    +0.000 N 
ATOM     23  C   UNK     1      77.840  64.258 100.964  0.00  0.00    +0.000 C 
ATOM     24  O   UNK     1      77.078  64.424 100.045  0.00  0.00    +0.000 OA
ATOM     25  C   UNK     1      77.702  63.107 101.962  0.00  0.00    +0.000 C 
ATOM     26  N   UNK     1      77.925  63.629 103.312  0.00  0.00    +0.000 N 
ATOM     27  C   UNK     1      78.441  62.879 104.331  0.00  0.00    +0.000 C 
ATOM     28  O   UNK     1      78.684  61.703 104.216  0.00  0.00    +0.000 OA
ATOM     29  C   UNK     1      78.682  63.640 105.636  0.00  0.00    +0.000 C 
ATOM     30  N   UNK     1      78.100  64.992 105.677  0.00  0.00    +0.000 N 
ATOM     31  C   UNK     1      78.527  66.020 104.880  0.00  0.00    +0.000 C 
ATOM     32  O   UNK     1      79.273  65.852 103.949  0.00  0.00    +0.000 OA
ATOM     33  H   UNK     1      75.899  73.094 103.716  0.00  0.00    +0.000 HD
ATOM     34  H   UNK     1      75.718  69.517 101.551  0.00  0.00    +0.000 HD
ATOM     35  H   UNK     1      77.457  70.148  98.428  0.00  0.00    +0.000 HD
ATOM     36  H   UNK     1      80.672  68.975 101.446  0.00  0.00    +0.000 HD
ATOM     37  H   UNK     1      79.493  64.941 102.033  0.00  0.00    +0.000 HD
ATOM     38  H   UNK     1      77.714  64.611 103.483  0.00  0.00    +0.000 HD
ATOM     39  H   UNK     1      77.420  65.204 106.408  0.00  0.00    +0.000 HD
ENDROOT
BRANCH   1  42
ATOM     40  C   UNK     1      75.530  67.077 105.677  0.00  0.00    +0.000 C 
ATOM     41  O   UNK     1      75.691  66.549 106.749  0.00  0.00    +0.000 OA
ATOM     42  N   UNK     1      76.556  67.483 104.878  0.00  0.00    +0.000 N 
ATOM     43  H   UNK     1      76.345  67.879 103.962  0.00  0.00    +0.000 HD
BRANCH  40  44
ATOM     44  C   UNK     1      74.122  67.367 105.155  0.00  0.00    +0.000 C 
BRANCH  44  47
ATOM     45  C   UNK     1      73.097  69.005 106.735  0.00  0.00    +0.000 C 
ATOM     46  O   UNK     1      73.260  69.971 106.032  0.00  0.00    +0.000 OA
ATOM     47  N   UNK     1      73.367  67.721 106.363  0.00  0.00    +0.000 N 
ATOM     48  H   UNK     1      73.193  66.960 107.021  0.00  0.00    +0.000 HD
BRANCH  45  49
ATOM     49  C   UNK     1      72.571  69.174 108.158  0.00  0.00    +0.000 C 
BRANCH  49  52
ATOM     50  C   UNK     1      74.097  68.112 109.836  0.00  0.00    +0.000 C 
ATOM     51  O   UNK     1      74.709  69.123 110.078  0.00  0.00    +0.000 OA
ATOM     52  N   UNK     1      73.098  68.034 108.912  0.00  0.00    +0.000 N 
ATOM     53  H   UNK     1      72.678  67.125 108.707  0.00  0.00    +0.000 HD
BRANCH  50  54
ATOM     54  C   UNK     1      74.360  66.793 110.566  0.00  0.00    +0.000 C 
BRANCH  54  57
ATOM     55  C   UNK     1      73.213  64.607 109.971  0.00  0.00    +0.000 C 
ATOM     56  O   UNK     1      72.166  64.020 109.876  0.00  0.00    +0.000 OA
ATOM     57  N   UNK     1      73.206  65.893 110.440  0.00  0.00    +0.000 N 
ATOM     58  H   UNK     1      72.276  66.271 110.617  0.00  0.00    +0.000 HD
BRANCH  55  62
ATOM     59  C   UNK     1      74.083  61.717 108.757  0.00  0.00    +0.000 C 
ATOM     60  N   UNK     1      74.328  61.582 109.991  0.00  0.00    +0.000 NA
ATOM     61  C   UNK     1      74.969  62.810 110.540  0.00  0.00    +0.000 C 
ATOM     62  C   UNK     1      74.557  63.972 109.610  0.00  0.00    +0.000 C 
ATOM     63  S   UNK     1      74.463  62.982 108.120  0.00  0.00    +0.000 S 
BRANCH  59  64
ATOM     64  C   UNK     1      73.297  60.643 108.042  0.00  0.00    +0.000 C 
BRANCH  64  65
ATOM     65  N   UNK     1      72.147  61.286 107.380  0.00  0.00    +0.000 NA
ATOM     66  H   UNK     1      72.150  62.304 107.565  0.00  0.00    +0.000 HD
ATOM     67  H   UNK     1      72.218  61.217 106.350  0.00  0.00    +0.000 HD
ENDBRANCH  64  65
BRANCH  64  68
ATOM     68  C   UNK     1      74.144  59.797 107.069  0.00  0.00    +0.000 C 
ATOM     69  C   UNK     1      73.907  58.296 107.337  0.00  0.00    +0.000 C 
BRANCH  68  71
ATOM     70  C   UNK     1      73.267  58.946 104.781  0.00  0.00    +0.000 C 
ATOM     71  C   UNK     1      73.874  60.109 105.581  0.00  0.00    +0.000 C 
ENDBRANCH  68  71
ENDBRANCH  64  68
ENDBRANCH  59  64
ENDBRANCH  55  62
ENDBRANCH  54  57
BRANCH  54  72
ATOM     72  C   UNK     1      74.679  67.050 112.051  0.00  0.00    +0.000 C 
BRANCH  72  73
ATOM     73  C   UNK     1      74.038  66.056 113.040  0.00  0.00    +0.000 C 
ATOM     74  C   UNK     1      75.035  64.995 113.535  0.00  0.00    +0.000 C 
ATOM     75  C   UNK     1      73.451  66.820 114.241  0.00  0.00    +0.000 C 
ENDBRANCH  72  73
ENDBRANCH  54  72
ENDBRANCH  50  54
ENDBRANCH  49  52
BRANCH  49  76
ATOM     76  C   UNK     1      71.034  69.192 108.246  0.00  0.00    +0.000 C 
BRANCH  76  77
ATOM     77  C   UNK     1      70.371  68.039 107.472  0.00  0.00    +0.000 C 
BRANCH  77  78
ATOM     78  C   UNK     1      70.301  66.727 108.235  0.00  0.00    +0.000 C 
ATOM     79  O   UNK     1      70.294  66.789 109.485  0.00  0.00    +0.000 OA
ATOM     80  O   UNK     1      70.237  65.661 107.586  0.00  0.00    +0.000 OA
ENDBRANCH  77  78
ENDBRANCH  76  77
ENDBRANCH  49  76
ENDBRANCH  45  49
ENDBRANCH  44  47
BRANCH  44  81
ATOM     81  C   UNK     1      73.525  66.144 104.421  0.00  0.00    +0.000 C 
ATOM     82  C   UNK     1      74.572  65.408 103.562  0.00  0.00    +0.000 C 
BRANCH  81  83
ATOM     83  C   UNK     1      72.873  65.124 105.379  0.00  0.00    +0.000 C 
ATOM     84  C   UNK     1      72.468  63.800 104.722  0.00  0.00    +0.000 C 
ENDBRANCH  81  83
ENDBRANCH  44  81
ENDBRANCH  40  44
ENDBRANCH   1  42
BRANCH  25  85
ATOM     85  C   UNK     1      76.427  62.235 101.879  0.00  0.00    +0.000 C 
ATOM     86  C   UNK     1      75.546  62.355 103.136  0.00  0.00    +0.000 C 
BRANCH  85  87
ATOM     87  C   UNK     1      76.734  60.775 101.499  0.00  0.00    +0.000 C 
ATOM     88  C   UNK     1      78.127  60.563 100.892  0.00  0.00    +0.000 C 
ENDBRANCH  85  87
ENDBRANCH  25  85
BRANCH   9  89
ATOM     89  C   UNK     1      73.406  71.224 102.759  0.00  0.00    +0.000 C 
BRANCH  89  90
ATOM     90  C   UNK     1      72.596  72.470 102.433  0.00  0.00    +0.000 C 
ATOM     91  N   UNK     1      73.249  73.388 101.676  0.00  0.00    +0.000 N 
ATOM     92  O   UNK     1      71.462  72.661 102.787  0.00  0.00    +0.000 OA
ATOM     93  H   UNK     1      72.774  74.251 101.459  0.00  0.00    +0.000 HD
ATOM     94  H   UNK     1      74.123  73.153 101.225  0.00  0.00    +0.000 HD
ENDBRANCH  89  90
ENDBRANCH   9  89
BRANCH  13  95
ATOM     95  C   UNK     1      75.093  69.573  97.525  0.00  0.00    +0.000 C 
BRANCH  95  96
ATOM     96  C   UNK     1      74.233  68.431  97.006  0.00  0.00    +0.000 C 
ATOM     97  O   UNK     1      74.195  68.240  95.769  0.00  0.00    +0.000 OA
ATOM     98  O   UNK     1      73.629  67.733  97.849  0.00  0.00    +0.000 OA
ENDBRANCH  95  96
ENDBRANCH  13  95
BRANCH  17  99
ATOM     99  C   UNK     1      79.724  68.911  98.409  0.00  0.00    +0.000 C 
BRANCH  99 100
ATOM    100  C   UNK     1      79.469  70.108  97.541  0.00  0.00    +0.000 A 
ATOM    101  C   UNK     1      79.782  71.387  97.795  0.00  0.00    +0.000 A 
ATOM    102  N   UNK     1      79.367  72.037  96.790  0.00  0.00    +0.000 N 
ATOM    103  C   UNK     1      78.839  71.212  95.988  0.00  0.00    +0.000 A 
ATOM    104  N   UNK     1      78.889  70.024  96.419  0.00  0.00    +0.000 NA
ATOM    105  H   UNK     1      79.443  73.071  96.651  0.00  0.00    +0.000 HD
ENDBRANCH  99 100
ENDBRANCH  17  99
BRANCH  21 106
ATOM    106  C   UNK     1      80.315  65.377  99.182  0.00  0.00    +0.000 C 
BRANCH 106 107
ATOM    107  C   UNK     1      79.910  65.712  97.762  0.00  0.00    +0.000 A 
ATOM    108  C   UNK     1      78.617  65.883  97.429  0.00  0.00    +0.000 A 
ATOM    109  C   UNK     1      78.266  66.205  96.175  0.00  0.00    +0.000 A 
ATOM    110  C   UNK     1      79.207  66.360  95.233  0.00  0.00    +0.000 A 
ATOM    111  C   UNK     1      80.500  66.188  95.550  0.00  0.00    +0.000 A 
ATOM    112  C   UNK     1      80.844  65.866  96.806  0.00  0.00    +0.000 A 
ENDBRANCH 106 107
ENDBRANCH  21 106
BRANCH  29 113
ATOM    113  C   UNK     1      80.155  63.676 106.090  0.00  0.00    +0.000 C 
BRANCH 113 114
ATOM    114  C   UNK     1      80.440  63.035 107.459  0.00  0.00    +0.000 C 
BRANCH 114 115
ATOM    115  C   UNK     1      79.799  63.833 108.605  0.00  0.00    +0.000 C 
BRANCH 115 116
ATOM    116  N   UNK     1      80.388  63.453 109.901  0.00  0.00    +0.000 NA
ATOM    117  H   UNK     1      79.644  63.322 110.607  0.00  0.00    +0.000 HD
ATOM    118  H   UNK     1      80.859  62.535 109.828  0.00  0.00    +0.000 HD
ENDBRANCH 115 116
ENDBRANCH 114 115
ENDBRANCH 113 114
ENDBRANCH  29 113
TORSDOF 33
ENDMDL
MODEL 14
REMARK VINA RESULT:      -6.2      3.602     10.497
REMARK  Name = ./1791.pdb
REMARK  41 active torsions:
REMARK  status: ('A' for Active; 'I' for Inactive)
REMARK    1  A    between atoms: C_1  and  C_2
REMARK    2  A    between atoms: C_2  and  C_3
REMARK    3  A    between atoms: C_3  and  C_4
REMARK    4  A    between atoms: C_3  and  C_5
REMARK    5  A    between atoms: C_5  and  N_6
REMARK    6  A    between atoms: C_5  and  C_7
REMARK    7  A    between atoms: C_10  and  C_12
REMARK    8  A    between atoms: N_14  and  C_15
REMARK    9  A    between atoms: C_15  and  C_16
REMARK   10  A    between atoms: C_15  and  C_20
REMARK   11  A    between atoms: C_16  and  C_17
REMARK   12  A    between atoms: C_17  and  C_18
REMARK   13  A    between atoms: C_17  and  C_19
REMARK   14  A    between atoms: N_22  and  C_23
REMARK   15  A    between atoms: C_23  and  C_24
REMARK   16  A    between atoms: C_23  and  C_29
REMARK   17  A    between atoms: C_24  and  C_25
REMARK   18  A    between atoms: C_25  and  C_26
REMARK   19  A    between atoms: N_31  and  C_32
REMARK   20  A    between atoms: C_32  and  C_33
REMARK   21  A    between atoms: C_32  and  C_37
REMARK   22  A    between atoms: C_33  and  C_34
REMARK   23  A    between atoms: C_33  and  C_35
REMARK   24  A    between atoms: C_35  and  C_36
REMARK   25  A    between atoms: N_39  and  C_40
REMARK   26  A    between atoms: C_48  and  C_49
REMARK   27  A    between atoms: C_49  and  C_50
REMARK   28  A    between atoms: C_56  and  C_57
REMARK   29  A    between atoms: C_57  and  C_58
REMARK   30  A    between atoms: C_64  and  C_65
REMARK   31  A    between atoms: C_65  and  C_66
REMARK   32  A    between atoms: C_74  and  C_75
REMARK   33  A    between atoms: C_75  and  C_76
REMARK   34  A    between atoms: C_85  and  C_97
REMARK   35  A    between atoms: C_89  and  C_90
REMARK   36  A    between atoms: C_90  and  C_91
REMARK   37  A    between atoms: C_91  and  C_92
REMARK   38  A    between atoms: C_92  and  N_93
REMARK   39  A    between atoms: C_97  and  C_98
REMARK   40  A    between atoms: C_97  and  C_99
REMARK   41  A    between atoms: C_99  and  C_100
REMARK                            x       y       z     vdW  Elec       q    Type
REMARK                         _______ _______ _______ _____ _____    ______ ____
ROOT
ATOM      1  C   UNK     1      77.259  63.430 101.022  0.00  0.00    +0.000 C 
ATOM      2  C   UNK     1      76.282  64.613 101.164  0.00  0.00    +0.000 C 
ATOM      3  C   UNK     1      76.955  65.931 100.724  0.00  0.00    +0.000 C 
ATOM      4  C   UNK     1      76.382  67.192 101.402  0.00  0.00    +0.000 C 
ATOM      5  C   UNK     1      77.455  68.225 101.806  0.00  0.00    +0.000 C 
ATOM      6  N   UNK     1      77.873  68.173 103.214  0.00  0.00    +0.000 N 
ATOM      7  C   UNK     1      78.110  67.020 103.905  0.00  0.00    +0.000 C 
ATOM      8  O   UNK     1      78.119  65.918 103.425  0.00  0.00    +0.000 OA
ATOM      9  C   UNK     1      78.379  67.202 105.391  0.00  0.00    +0.000 C 
ATOM     10  N   UNK     1      77.629  66.135 106.060  0.00  0.00    +0.000 N 
ATOM     11  C   UNK     1      77.290  66.175 107.380  0.00  0.00    +0.000 C 
ATOM     12  O   UNK     1      77.737  67.014 108.122  0.00  0.00    +0.000 OA
ATOM     13  C   UNK     1      76.286  65.104 107.793  0.00  0.00    +0.000 C 
ATOM     14  N   UNK     1      75.055  65.230 106.995  0.00  0.00    +0.000 N 
ATOM     15  C   UNK     1      74.879  64.663 105.764  0.00  0.00    +0.000 C 
ATOM     16  O   UNK     1      75.765  64.115 105.159  0.00  0.00    +0.000 OA
ATOM     17  C   UNK     1      73.461  64.802 105.219  0.00  0.00    +0.000 C 
ATOM     18  N   UNK     1      73.242  64.173 103.910  0.00  0.00    +0.000 N 
ATOM     19  C   UNK     1      73.202  62.840 103.602  0.00  0.00    +0.000 C 
ATOM     20  O   UNK     1      72.858  62.494 102.500  0.00  0.00    +0.000 OA
ATOM     21  C   UNK     1      73.592  61.806 104.661  0.00  0.00    +0.000 C 
ATOM     22  N   UNK     1      74.509  60.861 104.005  0.00  0.00    +0.000 N 
ATOM     23  C   UNK     1      75.381  60.052 104.685  0.00  0.00    +0.000 C 
ATOM     24  O   UNK     1      75.595  60.165 105.865  0.00  0.00    +0.000 OA
ATOM     25  C   UNK     1      76.025  58.965 103.822  0.00  0.00    +0.000 C 
ATOM     26  N   UNK     1      76.467  59.568 102.562  0.00  0.00    +0.000 N 
ATOM     27  C   UNK     1      76.536  58.880 101.384  0.00  0.00    +0.000 C 
ATOM     28  O   UNK     1      76.307  57.698 101.305  0.00  0.00    +0.000 OA
ATOM     29  C   UNK     1      76.932  59.718 100.168  0.00  0.00    +0.000 C 
ATOM     30  N   UNK     1      77.415  61.073 100.485  0.00  0.00    +0.000 N 
ATOM     31  C   UNK     1      76.622  62.048 101.026  0.00  0.00    +0.000 C 
ATOM     32  O   UNK     1      75.524  61.821 101.466  0.00  0.00    +0.000 OA
ATOM     33  H   UNK     1      78.116  69.049 103.684  0.00  0.00    +0.000 HD
ATOM     34  H   UNK     1      77.344  65.346 105.476  0.00  0.00    +0.000 HD
ATOM     35  H   UNK     1      74.288  65.776 107.388  0.00  0.00    +0.000 HD
ATOM     36  H   UNK     1      72.982  64.778 103.131  0.00  0.00    +0.000 HD
ATOM     37  H   UNK     1      74.433  60.792 102.984  0.00  0.00    +0.000 HD
ATOM     38  H   UNK     1      76.701  60.560 102.567  0.00  0.00    +0.000 HD
ATOM     39  H   UNK     1      78.358  61.332 100.189  0.00  0.00    +0.000 HD
ENDROOT
BRANCH   1  42
ATOM     40  C   UNK     1      79.610  63.266 101.816  0.00  0.00    +0.000 C 
ATOM     41  O   UNK     1      80.028  62.900 100.746  0.00  0.00    +0.000 OA
ATOM     42  N   UNK     1      78.294  63.517 102.062  0.00  0.00    +0.000 N 
ATOM     43  H   UNK     1      78.005  63.777 103.005  0.00  0.00    +0.000 HD
BRANCH  40  44
ATOM     44  C   UNK     1      80.566  63.516 102.982  0.00  0.00    +0.000 C 
BRANCH  44  47
ATOM     45  C   UNK     1      82.476  64.872 102.118  0.00  0.00    +0.000 C 
ATOM     46  O   UNK     1      82.114  65.916 102.602  0.00  0.00    +0.000 OA
ATOM     47  N   UNK     1      81.876  63.667 102.335  0.00  0.00    +0.000 N 
ATOM     48  H   UNK     1      82.253  62.830 101.889  0.00  0.00    +0.000 HD
BRANCH  45  49
ATOM     49  C   UNK     1      83.675  64.842 101.174  0.00  0.00    +0.000 C 
BRANCH  49  52
ATOM     50  C   UNK     1      83.371  66.583  99.400  0.00  0.00    +0.000 C 
ATOM     51  O   UNK     1      83.918  67.463 100.019  0.00  0.00    +0.000 OA
ATOM     52  N   UNK     1      83.175  65.325  99.885  0.00  0.00    +0.000 N 
ATOM     53  H   UNK     1      82.636  64.656  99.331  0.00  0.00    +0.000 HD
BRANCH  50  54
ATOM     54  C   UNK     1      82.853  66.778  97.973  0.00  0.00    +0.000 C 
BRANCH  54  57
ATOM     55  C   UNK     1      80.762  66.011  96.754  0.00  0.00    +0.000 C 
ATOM     56  O   UNK     1      79.885  65.189  96.692  0.00  0.00    +0.000 OA
ATOM     57  N   UNK     1      81.743  65.857  97.696  0.00  0.00    +0.000 N 
ATOM     58  H   UNK     1      81.604  65.065  98.322  0.00  0.00    +0.000 HD
BRANCH  55  62
ATOM     59  C   UNK     1      78.535  67.856  95.265  0.00  0.00    +0.000 C 
ATOM     60  N   UNK     1      78.911  67.079  94.340  0.00  0.00    +0.000 NA
ATOM     61  C   UNK     1      80.390  66.904  94.366  0.00  0.00    +0.000 C 
ATOM     62  C   UNK     1      80.843  67.212  95.810  0.00  0.00    +0.000 C 
ATOM     63  S   UNK     1      79.566  68.423  96.141  0.00  0.00    +0.000 S 
BRANCH  59  64
ATOM     64  C   UNK     1      77.056  68.048  95.508  0.00  0.00    +0.000 C 
BRANCH  64  65
ATOM     65  N   UNK     1      76.345  67.724  94.258  0.00  0.00    +0.000 NA
ATOM     66  H   UNK     1      77.011  67.380  93.545  0.00  0.00    +0.000 HD
ATOM     67  H   UNK     1      75.689  66.935  94.391  0.00  0.00    +0.000 HD
ENDBRANCH  64  65
BRANCH  64  68
ATOM     68  C   UNK     1      76.518  67.258  96.719  0.00  0.00    +0.000 C 
ATOM     69  C   UNK     1      76.117  68.234  97.844  0.00  0.00    +0.000 C 
BRANCH  68  71
ATOM     70  C   UNK     1      73.947  66.913  96.740  0.00  0.00    +0.000 C 
ATOM     71  C   UNK     1      75.325  66.339  96.377  0.00  0.00    +0.000 C 
ENDBRANCH  68  71
ENDBRANCH  64  68
ENDBRANCH  59  64
ENDBRANCH  55  62
ENDBRANCH  54  57
BRANCH  54  72
ATOM     72  C   UNK     1      83.988  66.572  96.952  0.00  0.00    +0.000 C 
BRANCH  72  73
ATOM     73  C   UNK     1      85.372  66.277  97.564  0.00  0.00    +0.000 C 
ATOM     74  C   UNK     1      85.915  64.899  97.149  0.00  0.00    +0.000 C 
ATOM     75  C   UNK     1      86.370  67.376  97.151  0.00  0.00    +0.000 C 
ENDBRANCH  72  73
ENDBRANCH  54  72
ENDBRANCH  50  54
ENDBRANCH  49  52
BRANCH  49  76
ATOM     76  C   UNK     1      84.287  63.440 101.005  0.00  0.00    +0.000 C 
BRANCH  76  77
ATOM     77  C   UNK     1      83.893  62.765  99.679  0.00  0.00    +0.000 C 
BRANCH  77  78
ATOM     78  C   UNK     1      84.980  61.897  99.067  0.00  0.00    +0.000 C 
ATOM     79  O   UNK     1      86.049  61.778  99.707  0.00  0.00    +0.000 OA
ATOM     80  O   UNK     1      84.751  61.336  97.974  0.00  0.00    +0.000 OA
ENDBRANCH  77  78
ENDBRANCH  76  77
ENDBRANCH  49  76
ENDBRANCH  45  49
ENDBRANCH  44  47
BRANCH  44  81
ATOM     81  C   UNK     1      80.540  62.352 104.000  0.00  0.00    +0.000 C 
ATOM     82  C   UNK     1      81.798  61.467 103.909  0.00  0.00    +0.000 C 
BRANCH  81  83
ATOM     83  C   UNK     1      80.381  62.828 105.459  0.00  0.00    +0.000 C 
ATOM     84  C   UNK     1      81.468  62.327 106.416  0.00  0.00    +0.000 C 
ENDBRANCH  81  83
ENDBRANCH  44  81
ENDBRANCH  40  44
ENDBRANCH   1  42
BRANCH  25  85
ATOM     85  C   UNK     1      77.128  58.095 104.469  0.00  0.00    +0.000 C 
ATOM     86  C   UNK     1      78.544  58.523 104.044  0.00  0.00    +0.000 C 
BRANCH  85  87
ATOM     87  C   UNK     1      76.876  56.588 104.282  0.00  0.00    +0.000 C 
ATOM     88  C   UNK     1      75.421  56.159 104.515  0.00  0.00    +0.000 C 
ENDBRANCH  85  87
ENDBRANCH  25  85
BRANCH   9  89
ATOM     89  C   UNK     1      79.893  67.134 105.636  0.00  0.00    +0.000 C 
BRANCH  89  90
ATOM     90  C   UNK     1      80.535  68.511 105.584  0.00  0.00    +0.000 C 
ATOM     91  N   UNK     1      81.301  68.738 104.486  0.00  0.00    +0.000 N 
ATOM     92  O   UNK     1      80.392  69.365 106.420  0.00  0.00    +0.000 OA
ATOM     93  H   UNK     1      81.781  69.623 104.415  0.00  0.00    +0.000 HD
ATOM     94  H   UNK     1      81.273  68.103 103.700  0.00  0.00    +0.000 HD
ENDBRANCH  89  90
ENDBRANCH   9  89
BRANCH  13  95
ATOM     95  C   UNK     1      75.936  65.157 109.295  0.00  0.00    +0.000 C 
BRANCH  95  96
ATOM     96  C   UNK     1      74.475  65.460 109.590  0.00  0.00    +0.000 C 
ATOM     97  O   UNK     1      73.701  64.493 109.779  0.00  0.00    +0.000 OA
ATOM     98  O   UNK     1      74.135  66.661 109.649  0.00  0.00    +0.000 OA
ENDBRANCH  95  96
ENDBRANCH  13  95
BRANCH  17  99
ATOM     99  C   UNK     1      72.339  64.531 106.238  0.00  0.00    +0.000 C 
BRANCH  99 100
ATOM    100  C   UNK     1      71.646  65.776 106.707  0.00  0.00    +0.000 A 
ATOM    101  C   UNK     1      70.486  65.868 107.373  0.00  0.00    +0.000 A 
ATOM    102  N   UNK     1      70.296  67.109 107.542  0.00  0.00    +0.000 N 
ATOM    103  C   UNK     1      71.271  67.724 107.015  0.00  0.00    +0.000 A 
ATOM    104  N   UNK     1      72.113  66.935 106.499  0.00  0.00    +0.000 NA
ATOM    105  H   UNK     1      69.480  67.547 108.026  0.00  0.00    +0.000 HD
ENDBRANCH  99 100
ENDBRANCH  17  99
BRANCH  21 106
ATOM    106  C   UNK     1      72.317  61.049 105.093  0.00  0.00    +0.000 C 
BRANCH 106 107
ATOM    107  C   UNK     1      72.532  60.246 106.359  0.00  0.00    +0.000 A 
ATOM    108  C   UNK     1      72.991  60.826 107.482  0.00  0.00    +0.000 A 
ATOM    109  C   UNK     1      73.155  60.115 108.608  0.00  0.00    +0.000 A 
ATOM    110  C   UNK     1      72.861  58.806 108.624  0.00  0.00    +0.000 A 
ATOM    111  C   UNK     1      72.407  58.214 107.509  0.00  0.00    +0.000 A 
ATOM    112  C   UNK     1      72.245  58.931 106.387  0.00  0.00    +0.000 A 
ENDBRANCH 106 107
ENDBRANCH  21 106
BRANCH  29 113
ATOM    113  C   UNK     1      75.864  59.776  99.058  0.00  0.00    +0.000 C 
BRANCH 113 114
ATOM    114  C   UNK     1      74.407  59.666  99.537  0.00  0.00    +0.000 C 
BRANCH 114 115
ATOM    115  C   UNK     1      73.486  60.640  98.785  0.00  0.00    +0.000 C 
BRANCH 115 116
ATOM    116  N   UNK     1      73.417  61.938  99.479  0.00  0.00    +0.000 NA
ATOM    117  H   UNK     1      74.357  62.370  99.523  0.00  0.00    +0.000 HD
ATOM    118  H   UNK     1      72.836  62.604  98.941  0.00  0.00    +0.000 HD
ENDBRANCH 115 116
ENDBRANCH 114 115
ENDBRANCH 113 114
ENDBRANCH  29 113
TORSDOF 33
ENDMDL
MODEL 15
REMARK VINA RESULT:      -6.2      3.024      8.680
REMARK  Name = ./1791.pdb
REMARK  41 active torsions:
REMARK  status: ('A' for Active; 'I' for Inactive)
REMARK    1  A    between atoms: C_1  and  C_2
REMARK    2  A    between atoms: C_2  and  C_3
REMARK    3  A    between atoms: C_3  and  C_4
REMARK    4  A    between atoms: C_3  and  C_5
REMARK    5  A    between atoms: C_5  and  N_6
REMARK    6  A    between atoms: C_5  and  C_7
REMARK    7  A    between atoms: C_10  and  C_12
REMARK    8  A    between atoms: N_14  and  C_15
REMARK    9  A    between atoms: C_15  and  C_16
REMARK   10  A    between atoms: C_15  and  C_20
REMARK   11  A    between atoms: C_16  and  C_17
REMARK   12  A    between atoms: C_17  and  C_18
REMARK   13  A    between atoms: C_17  and  C_19
REMARK   14  A    between atoms: N_22  and  C_23
REMARK   15  A    between atoms: C_23  and  C_24
REMARK   16  A    between atoms: C_23  and  C_29
REMARK   17  A    between atoms: C_24  and  C_25
REMARK   18  A    between atoms: C_25  and  C_26
REMARK   19  A    between atoms: N_31  and  C_32
REMARK   20  A    between atoms: C_32  and  C_33
REMARK   21  A    between atoms: C_32  and  C_37
REMARK   22  A    between atoms: C_33  and  C_34
REMARK   23  A    between atoms: C_33  and  C_35
REMARK   24  A    between atoms: C_35  and  C_36
REMARK   25  A    between atoms: N_39  and  C_40
REMARK   26  A    between atoms: C_48  and  C_49
REMARK   27  A    between atoms: C_49  and  C_50
REMARK   28  A    between atoms: C_56  and  C_57
REMARK   29  A    between atoms: C_57  and  C_58
REMARK   30  A    between atoms: C_64  and  C_65
REMARK   31  A    between atoms: C_65  and  C_66
REMARK   32  A    between atoms: C_74  and  C_75
REMARK   33  A    between atoms: C_75  and  C_76
REMARK   34  A    between atoms: C_85  and  C_97
REMARK   35  A    between atoms: C_89  and  C_90
REMARK   36  A    between atoms: C_90  and  C_91
REMARK   37  A    between atoms: C_91  and  C_92
REMARK   38  A    between atoms: C_92  and  N_93
REMARK   39  A    between atoms: C_97  and  C_98
REMARK   40  A    between atoms: C_97  and  C_99
REMARK   41  A    between atoms: C_99  and  C_100
REMARK                            x       y       z     vdW  Elec       q    Type
REMARK                         _______ _______ _______ _____ _____    ______ ____
ROOT
ATOM      1  C   UNK     1      78.174  65.019 107.752  0.00  0.00    +0.000 C 
ATOM      2  C   UNK     1      78.728  63.620 107.420  0.00  0.00    +0.000 C 
ATOM      3  C   UNK     1      80.258  63.672 107.219  0.00  0.00    +0.000 C 
ATOM      4  C   UNK     1      80.811  62.577 106.286  0.00  0.00    +0.000 C 
ATOM      5  C   UNK     1      81.914  63.074 105.327  0.00  0.00    +0.000 C 
ATOM      6  N   UNK     1      81.459  63.408 103.971  0.00  0.00    +0.000 N 
ATOM      7  C   UNK     1      80.311  64.091 103.690  0.00  0.00    +0.000 C 
ATOM      8  O   UNK     1      79.594  64.600 104.509  0.00  0.00    +0.000 OA
ATOM      9  C   UNK     1      79.961  64.186 102.212  0.00  0.00    +0.000 C 
ATOM     10  N   UNK     1      78.518  63.945 102.134  0.00  0.00    +0.000 N 
ATOM     11  C   UNK     1      77.887  63.562 100.987  0.00  0.00    +0.000 C 
ATOM     12  O   UNK     1      78.452  63.565  99.923  0.00  0.00    +0.000 OA
ATOM     13  C   UNK     1      76.446  63.106 101.198  0.00  0.00    +0.000 C 
ATOM     14  N   UNK     1      76.406  61.981 102.146  0.00  0.00    +0.000 N 
ATOM     15  C   UNK     1      76.368  62.125 103.505  0.00  0.00    +0.000 C 
ATOM     16  O   UNK     1      76.495  63.188 104.058  0.00  0.00    +0.000 OA
ATOM     17  C   UNK     1      76.164  60.815 104.259  0.00  0.00    +0.000 C 
ATOM     18  N   UNK     1      76.089  60.951 105.719  0.00  0.00    +0.000 N 
ATOM     19  C   UNK     1      75.091  61.509 106.472  0.00  0.00    +0.000 C 
ATOM     20  O   UNK     1      75.120  61.400 107.672  0.00  0.00    +0.000 OA
ATOM     21  C   UNK     1      73.951  62.261 105.781  0.00  0.00    +0.000 C 
ATOM     22  N   UNK     1      73.782  63.527 106.512  0.00  0.00    +0.000 N 
ATOM     23  C   UNK     1      73.166  64.632 105.985  0.00  0.00    +0.000 C 
ATOM     24  O   UNK     1      72.863  64.722 104.822  0.00  0.00    +0.000 OA
ATOM     25  C   UNK     1      72.859  65.723 107.012  0.00  0.00    +0.000 C 
ATOM     26  N   UNK     1      74.039  65.916 107.858  0.00  0.00    +0.000 N 
ATOM     27  C   UNK     1      73.972  66.331 109.157  0.00  0.00    +0.000 C 
ATOM     28  O   UNK     1      72.935  66.643 109.689  0.00  0.00    +0.000 OA
ATOM     29  C   UNK     1      75.313  66.379 109.891  0.00  0.00    +0.000 C 
ATOM     30  N   UNK     1      76.494  66.210 109.027  0.00  0.00    +0.000 N 
ATOM     31  C   UNK     1      76.782  65.047 108.364  0.00  0.00    +0.000 C 
ATOM     32  O   UNK     1      75.996  64.138 108.277  0.00  0.00    +0.000 OA
ATOM     33  H   UNK     1      82.088  63.224 103.185  0.00  0.00    +0.000 HD
ATOM     34  H   UNK     1      77.991  64.058 103.002  0.00  0.00    +0.000 HD
ATOM     35  H   UNK     1      76.408  61.035 101.763  0.00  0.00    +0.000 HD
ATOM     36  H   UNK     1      76.809  60.490 106.276  0.00  0.00    +0.000 HD
ATOM     37  H   UNK     1      74.110  63.535 107.483  0.00  0.00    +0.000 HD
ATOM     38  H   UNK     1      74.950  65.695 107.458  0.00  0.00    +0.000 HD
ATOM     39  H   UNK     1      77.189  66.958 109.005  0.00  0.00    +0.000 HD
ENDROOT
BRANCH   1  42
ATOM     40  C   UNK     1      78.439  67.208 106.601  0.00  0.00    +0.000 C 
ATOM     41  O   UNK     1      78.561  67.823 107.630  0.00  0.00    +0.000 OA
ATOM     42  N   UNK     1      78.219  65.865 106.550  0.00  0.00    +0.000 N 
ATOM     43  H   UNK     1      78.079  65.418 105.644  0.00  0.00    +0.000 HD
BRANCH  40  44
ATOM     44  C   UNK     1      78.570  67.914 105.251  0.00  0.00    +0.000 C 
BRANCH  44  47
ATOM     45  C   UNK     1      80.660  69.250 105.536  0.00  0.00    +0.000 C 
ATOM     46  O   UNK     1      81.397  68.427 105.054  0.00  0.00    +0.000 OA
ATOM     47  N   UNK     1      79.300  69.148 105.571  0.00  0.00    +0.000 N 
ATOM     48  H   UNK     1      78.750  69.896 105.994  0.00  0.00    +0.000 HD
BRANCH  45  49
ATOM     49  C   UNK     1      81.234  70.507 106.185  0.00  0.00    +0.000 C 
BRANCH  49  52
ATOM     50  C   UNK     1      79.920  71.318 108.156  0.00  0.00    +0.000 C 
ATOM     51  O   UNK     1      80.650  70.825 108.982  0.00  0.00    +0.000 OA
ATOM     52  N   UNK     1      80.097  71.184 106.812  0.00  0.00    +0.000 N 
ATOM     53  H   UNK     1      79.393  71.566 106.177  0.00  0.00    +0.000 HD
BRANCH  50  54
ATOM     54  C   UNK     1      78.714  72.182 108.533  0.00  0.00    +0.000 C 
BRANCH  54  57
ATOM     55  C   UNK     1      76.387  71.929 107.549  0.00  0.00    +0.000 C 
ATOM     56  O   UNK     1      75.721  71.922 106.546  0.00  0.00    +0.000 OA
ATOM     57  N   UNK     1      77.727  72.193 107.446  0.00  0.00    +0.000 N 
ATOM     58  H   UNK     1      78.061  72.304 106.490  0.00  0.00    +0.000 HD
BRANCH  55  62
ATOM     59  C   UNK     1      73.355  71.775 108.716  0.00  0.00    +0.000 C 
ATOM     60  N   UNK     1      73.724  72.935 109.061  0.00  0.00    +0.000 NA
ATOM     61  C   UNK     1      75.126  72.916 109.566  0.00  0.00    +0.000 C 
ATOM     62  C   UNK     1      75.801  71.677 108.938  0.00  0.00    +0.000 C 
ATOM     63  S   UNK     1      74.315  70.678 108.878  0.00  0.00    +0.000 S 
BRANCH  59  64
ATOM     64  C   UNK     1      72.018  71.601 108.036  0.00  0.00    +0.000 C 
BRANCH  64  65
ATOM     65  N   UNK     1      71.102  72.628 108.564  0.00  0.00    +0.000 NA
ATOM     66  H   UNK     1      71.378  72.894 109.525  0.00  0.00    +0.000 HD
ATOM     67  H   UNK     1      71.174  73.510 108.028  0.00  0.00    +0.000 HD
ENDBRANCH  64  65
BRANCH  64  68
ATOM     68  C   UNK     1      72.099  71.616 106.494  0.00  0.00    +0.000 C 
ATOM     69  C   UNK     1      70.835  70.963 105.898  0.00  0.00    +0.000 C 
BRANCH  68  71
ATOM     70  C   UNK     1      71.151  73.491 104.973  0.00  0.00    +0.000 C 
ATOM     71  C   UNK     1      72.287  73.028 105.898  0.00  0.00    +0.000 C 
ENDBRANCH  68  71
ENDBRANCH  64  68
ENDBRANCH  59  64
ENDBRANCH  55  62
ENDBRANCH  54  57
BRANCH  54  72
ATOM     72  C   UNK     1      79.160  73.619 108.867  0.00  0.00    +0.000 C 
BRANCH  72  73
ATOM     73  C   UNK     1      79.105  74.611 107.687  0.00  0.00    +0.000 C 
ATOM     74  C   UNK     1      78.433  75.940 108.070  0.00  0.00    +0.000 C 
ATOM     75  C   UNK     1      80.529  74.878 107.165  0.00  0.00    +0.000 C 
ENDBRANCH  72  73
ENDBRANCH  54  72
ENDBRANCH  50  54
ENDBRANCH  49  52
BRANCH  49  76
ATOM     76  C   UNK     1      81.919  71.455 105.185  0.00  0.00    +0.000 C 
BRANCH  76  77
ATOM     77  C   UNK     1      81.072  71.722 103.928  0.00  0.00    +0.000 C 
BRANCH  77  78
ATOM     78  C   UNK     1      80.152  72.926 104.033  0.00  0.00    +0.000 C 
ATOM     79  O   UNK     1      79.062  72.766 104.627  0.00  0.00    +0.000 OA
ATOM     80  O   UNK     1      80.530  74.011 103.544  0.00  0.00    +0.000 OA
ENDBRANCH  77  78
ENDBRANCH  76  77
ENDBRANCH  49  76
ENDBRANCH  45  49
ENDBRANCH  44  47
BRANCH  44  81
ATOM     81  C   UNK     1      77.187  68.192 104.618  0.00  0.00    +0.000 C 
ATOM     82  C   UNK     1      77.076  69.625 104.060  0.00  0.00    +0.000 C 
BRANCH  81  83
ATOM     83  C   UNK     1      76.827  67.200 103.492  0.00  0.00    +0.000 C 
ATOM     84  C   UNK     1      77.282  67.628 102.093  0.00  0.00    +0.000 C 
ENDBRANCH  81  83
ENDBRANCH  44  81
ENDBRANCH  40  44
ENDBRANCH   1  42
BRANCH  25  85
ATOM     85  C   UNK     1      72.294  67.064 106.487  0.00  0.00    +0.000 C 
ATOM     86  C   UNK     1      73.353  68.181 106.460  0.00  0.00    +0.000 C 
BRANCH  85  87
ATOM     87  C   UNK     1      70.999  67.481 107.209  0.00  0.00    +0.000 C 
ATOM     88  C   UNK     1      70.197  66.310 107.789  0.00  0.00    +0.000 C 
ENDBRANCH  85  87
ENDBRANCH  25  85
BRANCH   9  89
ATOM     89  C   UNK     1      80.383  65.566 101.688  0.00  0.00    +0.000 C 
BRANCH  89  90
ATOM     90  C   UNK     1      81.407  65.456 100.569  0.00  0.00    +0.000 C 
ATOM     91  N   UNK     1      82.672  65.189 100.984  0.00  0.00    +0.000 N 
ATOM     92  O   UNK     1      81.157  65.577  99.399  0.00  0.00    +0.000 OA
ATOM     93  H   UNK     1      83.400  65.140 100.287  0.00  0.00    +0.000 HD
ATOM     94  H   UNK     1      82.850  64.903 101.937  0.00  0.00    +0.000 HD
ENDBRANCH  89  90
ENDBRANCH   9  89
BRANCH  13  95
ATOM     95  C   UNK     1      75.747  62.699  99.884  0.00  0.00    +0.000 C 
BRANCH  95  96
ATOM     96  C   UNK     1      74.469  61.899 100.074  0.00  0.00    +0.000 C 
ATOM     97  O   UNK     1      73.378  62.511 100.017  0.00  0.00    +0.000 OA
ATOM     98  O   UNK     1      74.580  60.667 100.254  0.00  0.00    +0.000 OA
ENDBRANCH  95  96
ENDBRANCH  13  95
BRANCH  17  99
ATOM     99  C   UNK     1      75.098  59.877 103.664  0.00  0.00    +0.000 C 
BRANCH  99 100
ATOM    100  C   UNK     1      74.963  58.581 104.406  0.00  0.00    +0.000 A 
ATOM    101  C   UNK     1      73.833  57.948 104.755  0.00  0.00    +0.000 A 
ATOM    102  N   UNK     1      74.210  56.907 105.370  0.00  0.00    +0.000 N 
ATOM    103  C   UNK     1      75.477  56.911 105.394  0.00  0.00    +0.000 A 
ATOM    104  N   UNK     1      75.965  57.920 104.811  0.00  0.00    +0.000 NA
ATOM    105  H   UNK     1      73.587  56.178 105.787  0.00  0.00    +0.000 HD
ENDBRANCH  99 100
ENDBRANCH  17  99
BRANCH  21 106
ATOM    106  C   UNK     1      72.661  61.424 105.923  0.00  0.00    +0.000 C 
BRANCH 106 107
ATOM    107  C   UNK     1      71.716  61.631 104.758  0.00  0.00    +0.000 A 
ATOM    108  C   UNK     1      70.557  62.297 104.912  0.00  0.00    +0.000 A 
ATOM    109  C   UNK     1      69.735  62.500 103.872  0.00  0.00    +0.000 A 
ATOM    110  C   UNK     1      70.063  62.035 102.657  0.00  0.00    +0.000 A 
ATOM    111  C   UNK     1      71.213  61.364 102.490  0.00  0.00    +0.000 A 
ATOM    112  C   UNK     1      72.030  61.164 103.536  0.00  0.00    +0.000 A 
ENDBRANCH 106 107
ENDBRANCH  21 106
BRANCH  29 113
ATOM    113  C   UNK     1      75.405  65.444 111.114  0.00  0.00    +0.000 C 
BRANCH 113 114
ATOM    114  C   UNK     1      74.964  66.062 112.451  0.00  0.00    +0.000 C 
BRANCH 114 115
ATOM    115  C   UNK     1      75.100  67.593 112.444  0.00  0.00    +0.000 C 
BRANCH 115 116
ATOM    116  N   UNK     1      75.467  68.092 113.780  0.00  0.00    +0.000 NA
ATOM    117  H   UNK     1      76.400  68.539 113.751  0.00  0.00    +0.000 HD
ATOM    118  H   UNK     1      74.817  68.839 114.077  0.00  0.00    +0.000 HD
ENDBRANCH 115 116
ENDBRANCH 114 115
ENDBRANCH 113 114
ENDBRANCH  29 113
TORSDOF 33
ENDMDL
MODEL 16
REMARK VINA RESULT:      -6.2      3.981      9.838
REMARK  Name = ./1791.pdb
REMARK  41 active torsions:
REMARK  status: ('A' for Active; 'I' for Inactive)
REMARK    1  A    between atoms: C_1  and  C_2
REMARK    2  A    between atoms: C_2  and  C_3
REMARK    3  A    between atoms: C_3  and  C_4
REMARK    4  A    between atoms: C_3  and  C_5
REMARK    5  A    between atoms: C_5  and  N_6
REMARK    6  A    between atoms: C_5  and  C_7
REMARK    7  A    between atoms: C_10  and  C_12
REMARK    8  A    between atoms: N_14  and  C_15
REMARK    9  A    between atoms: C_15  and  C_16
REMARK   10  A    between atoms: C_15  and  C_20
REMARK   11  A    between atoms: C_16  and  C_17
REMARK   12  A    between atoms: C_17  and  C_18
REMARK   13  A    between atoms: C_17  and  C_19
REMARK   14  A    between atoms: N_22  and  C_23
REMARK   15  A    between atoms: C_23  and  C_24
REMARK   16  A    between atoms: C_23  and  C_29
REMARK   17  A    between atoms: C_24  and  C_25
REMARK   18  A    between atoms: C_25  and  C_26
REMARK   19  A    between atoms: N_31  and  C_32
REMARK   20  A    between atoms: C_32  and  C_33
REMARK   21  A    between atoms: C_32  and  C_37
REMARK   22  A    between atoms: C_33  and  C_34
REMARK   23  A    between atoms: C_33  and  C_35
REMARK   24  A    between atoms: C_35  and  C_36
REMARK   25  A    between atoms: N_39  and  C_40
REMARK   26  A    between atoms: C_48  and  C_49
REMARK   27  A    between atoms: C_49  and  C_50
REMARK   28  A    between atoms: C_56  and  C_57
REMARK   29  A    between atoms: C_57  and  C_58
REMARK   30  A    between atoms: C_64  and  C_65
REMARK   31  A    between atoms: C_65  and  C_66
REMARK   32  A    between atoms: C_74  and  C_75
REMARK   33  A    between atoms: C_75  and  C_76
REMARK   34  A    between atoms: C_85  and  C_97
REMARK   35  A    between atoms: C_89  and  C_90
REMARK   36  A    between atoms: C_90  and  C_91
REMARK   37  A    between atoms: C_91  and  C_92
REMARK   38  A    between atoms: C_92  and  N_93
REMARK   39  A    between atoms: C_97  and  C_98
REMARK   40  A    between atoms: C_97  and  C_99
REMARK   41  A    between atoms: C_99  and  C_100
REMARK                            x       y       z     vdW  Elec       q    Type
REMARK                         _______ _______ _______ _____ _____    ______ ____
ROOT
ATOM      1  C   UNK     1      78.194  68.820 104.764  0.00  0.00    +0.000 C 
ATOM      2  C   UNK     1      78.065  70.322 104.448  0.00  0.00    +0.000 C 
ATOM      3  C   UNK     1      77.713  71.119 105.723  0.00  0.00    +0.000 C 
ATOM      4  C   UNK     1      76.939  72.426 105.459  0.00  0.00    +0.000 C 
ATOM      5  C   UNK     1      75.807  72.697 106.472  0.00  0.00    +0.000 C 
ATOM      6  N   UNK     1      74.462  72.307 106.025  0.00  0.00    +0.000 N 
ATOM      7  C   UNK     1      74.176  71.147 105.366  0.00  0.00    +0.000 C 
ATOM      8  O   UNK     1      74.956  70.254 105.170  0.00  0.00    +0.000 OA
ATOM      9  C   UNK     1      72.745  71.027 104.862  0.00  0.00    +0.000 C 
ATOM     10  N   UNK     1      72.849  70.462 103.514  0.00  0.00    +0.000 N 
ATOM     11  C   UNK     1      71.854  70.559 102.586  0.00  0.00    +0.000 C 
ATOM     12  O   UNK     1      70.757  70.966 102.876  0.00  0.00    +0.000 OA
ATOM     13  C   UNK     1      72.279  70.148 101.180  0.00  0.00    +0.000 C 
ATOM     14  N   UNK     1      73.411  70.975 100.732  0.00  0.00    +0.000 N 
ATOM     15  C   UNK     1      74.720  70.699 101.012  0.00  0.00    +0.000 C 
ATOM     16  O   UNK     1      75.061  69.821 101.764  0.00  0.00    +0.000 OA
ATOM     17  C   UNK     1      75.710  71.613 100.298  0.00  0.00    +0.000 C 
ATOM     18  N   UNK     1      77.124  71.313 100.560  0.00  0.00    +0.000 N 
ATOM     19  C   UNK     1      77.857  70.235 100.144  0.00  0.00    +0.000 C 
ATOM     20  O   UNK     1      79.049  70.223 100.322  0.00  0.00    +0.000 OA
ATOM     21  C   UNK     1      77.156  69.063  99.454  0.00  0.00    +0.000 C 
ATOM     22  N   UNK     1      77.664  67.838 100.093  0.00  0.00    +0.000 N 
ATOM     23  C   UNK     1      77.011  66.634 100.055  0.00  0.00    +0.000 C 
ATOM     24  O   UNK     1      75.885  66.512  99.642  0.00  0.00    +0.000 OA
ATOM     25  C   UNK     1      77.853  65.453 100.539  0.00  0.00    +0.000 C 
ATOM     26  N   UNK     1      78.534  65.840 101.777  0.00  0.00    +0.000 N 
ATOM     27  C   UNK     1      79.740  65.327 102.162  0.00  0.00    +0.000 C 
ATOM     28  O   UNK     1      80.305  64.456 101.547  0.00  0.00    +0.000 OA
ATOM     29  C   UNK     1      80.322  65.933 103.440  0.00  0.00    +0.000 C 
ATOM     30  N   UNK     1      79.393  66.794 104.192  0.00  0.00    +0.000 N 
ATOM     31  C   UNK     1      78.923  67.989 103.718  0.00  0.00    +0.000 C 
ATOM     32  O   UNK     1      79.073  68.338 102.575  0.00  0.00    +0.000 OA
ATOM     33  H   UNK     1      73.665  72.877 106.320  0.00  0.00    +0.000 HD
ATOM     34  H   UNK     1      73.729  69.999 103.282  0.00  0.00    +0.000 HD
ATOM     35  H   UNK     1      73.203  71.807 100.179  0.00  0.00    +0.000 HD
ATOM     36  H   UNK     1      77.682  72.030 101.024  0.00  0.00    +0.000 HD
ATOM     37  H   UNK     1      78.583  67.911 100.542  0.00  0.00    +0.000 HD
ATOM     38  H   UNK     1      78.095  66.553 102.357  0.00  0.00    +0.000 HD
ATOM     39  H   UNK     1      79.172  66.542 105.156  0.00  0.00    +0.000 HD
ENDROOT
BRANCH   1  42
ATOM     40  C   UNK     1      76.620  67.382 106.045  0.00  0.00    +0.000 C 
ATOM     41  O   UNK     1      77.479  66.960 106.777  0.00  0.00    +0.000 OA
ATOM     42  N   UNK     1      76.863  68.254 105.027  0.00  0.00    +0.000 N 
ATOM     43  H   UNK     1      76.095  68.533 104.417  0.00  0.00    +0.000 HD
BRANCH  40  44
ATOM     44  C   UNK     1      75.157  66.984 106.247  0.00  0.00    +0.000 C 
BRANCH  44  47
ATOM     45  C   UNK     1      74.242  66.752 108.558  0.00  0.00    +0.000 C 
ATOM     46  O   UNK     1      73.257  67.421 108.366  0.00  0.00    +0.000 OA
ATOM     47  N   UNK     1      75.138  66.397 107.593  0.00  0.00    +0.000 N 
ATOM     48  H   UNK     1      75.943  65.822 107.842  0.00  0.00    +0.000 HD
BRANCH  45  49
ATOM     49  C   UNK     1      74.569  66.258 109.964  0.00  0.00    +0.000 C 
BRANCH  49  52
ATOM     50  C   UNK     1      75.645  64.020 109.635  0.00  0.00    +0.000 C 
ATOM     51  O   UNK     1      76.738  64.464 109.379  0.00  0.00    +0.000 OA
ATOM     52  N   UNK     1      74.552  64.795 109.883  0.00  0.00    +0.000 N 
ATOM     53  H   UNK     1      73.643  64.347 110.016  0.00  0.00    +0.000 HD
BRANCH  50  54
ATOM     54  C   UNK     1      75.368  62.518 109.734  0.00  0.00    +0.000 C 
BRANCH  54  57
ATOM     55  C   UNK     1      73.651  61.180 108.427  0.00  0.00    +0.000 C 
ATOM     56  O   UNK     1      72.502  61.099 108.075  0.00  0.00    +0.000 OA
ATOM     57  N   UNK     1      74.015  62.210 109.252  0.00  0.00    +0.000 N 
ATOM     58  H   UNK     1      73.267  62.873 109.452  0.00  0.00    +0.000 HD
BRANCH  55  62
ATOM     59  C   UNK     1      74.201  59.476 105.711  0.00  0.00    +0.000 C 
ATOM     60  N   UNK     1      73.658  58.620 106.468  0.00  0.00    +0.000 NA
ATOM     61  C   UNK     1      74.191  58.726 107.855  0.00  0.00    +0.000 C 
ATOM     62  C   UNK     1      74.721  60.169 108.011  0.00  0.00    +0.000 C 
ATOM     63  S   UNK     1      75.210  60.363 106.299  0.00  0.00    +0.000 S 
BRANCH  59  64
ATOM     64  C   UNK     1      73.691  59.635 104.298  0.00  0.00    +0.000 C 
BRANCH  64  65
ATOM     65  N   UNK     1      72.236  59.402 104.310  0.00  0.00    +0.000 NA
ATOM     66  H   UNK     1      71.852  59.481 103.353  0.00  0.00    +0.000 HD
ATOM     67  H   UNK     1      72.011  58.433 104.593  0.00  0.00    +0.000 HD
ENDBRANCH  64  65
BRANCH  64  68
ATOM     68  C   UNK     1      74.071  60.983 103.649  0.00  0.00    +0.000 C 
ATOM     69  C   UNK     1      74.482  60.759 102.180  0.00  0.00    +0.000 C 
BRANCH  68  71
ATOM     70  C   UNK     1      72.983  63.091 102.599  0.00  0.00    +0.000 C 
ATOM     71  C   UNK     1      72.948  62.041 103.721  0.00  0.00    +0.000 C 
ENDBRANCH  68  71
ENDBRANCH  64  68
ENDBRANCH  59  64
ENDBRANCH  55  62
ENDBRANCH  54  57
BRANCH  54  72
ATOM     72  C   UNK     1      75.543  62.030 111.185  0.00  0.00    +0.000 C 
BRANCH  72  73
ATOM     73  C   UNK     1      76.876  62.427 111.851  0.00  0.00    +0.000 C 
ATOM     74  C   UNK     1      76.816  62.334 113.385  0.00  0.00    +0.000 C 
ATOM     75  C   UNK     1      78.011  61.531 111.320  0.00  0.00    +0.000 C 
ENDBRANCH  72  73
ENDBRANCH  54  72
ENDBRANCH  50  54
ENDBRANCH  49  52
BRANCH  49  76
ATOM     76  C   UNK     1      73.566  66.733 111.030  0.00  0.00    +0.000 C 
BRANCH  76  77
ATOM     77  C   UNK     1      72.614  65.620 111.503  0.00  0.00    +0.000 C 
BRANCH  77  78
ATOM     78  C   UNK     1      71.595  65.180 110.466  0.00  0.00    +0.000 C 
ATOM     79  O   UNK     1      70.711  66.006 110.142  0.00  0.00    +0.000 OA
ATOM     80  O   UNK     1      71.697  64.035 109.976  0.00  0.00    +0.000 OA
ENDBRANCH  77  78
ENDBRANCH  76  77
ENDBRANCH  49  76
ENDBRANCH  45  49
ENDBRANCH  44  47
BRANCH  44  81
ATOM     81  C   UNK     1      74.683  65.990 105.161  0.00  0.00    +0.000 C 
ATOM     82  C   UNK     1      75.083  64.538 105.483  0.00  0.00    +0.000 C 
BRANCH  81  83
ATOM     83  C   UNK     1      73.159  66.038 104.923  0.00  0.00    +0.000 C 
ATOM     84  C   UNK     1      72.346  65.081 105.802  0.00  0.00    +0.000 C 
ENDBRANCH  81  83
ENDBRANCH  44  81
ENDBRANCH  40  44
ENDBRANCH   1  42
BRANCH  25  85
ATOM     85  C   UNK     1      77.155  64.078 100.665  0.00  0.00    +0.000 C 
ATOM     86  C   UNK     1      76.653  63.798 102.094  0.00  0.00    +0.000 C 
BRANCH  85  87
ATOM     87  C   UNK     1      78.006  62.930 100.093  0.00  0.00    +0.000 C 
ATOM     88  C   UNK     1      77.814  61.587 100.809  0.00  0.00    +0.000 C 
ENDBRANCH  85  87
ENDBRANCH  25  85
BRANCH   9  89
ATOM     89  C   UNK     1      71.947  70.148 105.836  0.00  0.00    +0.000 C 
BRANCH  89  90
ATOM     90  C   UNK     1      71.189  70.982 106.857  0.00  0.00    +0.000 C 
ATOM     91  N   UNK     1      69.843  70.804 106.848  0.00  0.00    +0.000 N 
ATOM     92  O   UNK     1      71.702  71.741 107.637  0.00  0.00    +0.000 OA
ATOM     93  H   UNK     1      69.285  71.358 107.480  0.00  0.00    +0.000 HD
ATOM     94  H   UNK     1      69.430  70.038 106.331  0.00  0.00    +0.000 HD
ENDBRANCH  89  90
ENDBRANCH   9  89
BRANCH  13  95
ATOM     95  C   UNK     1      71.131  70.245 100.154  0.00  0.00    +0.000 C 
BRANCH  95  96
ATOM     96  C   UNK     1      71.321  71.320  99.096  0.00  0.00    +0.000 C 
ATOM     97  O   UNK     1      71.000  72.495  99.388  0.00  0.00    +0.000 OA
ATOM     98  O   UNK     1      71.812  70.972  98.000  0.00  0.00    +0.000 OA
ENDBRANCH  95  96
ENDBRANCH  13  95
BRANCH  17  99
ATOM     99  C   UNK     1      75.395  71.886  98.815  0.00  0.00    +0.000 C 
BRANCH  99 100
ATOM    100  C   UNK     1      75.677  73.299  98.396  0.00  0.00    +0.000 A 
ATOM    101  C   UNK     1      75.017  74.033  97.490  0.00  0.00    +0.000 A 
ATOM    102  N   UNK     1      75.617  75.149  97.464  0.00  0.00    +0.000 N 
ATOM    103  C   UNK     1      76.573  75.092  98.294  0.00  0.00    +0.000 A 
ATOM    104  N   UNK     1      76.633  73.974  98.881  0.00  0.00    +0.000 NA
ATOM    105  H   UNK     1      75.369  75.968  96.863  0.00  0.00    +0.000 HD
ENDBRANCH  99 100
ENDBRANCH  17  99
BRANCH  21 106
ATOM    106  C   UNK     1      77.567  69.059  97.965  0.00  0.00    +0.000 C 
BRANCH 106 107
ATOM    107  C   UNK     1      76.366  69.052  97.042  0.00  0.00    +0.000 A 
ATOM    108  C   UNK     1      76.487  69.373  95.741  0.00  0.00    +0.000 A 
ATOM    109  C   UNK     1      75.425  69.340  94.922  0.00  0.00    +0.000 A 
ATOM    110  C   UNK     1      74.222  68.985  95.396  0.00  0.00    +0.000 A 
ATOM    111  C   UNK     1      74.087  68.667  96.693  0.00  0.00    +0.000 A 
ATOM    112  C   UNK     1      75.153  68.703  97.507  0.00  0.00    +0.000 A 
ENDBRANCH 106 107
ENDBRANCH  21 106
BRANCH  29 113
ATOM    113  C   UNK     1      81.677  66.644 103.249  0.00  0.00    +0.000 C 
BRANCH 113 114
ATOM    114  C   UNK     1      82.913  65.832 103.667  0.00  0.00    +0.000 C 
BRANCH 114 115
ATOM    115  C   UNK     1      83.662  65.267 102.449  0.00  0.00    +0.000 C 
BRANCH 115 116
ATOM    116  N   UNK     1      83.136  65.841 101.198  0.00  0.00    +0.000 NA
ATOM    117  H   UNK     1      82.523  65.157 100.722  0.00  0.00    +0.000 HD
ATOM    118  H   UNK     1      82.530  66.654 101.402  0.00  0.00    +0.000 HD
ENDBRANCH 115 116
ENDBRANCH 114 115
ENDBRANCH 113 114
ENDBRANCH  29 113
TORSDOF 33
ENDMDL
MODEL 17
REMARK VINA RESULT:      -6.1      4.816     11.360
REMARK  Name = ./1791.pdb
REMARK  41 active torsions:
REMARK  status: ('A' for Active; 'I' for Inactive)
REMARK    1  A    between atoms: C_1  and  C_2
REMARK    2  A    between atoms: C_2  and  C_3
REMARK    3  A    between atoms: C_3  and  C_4
REMARK    4  A    between atoms: C_3  and  C_5
REMARK    5  A    between atoms: C_5  and  N_6
REMARK    6  A    between atoms: C_5  and  C_7
REMARK    7  A    between atoms: C_10  and  C_12
REMARK    8  A    between atoms: N_14  and  C_15
REMARK    9  A    between atoms: C_15  and  C_16
REMARK   10  A    between atoms: C_15  and  C_20
REMARK   11  A    between atoms: C_16  and  C_17
REMARK   12  A    between atoms: C_17  and  C_18
REMARK   13  A    between atoms: C_17  and  C_19
REMARK   14  A    between atoms: N_22  and  C_23
REMARK   15  A    between atoms: C_23  and  C_24
REMARK   16  A    between atoms: C_23  and  C_29
REMARK   17  A    between atoms: C_24  and  C_25
REMARK   18  A    between atoms: C_25  and  C_26
REMARK   19  A    between atoms: N_31  and  C_32
REMARK   20  A    between atoms: C_32  and  C_33
REMARK   21  A    between atoms: C_32  and  C_37
REMARK   22  A    between atoms: C_33  and  C_34
REMARK   23  A    between atoms: C_33  and  C_35
REMARK   24  A    between atoms: C_35  and  C_36
REMARK   25  A    between atoms: N_39  and  C_40
REMARK   26  A    between atoms: C_48  and  C_49
REMARK   27  A    between atoms: C_49  and  C_50
REMARK   28  A    between atoms: C_56  and  C_57
REMARK   29  A    between atoms: C_57  and  C_58
REMARK   30  A    between atoms: C_64  and  C_65
REMARK   31  A    between atoms: C_65  and  C_66
REMARK   32  A    between atoms: C_74  and  C_75
REMARK   33  A    between atoms: C_75  and  C_76
REMARK   34  A    between atoms: C_85  and  C_97
REMARK   35  A    between atoms: C_89  and  C_90
REMARK   36  A    between atoms: C_90  and  C_91
REMARK   37  A    between atoms: C_91  and  C_92
REMARK   38  A    between atoms: C_92  and  N_93
REMARK   39  A    between atoms: C_97  and  C_98
REMARK   40  A    between atoms: C_97  and  C_99
REMARK   41  A    between atoms: C_99  and  C_100
REMARK                            x       y       z     vdW  Elec       q    Type
REMARK                         _______ _______ _______ _____ _____    ______ ____
ROOT
ATOM      1  C   UNK     1      79.738  66.117 104.456  0.00  0.00    +0.000 C 
ATOM      2  C   UNK     1      79.905  65.131 105.629  0.00  0.00    +0.000 C 
ATOM      3  C   UNK     1      80.887  64.001 105.255  0.00  0.00    +0.000 C 
ATOM      4  C   UNK     1      80.647  62.678 106.010  0.00  0.00    +0.000 C 
ATOM      5  C   UNK     1      80.804  61.420 105.129  0.00  0.00    +0.000 C 
ATOM      6  N   UNK     1      79.549  60.861 104.608  0.00  0.00    +0.000 N 
ATOM      7  C   UNK     1      78.524  61.608 104.104  0.00  0.00    +0.000 C 
ATOM      8  O   UNK     1      78.562  62.795 103.918  0.00  0.00    +0.000 OA
ATOM      9  C   UNK     1      77.261  60.828 103.768  0.00  0.00    +0.000 C 
ATOM     10  N   UNK     1      76.150  61.654 104.249  0.00  0.00    +0.000 N 
ATOM     11  C   UNK     1      74.903  61.158 104.493  0.00  0.00    +0.000 C 
ATOM     12  O   UNK     1      74.591  60.041 104.163  0.00  0.00    +0.000 OA
ATOM     13  C   UNK     1      73.989  62.124 105.241  0.00  0.00    +0.000 C 
ATOM     14  N   UNK     1      74.597  62.502 106.527  0.00  0.00    +0.000 N 
ATOM     15  C   UNK     1      75.497  63.520 106.679  0.00  0.00    +0.000 C 
ATOM     16  O   UNK     1      75.975  64.120 105.751  0.00  0.00    +0.000 OA
ATOM     17  C   UNK     1      75.850  63.816 108.133  0.00  0.00    +0.000 C 
ATOM     18  N   UNK     1      76.792  64.928 108.322  0.00  0.00    +0.000 N 
ATOM     19  C   UNK     1      76.580  66.266 108.127  0.00  0.00    +0.000 C 
ATOM     20  O   UNK     1      77.419  67.057 108.477  0.00  0.00    +0.000 OA
ATOM     21  C   UNK     1      75.282  66.739 107.470  0.00  0.00    +0.000 C 
ATOM     22  N   UNK     1      75.667  67.715 106.439  0.00  0.00    +0.000 N 
ATOM     23  C   UNK     1      74.867  68.058 105.381  0.00  0.00    +0.000 C 
ATOM     24  O   UNK     1      73.852  67.467 105.107  0.00  0.00    +0.000 OA
ATOM     25  C   UNK     1      75.350  69.284 104.604  0.00  0.00    +0.000 C 
ATOM     26  N   UNK     1      76.792  69.155 104.378  0.00  0.00    +0.000 N 
ATOM     27  C   UNK     1      77.632  70.226 104.264  0.00  0.00    +0.000 C 
ATOM     28  O   UNK     1      77.239  71.367 104.266  0.00  0.00    +0.000 OA
ATOM     29  C   UNK     1      79.115  69.873 104.125  0.00  0.00    +0.000 C 
ATOM     30  N   UNK     1      79.388  68.445 103.889  0.00  0.00    +0.000 N 
ATOM     31  C   UNK     1      79.137  67.468 104.814  0.00  0.00    +0.000 C 
ATOM     32  O   UNK     1      78.495  67.670 105.813  0.00  0.00    +0.000 OA
ATOM     33  H   UNK     1      79.472  59.846 104.504  0.00  0.00    +0.000 HD
ATOM     34  H   UNK     1      76.357  62.640 104.419  0.00  0.00    +0.000 HD
ATOM     35  H   UNK     1      74.329  61.968 107.354  0.00  0.00    +0.000 HD
ATOM     36  H   UNK     1      77.695  64.717 108.748  0.00  0.00    +0.000 HD
ATOM     37  H   UNK     1      76.569  68.183 106.574  0.00  0.00    +0.000 HD
ATOM     38  H   UNK     1      77.185  68.216 104.339  0.00  0.00    +0.000 HD
ATOM     39  H   UNK     1      79.887  68.182 103.038  0.00  0.00    +0.000 HD
ENDROOT
BRANCH   1  42
ATOM     40  C   UNK     1      79.294  65.580 102.068  0.00  0.00    +0.000 C 
ATOM     41  O   UNK     1      80.221  66.239 101.667  0.00  0.00    +0.000 OA
ATOM     42  N   UNK     1      78.958  65.481 103.385  0.00  0.00    +0.000 N 
ATOM     43  H   UNK     1      78.132  64.943 103.647  0.00  0.00    +0.000 HD
BRANCH  40  44
ATOM     44  C   UNK     1      78.443  64.761 101.098  0.00  0.00    +0.000 C 
BRANCH  44  47
ATOM     45  C   UNK     1      79.713  63.865  99.145  0.00  0.00    +0.000 C 
ATOM     46  O   UNK     1      79.545  62.701  99.414  0.00  0.00    +0.000 OA
ATOM     47  N   UNK     1      79.139  64.906  99.813  0.00  0.00    +0.000 N 
ATOM     48  H   UNK     1      79.331  65.862  99.514  0.00  0.00    +0.000 HD
BRANCH  45  49
ATOM     49  C   UNK     1      80.638  64.259  97.996  0.00  0.00    +0.000 C 
BRANCH  49  52
ATOM     50  C   UNK     1      82.906  64.220  99.055  0.00  0.00    +0.000 C 
ATOM     51  O   UNK     1      83.014  63.018  99.035  0.00  0.00    +0.000 OA
ATOM     52  N   UNK     1      81.801  64.889  98.624  0.00  0.00    +0.000 N 
ATOM     53  H   UNK     1      81.754  65.903  98.745  0.00  0.00    +0.000 HD
BRANCH  50  54
ATOM     54  C   UNK     1      84.025  65.139  99.553  0.00  0.00    +0.000 C 
BRANCH  54  57
ATOM     55  C   UNK     1      85.474  65.869  97.599  0.00  0.00    +0.000 C 
ATOM     56  O   UNK     1      86.449  65.631  96.933  0.00  0.00    +0.000 OA
ATOM     57  N   UNK     1      85.193  65.057  98.665  0.00  0.00    +0.000 N 
ATOM     58  H   UNK     1      85.822  64.262  98.766  0.00  0.00    +0.000 HD
BRANCH  55  62
ATOM     59  C   UNK     1      85.455  68.239  95.372  0.00  0.00    +0.000 C 
ATOM     60  N   UNK     1      85.926  68.823  96.391  0.00  0.00    +0.000 NA
ATOM     61  C   UNK     1      85.180  68.428  97.619  0.00  0.00    +0.000 C 
ATOM     62  C   UNK     1      84.545  67.052  97.321  0.00  0.00    +0.000 C 
ATOM     63  S   UNK     1      84.315  67.338  95.568  0.00  0.00    +0.000 S 
BRANCH  59  64
ATOM     64  C   UNK     1      86.165  68.387  94.047  0.00  0.00    +0.000 C 
BRANCH  64  65
ATOM     65  N   UNK     1      85.711  69.643  93.425  0.00  0.00    +0.000 NA
ATOM     66  H   UNK     1      84.756  69.877  93.745  0.00  0.00    +0.000 HD
ATOM     67  H   UNK     1      86.284  70.447  93.736  0.00  0.00    +0.000 HD
ENDBRANCH  64  65
BRANCH  64  68
ATOM     68  C   UNK     1      87.703  68.300  94.153  0.00  0.00    +0.000 C 
ATOM     69  C   UNK     1      88.177  66.891  93.742  0.00  0.00    +0.000 C 
BRANCH  68  71
ATOM     70  C   UNK     1      89.414  70.249  94.111  0.00  0.00    +0.000 C 
ATOM     71  C   UNK     1      88.442  69.365  93.314  0.00  0.00    +0.000 C 
ENDBRANCH  68  71
ENDBRANCH  64  68
ENDBRANCH  59  64
ENDBRANCH  55  62
ENDBRANCH  54  57
BRANCH  54  72
ATOM     72  C   UNK     1      84.423  64.776 100.996  0.00  0.00    +0.000 C 
BRANCH  72  73
ATOM     73  C   UNK     1      83.598  65.474 102.096  0.00  0.00    +0.000 C 
ATOM     74  C   UNK     1      84.067  65.095 103.511  0.00  0.00    +0.000 C 
ATOM     75  C   UNK     1      83.674  67.002 101.915  0.00  0.00    +0.000 C 
ENDBRANCH  72  73
ENDBRANCH  54  72
ENDBRANCH  50  54
ENDBRANCH  49  52
BRANCH  49  76
ATOM     76  C   UNK     1      79.992  65.234  96.996  0.00  0.00    +0.000 C 
BRANCH  76  77
ATOM     77  C   UNK     1      80.958  66.328  96.508  0.00  0.00    +0.000 C 
BRANCH  77  78
ATOM     78  C   UNK     1      80.489  67.077  95.272  0.00  0.00    +0.000 C 
ATOM     79  O   UNK     1      79.862  66.424  94.408  0.00  0.00    +0.000 OA
ATOM     80  O   UNK     1      80.731  68.300  95.187  0.00  0.00    +0.000 OA
ENDBRANCH  77  78
ENDBRANCH  76  77
ENDBRANCH  49  76
ENDBRANCH  45  49
ENDBRANCH  44  47
BRANCH  44  81
ATOM     81  C   UNK     1      76.987  65.279 101.043  0.00  0.00    +0.000 C 
ATOM     82  C   UNK     1      76.554  65.658  99.613  0.00  0.00    +0.000 C 
BRANCH  81  83
ATOM     83  C   UNK     1      75.965  64.272 101.613  0.00  0.00    +0.000 C 
ATOM     84  C   UNK     1      75.082  64.826 102.737  0.00  0.00    +0.000 C 
ENDBRANCH  81  83
ENDBRANCH  44  81
ENDBRANCH  40  44
ENDBRANCH   1  42
BRANCH  25  85
ATOM     85  C   UNK     1      74.590  69.660 103.310  0.00  0.00    +0.000 C 
ATOM     86  C   UNK     1      75.435  69.439 102.043  0.00  0.00    +0.000 C 
BRANCH  85  87
ATOM     87  C   UNK     1      73.970  71.068 103.379  0.00  0.00    +0.000 C 
ATOM     88  C   UNK     1      73.480  71.472 104.776  0.00  0.00    +0.000 C 
ENDBRANCH  85  87
ENDBRANCH  25  85
BRANCH   9  89
ATOM     89  C   UNK     1      77.223  60.569 102.256  0.00  0.00    +0.000 C 
BRANCH  89  90
ATOM     90  C   UNK     1      77.044  59.092 101.941  0.00  0.00    +0.000 C 
ATOM     91  N   UNK     1      76.931  58.290 103.031  0.00  0.00    +0.000 N 
ATOM     92  O   UNK     1      76.988  58.630 100.831  0.00  0.00    +0.000 OA
ATOM     93  H   UNK     1      76.845  57.295 102.883  0.00  0.00    +0.000 HD
ATOM     94  H   UNK     1      76.790  58.689 103.949  0.00  0.00    +0.000 HD
ENDBRANCH  89  90
ENDBRANCH   9  89
BRANCH  13  95
ATOM     95  C   UNK     1      72.579  61.548 105.485  0.00  0.00    +0.000 C 
BRANCH  95  96
ATOM     96  C   UNK     1      72.151  61.531 106.944  0.00  0.00    +0.000 C 
ATOM     97  O   UNK     1      72.260  60.454 107.575  0.00  0.00    +0.000 OA
ATOM     98  O   UNK     1      71.736  62.601 107.437  0.00  0.00    +0.000 OA
ENDBRANCH  95  96
ENDBRANCH  13  95
BRANCH  17  99
ATOM     99  C   UNK     1      74.657  63.838 109.105  0.00  0.00    +0.000 C 
BRANCH  99 100
ATOM    100  C   UNK     1      75.050  64.123 110.525  0.00  0.00    +0.000 A 
ATOM    101  C   UNK     1      74.445  64.946 111.395  0.00  0.00    +0.000 A 
ATOM    102  N   UNK     1      75.133  64.871 112.456  0.00  0.00    +0.000 N 
ATOM    103  C   UNK     1      76.085  64.063 112.244  0.00  0.00    +0.000 A 
ATOM    104  N   UNK     1      76.059  63.588 111.073  0.00  0.00    +0.000 NA
ATOM    105  H   UNK     1      74.948  65.388 113.347  0.00  0.00    +0.000 HD
ENDBRANCH  99 100
ENDBRANCH  17  99
BRANCH  21 106
ATOM    106  C   UNK     1      74.428  67.452 108.542  0.00  0.00    +0.000 C 
BRANCH 106 107
ATOM    107  C   UNK     1      72.982  67.003 108.511  0.00  0.00    +0.000 A 
ATOM    108  C   UNK     1      72.138  67.307 109.513  0.00  0.00    +0.000 A 
ATOM    109  C   UNK     1      70.851  66.929 109.469  0.00  0.00    +0.000 A 
ATOM    110  C   UNK     1      70.390  66.237 108.416  0.00  0.00    +0.000 A 
ATOM    111  C   UNK     1      71.223  65.923 107.412  0.00  0.00    +0.000 A 
ATOM    112  C   UNK     1      72.509  66.304 107.463  0.00  0.00    +0.000 A 
ENDBRANCH 106 107
ENDBRANCH  21 106
BRANCH  29 113
ATOM    113  C   UNK     1      80.007  70.410 105.261  0.00  0.00    +0.000 C 
BRANCH 113 114
ATOM    114  C   UNK     1      79.276  71.207 106.355  0.00  0.00    +0.000 C 
BRANCH 114 115
ATOM    115  C   UNK     1      79.045  70.361 107.617  0.00  0.00    +0.000 C 
BRANCH 115 116
ATOM    116  N   UNK     1      77.672  69.828 107.646  0.00  0.00    +0.000 NA
ATOM    117  H   UNK     1      77.473  69.304 106.777  0.00  0.00    +0.000 HD
ATOM    118  H   UNK     1      77.569  69.138 108.410  0.00  0.00    +0.000 HD
ENDBRANCH 115 116
ENDBRANCH 114 115
ENDBRANCH 113 114
ENDBRANCH  29 113
TORSDOF 33
ENDMDL
MODEL 18
REMARK VINA RESULT:      -6.1      3.509     10.844
REMARK  Name = ./1791.pdb
REMARK  41 active torsions:
REMARK  status: ('A' for Active; 'I' for Inactive)
REMARK    1  A    between atoms: C_1  and  C_2
REMARK    2  A    between atoms: C_2  and  C_3
REMARK    3  A    between atoms: C_3  and  C_4
REMARK    4  A    between atoms: C_3  and  C_5
REMARK    5  A    between atoms: C_5  and  N_6
REMARK    6  A    between atoms: C_5  and  C_7
REMARK    7  A    between atoms: C_10  and  C_12
REMARK    8  A    between atoms: N_14  and  C_15
REMARK    9  A    between atoms: C_15  and  C_16
REMARK   10  A    between atoms: C_15  and  C_20
REMARK   11  A    between atoms: C_16  and  C_17
REMARK   12  A    between atoms: C_17  and  C_18
REMARK   13  A    between atoms: C_17  and  C_19
REMARK   14  A    between atoms: N_22  and  C_23
REMARK   15  A    between atoms: C_23  and  C_24
REMARK   16  A    between atoms: C_23  and  C_29
REMARK   17  A    between atoms: C_24  and  C_25
REMARK   18  A    between atoms: C_25  and  C_26
REMARK   19  A    between atoms: N_31  and  C_32
REMARK   20  A    between atoms: C_32  and  C_33
REMARK   21  A    between atoms: C_32  and  C_37
REMARK   22  A    between atoms: C_33  and  C_34
REMARK   23  A    between atoms: C_33  and  C_35
REMARK   24  A    between atoms: C_35  and  C_36
REMARK   25  A    between atoms: N_39  and  C_40
REMARK   26  A    between atoms: C_48  and  C_49
REMARK   27  A    between atoms: C_49  and  C_50
REMARK   28  A    between atoms: C_56  and  C_57
REMARK   29  A    between atoms: C_57  and  C_58
REMARK   30  A    between atoms: C_64  and  C_65
REMARK   31  A    between atoms: C_65  and  C_66
REMARK   32  A    between atoms: C_74  and  C_75
REMARK   33  A    between atoms: C_75  and  C_76
REMARK   34  A    between atoms: C_85  and  C_97
REMARK   35  A    between atoms: C_89  and  C_90
REMARK   36  A    between atoms: C_90  and  C_91
REMARK   37  A    between atoms: C_91  and  C_92
REMARK   38  A    between atoms: C_92  and  N_93
REMARK   39  A    between atoms: C_97  and  C_98
REMARK   40  A    between atoms: C_97  and  C_99
REMARK   41  A    between atoms: C_99  and  C_100
REMARK                            x       y       z     vdW  Elec       q    Type
REMARK                         _______ _______ _______ _____ _____    ______ ____
ROOT
ATOM      1  C   UNK     1      79.725  66.401 105.080  0.00  0.00    +0.000 C 
ATOM      2  C   UNK     1      79.898  65.300 106.144  0.00  0.00    +0.000 C 
ATOM      3  C   UNK     1      80.967  64.277 105.702  0.00  0.00    +0.000 C 
ATOM      4  C   UNK     1      80.774  62.865 106.291  0.00  0.00    +0.000 C 
ATOM      5  C   UNK     1      81.053  61.727 105.286  0.00  0.00    +0.000 C 
ATOM      6  N   UNK     1      79.862  61.160 104.638  0.00  0.00    +0.000 N 
ATOM      7  C   UNK     1      78.817  61.899 104.165  0.00  0.00    +0.000 C 
ATOM      8  O   UNK     1      78.789  63.100 104.114  0.00  0.00    +0.000 OA
ATOM      9  C   UNK     1      77.623  61.092 103.676  0.00  0.00    +0.000 C 
ATOM     10  N   UNK     1      76.441  61.792 104.183  0.00  0.00    +0.000 N 
ATOM     11  C   UNK     1      75.217  61.201 104.302  0.00  0.00    +0.000 C 
ATOM     12  O   UNK     1      74.992  60.113 103.834  0.00  0.00    +0.000 OA
ATOM     13  C   UNK     1      74.209  62.022 105.101  0.00  0.00    +0.000 C 
ATOM     14  N   UNK     1      74.730  62.285 106.452  0.00  0.00    +0.000 N 
ATOM     15  C   UNK     1      75.555  63.329 106.766  0.00  0.00    +0.000 C 
ATOM     16  O   UNK     1      76.039  64.057 105.937  0.00  0.00    +0.000 OA
ATOM     17  C   UNK     1      75.819  63.478 108.260  0.00  0.00    +0.000 C 
ATOM     18  N   UNK     1      76.678  64.613 108.623  0.00  0.00    +0.000 N 
ATOM     19  C   UNK     1      76.392  65.950 108.566  0.00  0.00    +0.000 C 
ATOM     20  O   UNK     1      77.161  66.743 109.047  0.00  0.00    +0.000 OA
ATOM     21  C   UNK     1      75.099  66.420 107.895  0.00  0.00    +0.000 C 
ATOM     22  N   UNK     1      75.471  67.528 107.001  0.00  0.00    +0.000 N 
ATOM     23  C   UNK     1      74.703  67.942 105.945  0.00  0.00    +0.000 C 
ATOM     24  O   UNK     1      73.742  67.330 105.552  0.00  0.00    +0.000 OA
ATOM     25  C   UNK     1      75.145  69.274 105.337  0.00  0.00    +0.000 C 
ATOM     26  N   UNK     1      76.602  69.255 105.177  0.00  0.00    +0.000 N 
ATOM     27  C   UNK     1      77.377  70.378 105.229  0.00  0.00    +0.000 C 
ATOM     28  O   UNK     1      76.913  71.487 105.336  0.00  0.00    +0.000 OA
ATOM     29  C   UNK     1      78.883  70.129 105.133  0.00  0.00    +0.000 C 
ATOM     30  N   UNK     1      79.257  68.755 104.756  0.00  0.00    +0.000 N 
ATOM     31  C   UNK     1      79.024  67.666 105.552  0.00  0.00    +0.000 C 
ATOM     32  O   UNK     1      78.324  67.716 106.530  0.00  0.00    +0.000 OA
ATOM     33  H   UNK     1      79.854  60.160 104.419  0.00  0.00    +0.000 HD
ATOM     34  H   UNK     1      76.577  62.763 104.472  0.00  0.00    +0.000 HD
ATOM     35  H   UNK     1      74.456  61.647 107.199  0.00  0.00    +0.000 HD
ATOM     36  H   UNK     1      77.570  64.407 109.072  0.00  0.00    +0.000 HD
ATOM     37  H   UNK     1      76.335  68.028 107.236  0.00  0.00    +0.000 HD
ATOM     38  H   UNK     1      77.054  68.350 105.056  0.00  0.00    +0.000 HD
ATOM     39  H   UNK     1      79.812  68.619 103.910  0.00  0.00    +0.000 HD
ENDROOT
BRANCH   1  42
ATOM     40  C   UNK     1      79.298  66.268 102.633  0.00  0.00    +0.000 C 
ATOM     41  O   UNK     1      80.064  67.161 102.372  0.00  0.00    +0.000 OA
ATOM     42  N   UNK     1      79.040  65.847 103.904  0.00  0.00    +0.000 N 
ATOM     43  H   UNK     1      78.344  65.117 104.054  0.00  0.00    +0.000 HD
BRANCH  40  44
ATOM     44  C   UNK     1      78.581  65.504 101.520  0.00  0.00    +0.000 C 
BRANCH  44  47
ATOM     45  C   UNK     1      80.485  64.445 100.300  0.00  0.00    +0.000 C 
ATOM     46  O   UNK     1      80.455  63.405 100.909  0.00  0.00    +0.000 OA
ATOM     47  N   UNK     1      79.573  65.451 100.438  0.00  0.00    +0.000 N 
ATOM     48  H   UNK     1      79.670  66.297  99.878  0.00  0.00    +0.000 HD
BRANCH  45  49
ATOM     49  C   UNK     1      81.610  64.719  99.306  0.00  0.00    +0.000 C 
BRANCH  49  52
ATOM     50  C   UNK     1      81.428  66.248  97.331  0.00  0.00    +0.000 C 
ATOM     51  O   UNK     1      82.403  66.901  97.611  0.00  0.00    +0.000 OA
ATOM     52  N   UNK     1      80.956  65.225  98.097  0.00  0.00    +0.000 N 
ATOM     53  H   UNK     1      80.080  64.768  97.835  0.00  0.00    +0.000 HD
BRANCH  50  54
ATOM     54  C   UNK     1      80.616  66.483  96.055  0.00  0.00    +0.000 C 
BRANCH  54  57
ATOM     55  C   UNK     1      78.088  66.477  96.293  0.00  0.00    +0.000 C 
ATOM     56  O   UNK     1      77.097  65.805  96.423  0.00  0.00    +0.000 OA
ATOM     57  N   UNK     1      79.296  65.847  96.157  0.00  0.00    +0.000 N 
ATOM     58  H   UNK     1      79.254  64.832  96.242  0.00  0.00    +0.000 HD
BRANCH  55  62
ATOM     59  C   UNK     1      75.694  68.679  96.311  0.00  0.00    +0.000 C 
ATOM     60  N   UNK     1      76.015  68.631  95.088  0.00  0.00    +0.000 NA
ATOM     61  C   UNK     1      77.496  68.582  94.932  0.00  0.00    +0.000 C 
ATOM     62  C   UNK     1      78.057  68.005  96.250  0.00  0.00    +0.000 C 
ATOM     63  S   UNK     1      76.777  68.688  97.301  0.00  0.00    +0.000 S 
BRANCH  59  64
ATOM     64  C   UNK     1      74.235  68.582  96.692  0.00  0.00    +0.000 C 
BRANCH  64  65
ATOM     65  N   UNK     1      74.076  67.427  97.594  0.00  0.00    +0.000 NA
ATOM     66  H   UNK     1      73.379  67.639  98.328  0.00  0.00    +0.000 HD
ATOM     67  H   UNK     1      73.678  66.612  97.097  0.00  0.00    +0.000 HD
ENDBRANCH  64  65
BRANCH  64  68
ATOM     68  C   UNK     1      73.662  69.884  97.291  0.00  0.00    +0.000 C 
ATOM     69  C   UNK     1      73.282  70.858  96.158  0.00  0.00    +0.000 C 
BRANCH  68  71
ATOM     70  C   UNK     1      71.276  70.628  97.986  0.00  0.00    +0.000 C 
ATOM     71  C   UNK     1      72.446  69.657  98.215  0.00  0.00    +0.000 C 
ENDBRANCH  68  71
ENDBRANCH  64  68
ENDBRANCH  59  64
ENDBRANCH  55  62
ENDBRANCH  54  57
BRANCH  54  72
ATOM     72  C   UNK     1      81.375  65.949  94.825  0.00  0.00    +0.000 C 
BRANCH  72  73
ATOM     73  C   UNK     1      81.369  66.882  93.597  0.00  0.00    +0.000 C 
ATOM     74  C   UNK     1      80.332  66.459  92.543  0.00  0.00    +0.000 C 
ATOM     75  C   UNK     1      81.095  68.330  94.044  0.00  0.00    +0.000 C 
ENDBRANCH  72  73
ENDBRANCH  54  72
ENDBRANCH  50  54
ENDBRANCH  49  52
BRANCH  49  76
ATOM     76  C   UNK     1      82.444  63.471  98.965  0.00  0.00    +0.000 C 
BRANCH  76  77
ATOM     77  C   UNK     1      83.957  63.687  99.149  0.00  0.00    +0.000 C 
BRANCH  77  78
ATOM     78  C   UNK     1      84.437  63.595 100.587  0.00  0.00    +0.000 C 
ATOM     79  O   UNK     1      83.783  62.864 101.365  0.00  0.00    +0.000 OA
ATOM     80  O   UNK     1      85.459  64.232 100.918  0.00  0.00    +0.000 OA
ENDBRANCH  77  78
ENDBRANCH  76  77
ENDBRANCH  49  76
ENDBRANCH  45  49
ENDBRANCH  44  47
BRANCH  44  81
ATOM     81  C   UNK     1      77.277  66.216 101.091  0.00  0.00    +0.000 C 
ATOM     82  C   UNK     1      76.738  65.690  99.746  0.00  0.00    +0.000 C 
BRANCH  81  83
ATOM     83  C   UNK     1      76.154  66.106 102.145  0.00  0.00    +0.000 C 
ATOM     84  C   UNK     1      75.632  64.684 102.374  0.00  0.00    +0.000 C 
ENDBRANCH  81  83
ENDBRANCH  44  81
ENDBRANCH  40  44
ENDBRANCH   1  42
BRANCH  25  85
ATOM     85  C   UNK     1      74.426  69.751 104.053  0.00  0.00    +0.000 C 
ATOM     86  C   UNK     1      75.303  69.606 102.796  0.00  0.00    +0.000 C 
BRANCH  85  87
ATOM     87  C   UNK     1      73.823  71.160 104.204  0.00  0.00    +0.000 C 
ATOM     88  C   UNK     1      74.208  72.133 103.083  0.00  0.00    +0.000 C 
ENDBRANCH  85  87
ENDBRANCH  25  85
BRANCH   9  89
ATOM     89  C   UNK     1      77.675  61.004 102.144  0.00  0.00    +0.000 C 
BRANCH  89  90
ATOM     90  C   UNK     1      77.359  59.602 101.648  0.00  0.00    +0.000 C 
ATOM     91  N   UNK     1      77.431  58.635 102.598  0.00  0.00    +0.000 N 
ATOM     92  O   UNK     1      77.054  59.329 100.517  0.00  0.00    +0.000 OA
ATOM     93  H   UNK     1      77.266  57.680 102.319  0.00  0.00    +0.000 HD
ATOM     94  H   UNK     1      77.501  58.882 103.577  0.00  0.00    +0.000 HD
ENDBRANCH  89  90
ENDBRANCH   9  89
BRANCH  13  95
ATOM     95  C   UNK     1      72.828  61.343 105.202  0.00  0.00    +0.000 C 
BRANCH  95  96
ATOM     96  C   UNK     1      72.359  61.081 106.624  0.00  0.00    +0.000 C 
ATOM     97  O   UNK     1      71.818  62.023 107.247  0.00  0.00    +0.000 OA
ATOM     98  O   UNK     1      72.520  59.929 107.082  0.00  0.00    +0.000 OA
ENDBRANCH  95  96
ENDBRANCH  13  95
BRANCH  17  99
ATOM     99  C   UNK     1      74.580  63.321 109.162  0.00  0.00    +0.000 C 
BRANCH  99 100
ATOM    100  C   UNK     1      74.878  63.504 110.621  0.00  0.00    +0.000 A 
ATOM    101  C   UNK     1      74.158  64.181 111.527  0.00  0.00    +0.000 A 
ATOM    102  N   UNK     1      74.800  64.070 112.614  0.00  0.00    +0.000 N 
ATOM    103  C   UNK     1      75.835  63.378 112.381  0.00  0.00    +0.000 A 
ATOM    104  N   UNK     1      75.909  63.016 111.172  0.00  0.00    +0.000 NA
ATOM    105  H   UNK     1      74.525  64.480 113.535  0.00  0.00    +0.000 HD
ENDBRANCH  99 100
ENDBRANCH  17  99
BRANCH  21 106
ATOM    106  C   UNK     1      74.151  66.957 108.990  0.00  0.00    +0.000 C 
BRANCH 106 107
ATOM    107  C   UNK     1      72.695  66.724 108.648  0.00  0.00    +0.000 A 
ATOM    108  C   UNK     1      72.285  65.564 108.104  0.00  0.00    +0.000 A 
ATOM    109  C   UNK     1      70.989  65.353 107.827  0.00  0.00    +0.000 A 
ATOM    110  C   UNK     1      70.082  66.305 108.092  0.00  0.00    +0.000 A 
ATOM    111  C   UNK     1      70.478  67.468 108.631  0.00  0.00    +0.000 A 
ATOM    112  C   UNK     1      71.776  67.673 108.904  0.00  0.00    +0.000 A 
ENDBRANCH 106 107
ENDBRANCH  21 106
BRANCH  29 113
ATOM    113  C   UNK     1      79.685  70.583 106.369  0.00  0.00    +0.000 C 
BRANCH 113 114
ATOM    114  C   UNK     1      78.861  71.258 107.479  0.00  0.00    +0.000 C 
BRANCH 114 115
ATOM    115  C   UNK     1      78.645  70.322 108.678  0.00  0.00    +0.000 C 
BRANCH 115 116
ATOM    116  N   UNK     1      79.725  70.479 109.667  0.00  0.00    +0.000 NA
ATOM    117  H   UNK     1      79.808  69.625 110.245  0.00  0.00    +0.000 HD
ATOM    118  H   UNK     1      80.639  70.576 109.191  0.00  0.00    +0.000 HD
ENDBRANCH 115 116
ENDBRANCH 114 115
ENDBRANCH 113 114
ENDBRANCH  29 113
TORSDOF 33
ENDMDL
MODEL 19
REMARK VINA RESULT:      -6.1      3.786      9.895
REMARK  Name = ./1791.pdb
REMARK  41 active torsions:
REMARK  status: ('A' for Active; 'I' for Inactive)
REMARK    1  A    between atoms: C_1  and  C_2
REMARK    2  A    between atoms: C_2  and  C_3
REMARK    3  A    between atoms: C_3  and  C_4
REMARK    4  A    between atoms: C_3  and  C_5
REMARK    5  A    between atoms: C_5  and  N_6
REMARK    6  A    between atoms: C_5  and  C_7
REMARK    7  A    between atoms: C_10  and  C_12
REMARK    8  A    between atoms: N_14  and  C_15
REMARK    9  A    between atoms: C_15  and  C_16
REMARK   10  A    between atoms: C_15  and  C_20
REMARK   11  A    between atoms: C_16  and  C_17
REMARK   12  A    between atoms: C_17  and  C_18
REMARK   13  A    between atoms: C_17  and  C_19
REMARK   14  A    between atoms: N_22  and  C_23
REMARK   15  A    between atoms: C_23  and  C_24
REMARK   16  A    between atoms: C_23  and  C_29
REMARK   17  A    between atoms: C_24  and  C_25
REMARK   18  A    between atoms: C_25  and  C_26
REMARK   19  A    between atoms: N_31  and  C_32
REMARK   20  A    between atoms: C_32  and  C_33
REMARK   21  A    between atoms: C_32  and  C_37
REMARK   22  A    between atoms: C_33  and  C_34
REMARK   23  A    between atoms: C_33  and  C_35
REMARK   24  A    between atoms: C_35  and  C_36
REMARK   25  A    between atoms: N_39  and  C_40
REMARK   26  A    between atoms: C_48  and  C_49
REMARK   27  A    between atoms: C_49  and  C_50
REMARK   28  A    between atoms: C_56  and  C_57
REMARK   29  A    between atoms: C_57  and  C_58
REMARK   30  A    between atoms: C_64  and  C_65
REMARK   31  A    between atoms: C_65  and  C_66
REMARK   32  A    between atoms: C_74  and  C_75
REMARK   33  A    between atoms: C_75  and  C_76
REMARK   34  A    between atoms: C_85  and  C_97
REMARK   35  A    between atoms: C_89  and  C_90
REMARK   36  A    between atoms: C_90  and  C_91
REMARK   37  A    between atoms: C_91  and  C_92
REMARK   38  A    between atoms: C_92  and  N_93
REMARK   39  A    between atoms: C_97  and  C_98
REMARK   40  A    between atoms: C_97  and  C_99
REMARK   41  A    between atoms: C_99  and  C_100
REMARK                            x       y       z     vdW  Elec       q    Type
REMARK                         _______ _______ _______ _____ _____    ______ ____
ROOT
ATOM      1  C   UNK     1      78.715  68.159 104.289  0.00  0.00    +0.000 C 
ATOM      2  C   UNK     1      79.297  69.413 103.608  0.00  0.00    +0.000 C 
ATOM      3  C   UNK     1      79.288  70.614 104.577  0.00  0.00    +0.000 C 
ATOM      4  C   UNK     1      79.208  71.988 103.882  0.00  0.00    +0.000 C 
ATOM      5  C   UNK     1      78.277  72.993 104.595  0.00  0.00    +0.000 C 
ATOM      6  N   UNK     1      76.925  73.100 104.031  0.00  0.00    +0.000 N 
ATOM      7  C   UNK     1      76.172  72.036 103.627  0.00  0.00    +0.000 C 
ATOM      8  O   UNK     1      76.469  70.882 103.785  0.00  0.00    +0.000 OA
ATOM      9  C   UNK     1      74.868  72.394 102.930  0.00  0.00    +0.000 C 
ATOM     10  N   UNK     1      74.764  71.476 101.793  0.00  0.00    +0.000 N 
ATOM     11  C   UNK     1      73.966  71.713 100.713  0.00  0.00    +0.000 C 
ATOM     12  O   UNK     1      73.161  72.611 100.706  0.00  0.00    +0.000 OA
ATOM     13  C   UNK     1      74.220  70.774  99.538  0.00  0.00    +0.000 C 
ATOM     14  N   UNK     1      75.624  70.874  99.106  0.00  0.00    +0.000 N 
ATOM     15  C   UNK     1      76.650  70.162  99.663  0.00  0.00    +0.000 C 
ATOM     16  O   UNK     1      76.519  69.482 100.648  0.00  0.00    +0.000 OA
ATOM     17  C   UNK     1      77.978  70.321  98.931  0.00  0.00    +0.000 C 
ATOM     18  N   UNK     1      79.087  69.540  99.494  0.00  0.00    +0.000 N 
ATOM     19  C   UNK     1      79.268  68.183  99.476  0.00  0.00    +0.000 C 
ATOM     20  O   UNK     1      80.315  67.719  99.853  0.00  0.00    +0.000 OA
ATOM     21  C   UNK     1      78.143  67.275  98.976  0.00  0.00    +0.000 C 
ATOM     22  N   UNK     1      78.009  66.193  99.965  0.00  0.00    +0.000 N 
ATOM     23  C   UNK     1      76.882  65.426 100.103  0.00  0.00    +0.000 C 
ATOM     24  O   UNK     1      75.844  65.679  99.546  0.00  0.00    +0.000 OA
ATOM     25  C   UNK     1      77.071  64.195 100.990  0.00  0.00    +0.000 C 
ATOM     26  N   UNK     1      77.797  64.595 102.198  0.00  0.00    +0.000 N 
ATOM     27  C   UNK     1      78.619  63.754 102.894  0.00  0.00    +0.000 C 
ATOM     28  O   UNK     1      78.753  62.590 102.608  0.00  0.00    +0.000 OA
ATOM     29  C   UNK     1      79.354  64.397 104.071  0.00  0.00    +0.000 C 
ATOM     30  N   UNK     1      78.885  65.748 104.427  0.00  0.00    +0.000 N 
ATOM     31  C   UNK     1      79.032  66.835 103.609  0.00  0.00    +0.000 C 
ATOM     32  O   UNK     1      79.377  66.740 102.459  0.00  0.00    +0.000 OA
ATOM     33  H   UNK     1      76.461  74.012 104.042  0.00  0.00    +0.000 HD
ATOM     34  H   UNK     1      75.347  70.638 101.831  0.00  0.00    +0.000 HD
ATOM     35  H   UNK     1      75.842  71.516  98.344  0.00  0.00    +0.000 HD
ATOM     36  H   UNK     1      79.889  70.052  99.862  0.00  0.00    +0.000 HD
ATOM     37  H   UNK     1      78.839  65.996 100.534  0.00  0.00    +0.000 HD
ATOM     38  H   UNK     1      77.705  65.561 102.509  0.00  0.00    +0.000 HD
ATOM     39  H   UNK     1      78.530  65.903 105.372  0.00  0.00    +0.000 HD
ENDROOT
BRANCH   1  42
ATOM     40  C   UNK     1      76.587  67.865 105.542  0.00  0.00    +0.000 C 
ATOM     41  O   UNK     1      77.110  67.257 106.442  0.00  0.00    +0.000 OA
ATOM     42  N   UNK     1      77.262  68.315 104.448  0.00  0.00    +0.000 N 
ATOM     43  H   UNK     1      76.745  68.781 103.702  0.00  0.00    +0.000 HD
BRANCH  40  44
ATOM     44  C   UNK     1      75.099  68.213 105.598  0.00  0.00    +0.000 C 
BRANCH  44  47
ATOM     45  C   UNK     1      74.074  68.141 107.874  0.00  0.00    +0.000 C 
ATOM     46  O   UNK     1      73.737  69.298 107.892  0.00  0.00    +0.000 OA
ATOM     47  N   UNK     1      74.620  67.509 106.795  0.00  0.00    +0.000 N 
ATOM     48  H   UNK     1      74.871  66.522 106.864  0.00  0.00    +0.000 HD
BRANCH  45  49
ATOM     49  C   UNK     1      73.919  67.278 109.123  0.00  0.00    +0.000 C 
BRANCH  49  52
ATOM     50  C   UNK     1      75.516  65.431 109.679  0.00  0.00    +0.000 C 
ATOM     51  O   UNK     1      75.866  65.905 110.731  0.00  0.00    +0.000 OA
ATOM     52  N   UNK     1      74.631  66.031 108.834  0.00  0.00    +0.000 N 
ATOM     53  H   UNK     1      74.443  65.605 107.925  0.00  0.00    +0.000 HD
BRANCH  50  54
ATOM     54  C   UNK     1      76.015  64.072 109.180  0.00  0.00    +0.000 C 
BRANCH  54  57
ATOM     55  C   UNK     1      74.761  61.864 109.178  0.00  0.00    +0.000 C 
ATOM     56  O   UNK     1      74.098  61.089 109.819  0.00  0.00    +0.000 OA
ATOM     57  N   UNK     1      75.248  62.983 109.799  0.00  0.00    +0.000 N 
ATOM     58  H   UNK     1      74.946  63.092 110.766  0.00  0.00    +0.000 HD
BRANCH  55  62
ATOM     59  C   UNK     1      72.975  61.597 106.472  0.00  0.00    +0.000 C 
ATOM     60  N   UNK     1      73.256  60.392 106.737  0.00  0.00    +0.000 NA
ATOM     61  C   UNK     1      74.678  60.261 107.163  0.00  0.00    +0.000 C 
ATOM     62  C   UNK     1      75.101  61.645 107.703  0.00  0.00    +0.000 C 
ATOM     63  S   UNK     1      74.042  62.593 106.613  0.00  0.00    +0.000 S 
BRANCH  59  64
ATOM     64  C   UNK     1      71.542  61.967 106.166  0.00  0.00    +0.000 C 
BRANCH  64  65
ATOM     65  N   UNK     1      71.344  63.375 106.553  0.00  0.00    +0.000 NA
ATOM     66  H   UNK     1      70.338  63.570 106.693  0.00  0.00    +0.000 HD
ATOM     67  H   UNK     1      71.770  63.577 107.474  0.00  0.00    +0.000 HD
ENDBRANCH  64  65
BRANCH  64  68
ATOM     68  C   UNK     1      71.128  61.690 104.705  0.00  0.00    +0.000 C 
ATOM     69  C   UNK     1      69.900  62.549 104.338  0.00  0.00    +0.000 C 
BRANCH  68  71
ATOM     70  C   UNK     1      72.679  60.694 102.880  0.00  0.00    +0.000 C 
ATOM     71  C   UNK     1      72.260  61.935 103.684  0.00  0.00    +0.000 C 
ENDBRANCH  68  71
ENDBRANCH  64  68
ENDBRANCH  59  64
ENDBRANCH  55  62
ENDBRANCH  54  57
BRANCH  54  72
ATOM     72  C   UNK     1      77.517  63.905 109.475  0.00  0.00    +0.000 C 
BRANCH  72  73
ATOM     73  C   UNK     1      78.457  64.282 108.312  0.00  0.00    +0.000 C 
ATOM     74  C   UNK     1      79.900  63.801 108.545  0.00  0.00    +0.000 C 
ATOM     75  C   UNK     1      77.919  63.694 106.995  0.00  0.00    +0.000 C 
ENDBRANCH  72  73
ENDBRANCH  54  72
ENDBRANCH  50  54
ENDBRANCH  49  52
BRANCH  49  76
ATOM     76  C   UNK     1      72.453  66.971 109.478  0.00  0.00    +0.000 C 
BRANCH  76  77
ATOM     77  C   UNK     1      72.307  66.065 110.714  0.00  0.00    +0.000 C 
BRANCH  77  78
ATOM     78  C   UNK     1      71.731  64.690 110.421  0.00  0.00    +0.000 C 
ATOM     79  O   UNK     1      70.714  64.344 111.064  0.00  0.00    +0.000 OA
ATOM     80  O   UNK     1      72.282  63.984 109.549  0.00  0.00    +0.000 OA
ENDBRANCH  77  78
ENDBRANCH  76  77
ENDBRANCH  49  76
ENDBRANCH  45  49
ENDBRANCH  44  47
BRANCH  44  81
ATOM     81  C   UNK     1      74.362  67.766 104.315  0.00  0.00    +0.000 C 
ATOM     82  C   UNK     1      73.683  66.392 104.478  0.00  0.00    +0.000 C 
BRANCH  81  83
ATOM     83  C   UNK     1      73.301  68.783 103.842  0.00  0.00    +0.000 C 
ATOM     84  C   UNK     1      72.121  68.967 104.802  0.00  0.00    +0.000 C 
ENDBRANCH  81  83
ENDBRANCH  44  81
ENDBRANCH  40  44
ENDBRANCH   1  42
BRANCH  25  85
ATOM     85  C   UNK     1      75.819  63.347 101.318  0.00  0.00    +0.000 C 
ATOM     86  C   UNK     1      75.439  63.408 102.809  0.00  0.00    +0.000 C 
BRANCH  85  87
ATOM     87  C   UNK     1      75.926  61.907 100.785  0.00  0.00    +0.000 C 
ATOM     88  C   UNK     1      77.270  61.579 100.123  0.00  0.00    +0.000 C 
ENDBRANCH  85  87
ENDBRANCH  25  85
BRANCH   9  89
ATOM     89  C   UNK     1      73.714  72.259 103.934  0.00  0.00    +0.000 C 
BRANCH  89  90
ATOM     90  C   UNK     1      72.955  73.567 104.100  0.00  0.00    +0.000 C 
ATOM     91  N   UNK     1      73.212  74.496 103.145  0.00  0.00    +0.000 N 
ATOM     92  O   UNK     1      72.171  73.796 104.984  0.00  0.00    +0.000 OA
ATOM     93  H   UNK     1      72.764  75.397 103.223  0.00  0.00    +0.000 HD
ATOM     94  H   UNK     1      73.719  74.244 102.306  0.00  0.00    +0.000 HD
ENDBRANCH  89  90
ENDBRANCH   9  89
BRANCH  13  95
ATOM     95  C   UNK     1      73.290  71.047  98.338  0.00  0.00    +0.000 C 
BRANCH  95  96
ATOM     96  C   UNK     1      71.978  70.280  98.373  0.00  0.00    +0.000 C 
ATOM     97  O   UNK     1      71.936  69.217  99.034  0.00  0.00    +0.000 OA
ATOM     98  O   UNK     1      71.006  70.768  97.756  0.00  0.00    +0.000 OA
ENDBRANCH  95  96
ENDBRANCH  13  95
BRANCH  17  99
ATOM     99  C   UNK     1      77.890  70.261  97.395  0.00  0.00    +0.000 C 
BRANCH  99 100
ATOM    100  C   UNK     1      78.566  71.414  96.713  0.00  0.00    +0.000 A 
ATOM    101  C   UNK     1      78.609  72.693  97.113  0.00  0.00    +0.000 A 
ATOM    102  N   UNK     1      79.277  73.298  96.222  0.00  0.00    +0.000 N 
ATOM    103  C   UNK     1      79.611  72.446  95.345  0.00  0.00    +0.000 A 
ATOM    104  N   UNK     1      79.193  71.285  95.620  0.00  0.00    +0.000 NA
ATOM    105  H   UNK     1      79.506  74.318  96.211  0.00  0.00    +0.000 HD
ENDBRANCH  99 100
ENDBRANCH  17  99
BRANCH  21 106
ATOM    106  C   UNK     1      78.574  66.667  97.624  0.00  0.00    +0.000 C 
BRANCH 106 107
ATOM    107  C   UNK     1      77.695  67.134  96.482  0.00  0.00    +0.000 A 
ATOM    108  C   UNK     1      76.354  67.136  96.593  0.00  0.00    +0.000 A 
ATOM    109  C   UNK     1      75.581  67.575  95.588  0.00  0.00    +0.000 A 
ATOM    110  C   UNK     1      76.142  68.020  94.454  0.00  0.00    +0.000 A 
ATOM    111  C   UNK     1      77.478  68.018  94.329  0.00  0.00    +0.000 A 
ATOM    112  C   UNK     1      78.245  67.577  95.337  0.00  0.00    +0.000 A 
ENDBRANCH 106 107
ENDBRANCH  21 106
BRANCH  29 113
ATOM    113  C   UNK     1      80.891  64.378 103.950  0.00  0.00    +0.000 C 
BRANCH 113 114
ATOM    114  C   UNK     1      81.630  63.597 105.050  0.00  0.00    +0.000 C 
BRANCH 114 115
ATOM    115  C   UNK     1      81.325  62.092 104.983  0.00  0.00    +0.000 C 
BRANCH 115 116
ATOM    116  N   UNK     1      81.545  61.454 106.292  0.00  0.00    +0.000 NA
ATOM    117  H   UNK     1      81.964  62.131 106.954  0.00  0.00    +0.000 HD
ATOM    118  H   UNK     1      80.642  61.182 106.717  0.00  0.00    +0.000 HD
ENDBRANCH 115 116
ENDBRANCH 114 115
ENDBRANCH 113 114
ENDBRANCH  29 113
TORSDOF 33
ENDMDL
MODEL 20
REMARK VINA RESULT:      -6.1      3.478     10.192
REMARK  Name = ./1791.pdb
REMARK  41 active torsions:
REMARK  status: ('A' for Active; 'I' for Inactive)
REMARK    1  A    between atoms: C_1  and  C_2
REMARK    2  A    between atoms: C_2  and  C_3
REMARK    3  A    between atoms: C_3  and  C_4
REMARK    4  A    between atoms: C_3  and  C_5
REMARK    5  A    between atoms: C_5  and  N_6
REMARK    6  A    between atoms: C_5  and  C_7
REMARK    7  A    between atoms: C_10  and  C_12
REMARK    8  A    between atoms: N_14  and  C_15
REMARK    9  A    between atoms: C_15  and  C_16
REMARK   10  A    between atoms: C_15  and  C_20
REMARK   11  A    between atoms: C_16  and  C_17
REMARK   12  A    between atoms: C_17  and  C_18
REMARK   13  A    between atoms: C_17  and  C_19
REMARK   14  A    between atoms: N_22  and  C_23
REMARK   15  A    between atoms: C_23  and  C_24
REMARK   16  A    between atoms: C_23  and  C_29
REMARK   17  A    between atoms: C_24  and  C_25
REMARK   18  A    between atoms: C_25  and  C_26
REMARK   19  A    between atoms: N_31  and  C_32
REMARK   20  A    between atoms: C_32  and  C_33
REMARK   21  A    between atoms: C_32  and  C_37
REMARK   22  A    between atoms: C_33  and  C_34
REMARK   23  A    between atoms: C_33  and  C_35
REMARK   24  A    between atoms: C_35  and  C_36
REMARK   25  A    between atoms: N_39  and  C_40
REMARK   26  A    between atoms: C_48  and  C_49
REMARK   27  A    between atoms: C_49  and  C_50
REMARK   28  A    between atoms: C_56  and  C_57
REMARK   29  A    between atoms: C_57  and  C_58
REMARK   30  A    between atoms: C_64  and  C_65
REMARK   31  A    between atoms: C_65  and  C_66
REMARK   32  A    between atoms: C_74  and  C_75
REMARK   33  A    between atoms: C_75  and  C_76
REMARK   34  A    between atoms: C_85  and  C_97
REMARK   35  A    between atoms: C_89  and  C_90
REMARK   36  A    between atoms: C_90  and  C_91
REMARK   37  A    between atoms: C_91  and  C_92
REMARK   38  A    between atoms: C_92  and  N_93
REMARK   39  A    between atoms: C_97  and  C_98
REMARK   40  A    between atoms: C_97  and  C_99
REMARK   41  A    between atoms: C_99  and  C_100
REMARK                            x       y       z     vdW  Elec       q    Type
REMARK                         _______ _______ _______ _____ _____    ______ ____
ROOT
ATOM      1  C   UNK     1      80.546  64.628 104.285  0.00  0.00    +0.000 C 
ATOM      2  C   UNK     1      80.491  63.612 105.442  0.00  0.00    +0.000 C 
ATOM      3  C   UNK     1      81.327  62.358 105.107  0.00  0.00    +0.000 C 
ATOM      4  C   UNK     1      80.851  61.072 105.812  0.00  0.00    +0.000 C 
ATOM      5  C   UNK     1      80.889  59.818 104.914  0.00  0.00    +0.000 C 
ATOM      6  N   UNK     1      79.606  59.451 104.298  0.00  0.00    +0.000 N 
ATOM      7  C   UNK     1      78.734  60.344 103.746  0.00  0.00    +0.000 C 
ATOM      8  O   UNK     1      78.952  61.515 103.592  0.00  0.00    +0.000 OA
ATOM      9  C   UNK     1      77.400  59.757 103.310  0.00  0.00    +0.000 C 
ATOM     10  N   UNK     1      76.386  60.725 103.735  0.00  0.00    +0.000 N 
ATOM     11  C   UNK     1      75.068  60.409 103.885  0.00  0.00    +0.000 C 
ATOM     12  O   UNK     1      74.624  59.353 103.509  0.00  0.00    +0.000 OA
ATOM     13  C   UNK     1      74.251  61.485 104.594  0.00  0.00    +0.000 C 
ATOM     14  N   UNK     1      74.816  61.754 105.926  0.00  0.00    +0.000 N 
ATOM     15  C   UNK     1      75.838  62.631 106.162  0.00  0.00    +0.000 C 
ATOM     16  O   UNK     1      76.459  63.169 105.281  0.00  0.00    +0.000 OA
ATOM     17  C   UNK     1      76.130  62.853 107.642  0.00  0.00    +0.000 C 
ATOM     18  N   UNK     1      77.204  63.816 107.919  0.00  0.00    +0.000 N 
ATOM     19  C   UNK     1      77.197  65.173 107.742  0.00  0.00    +0.000 C 
ATOM     20  O   UNK     1      78.113  65.832 108.166  0.00  0.00    +0.000 OA
ATOM     21  C   UNK     1      76.026  65.836 107.013  0.00  0.00    +0.000 C 
ATOM     22  N   UNK     1      76.615  66.762 106.033  0.00  0.00    +0.000 N 
ATOM     23  C   UNK     1      75.946  67.231 104.933  0.00  0.00    +0.000 C 
ATOM     24  O   UNK     1      74.880  66.795 104.579  0.00  0.00    +0.000 OA
ATOM     25  C   UNK     1      76.650  68.386 104.220  0.00  0.00    +0.000 C 
ATOM     26  N   UNK     1      78.072  68.056 104.086  0.00  0.00    +0.000 N 
ATOM     27  C   UNK     1      79.061  68.998 104.053  0.00  0.00    +0.000 C 
ATOM     28  O   UNK     1      78.833  70.183 104.057  0.00  0.00    +0.000 OA
ATOM     29  C   UNK     1      80.484  68.439 104.003  0.00  0.00    +0.000 C 
ATOM     30  N   UNK     1      80.568  66.990 103.752  0.00  0.00    +0.000 N 
ATOM     31  C   UNK     1      80.119  66.046 104.635  0.00  0.00    +0.000 C 
ATOM     32  O   UNK     1      79.445  66.323 105.594  0.00  0.00    +0.000 OA
ATOM     33  H   UNK     1      79.394  58.459 104.165  0.00  0.00    +0.000 HD
ATOM     34  H   UNK     1      76.718  61.669 103.942  0.00  0.00    +0.000 HD
ATOM     35  H   UNK     1      74.420  61.252 106.721  0.00  0.00    +0.000 HD
ATOM     36  H   UNK     1      78.036  63.473 108.399  0.00  0.00    +0.000 HD
ATOM     37  H   UNK     1      77.563  67.095 106.238  0.00  0.00    +0.000 HD
ATOM     38  H   UNK     1      78.329  67.071 104.050  0.00  0.00    +0.000 HD
ATOM     39  H   UNK     1      81.082  66.671 102.930  0.00  0.00    +0.000 HD
ENDROOT
BRANCH   1  42
ATOM     40  C   UNK     1      78.472  64.505 102.917  0.00  0.00    +0.000 C 
ATOM     41  O   UNK     1      77.854  65.239 103.648  0.00  0.00    +0.000 OA
ATOM     42  N   UNK     1      79.759  64.125 103.150  0.00  0.00    +0.000 N 
ATOM     43  H   UNK     1      80.204  63.464 102.513  0.00  0.00    +0.000 HD
BRANCH  40  44
ATOM     44  C   UNK     1      77.842  63.977 101.628  0.00  0.00    +0.000 C 
BRANCH  44  47
ATOM     45  C   UNK     1      79.466  63.525  99.786  0.00  0.00    +0.000 C 
ATOM     46  O   UNK     1      79.233  62.345  99.706  0.00  0.00    +0.000 OA
ATOM     47  N   UNK     1      78.783  64.398 100.582  0.00  0.00    +0.000 N 
ATOM     48  H   UNK     1      79.043  65.384 100.584  0.00  0.00    +0.000 HD
BRANCH  45  49
ATOM     49  C   UNK     1      80.606  64.137  98.977  0.00  0.00    +0.000 C 
BRANCH  49  52
ATOM     50  C   UNK     1      79.483  65.913  97.615  0.00  0.00    +0.000 C 
ATOM     51  O   UNK     1      79.419  66.714  98.515  0.00  0.00    +0.000 OA
ATOM     52  N   UNK     1      79.990  64.656  97.754  0.00  0.00    +0.000 N 
ATOM     53  H   UNK     1      79.939  64.008  96.965  0.00  0.00    +0.000 HD
BRANCH  50  54
ATOM     54  C   UNK     1      79.017  66.233  96.192  0.00  0.00    +0.000 C 
BRANCH  54  57
ATOM     55  C   UNK     1      76.539  66.777  96.306  0.00  0.00    +0.000 C 
ATOM     56  O   UNK     1      75.417  66.359  96.182  0.00  0.00    +0.000 OA
ATOM     57  N   UNK     1      77.586  65.936  96.039  0.00  0.00    +0.000 N 
ATOM     58  H   UNK     1      77.312  64.982  95.808  0.00  0.00    +0.000 HD
BRANCH  55  62
ATOM     59  C   UNK     1      74.696  69.327  97.130  0.00  0.00    +0.000 C 
ATOM     60  N   UNK     1      75.011  69.591  95.933  0.00  0.00    +0.000 NA
ATOM     61  C   UNK     1      76.446  69.275  95.682  0.00  0.00    +0.000 C 
ATOM     62  C   UNK     1      76.849  68.213  96.729  0.00  0.00    +0.000 C 
ATOM     63  S   UNK     1      75.743  68.798  98.010  0.00  0.00    +0.000 S 
BRANCH  59  64
ATOM     64  C   UNK     1      73.249  69.435  97.549  0.00  0.00    +0.000 C 
BRANCH  64  65
ATOM     65  N   UNK     1      72.769  68.080  97.878  0.00  0.00    +0.000 NA
ATOM     66  H   UNK     1      72.385  67.621  97.034  0.00  0.00    +0.000 HD
ATOM     67  H   UNK     1      73.547  67.464  98.167  0.00  0.00    +0.000 HD
ENDBRANCH  64  65
BRANCH  64  68
ATOM     68  C   UNK     1      73.006  70.443  98.692  0.00  0.00    +0.000 C 
ATOM     69  C   UNK     1      73.616  71.810  98.322  0.00  0.00    +0.000 C 
BRANCH  68  71
ATOM     70  C   UNK     1      71.215  70.584 100.564  0.00  0.00    +0.000 C 
ATOM     71  C   UNK     1      71.516  70.618  99.057  0.00  0.00    +0.000 C 
ENDBRANCH  68  71
ENDBRANCH  64  68
ENDBRANCH  59  64
ENDBRANCH  55  62
ENDBRANCH  54  57
BRANCH  54  72
ATOM     72  C   UNK     1      79.843  65.440  95.161  0.00  0.00    +0.000 C 
BRANCH  72  73
ATOM     73  C   UNK     1      80.005  66.125  93.789  0.00  0.00    +0.000 C 
ATOM     74  C   UNK     1      79.702  67.632  93.846  0.00  0.00    +0.000 C 
ATOM     75  C   UNK     1      81.434  65.901  93.260  0.00  0.00    +0.000 C 
ENDBRANCH  72  73
ENDBRANCH  54  72
ENDBRANCH  50  54
ENDBRANCH  49  52
BRANCH  49  76
ATOM     76  C   UNK     1      81.712  63.129  98.617  0.00  0.00    +0.000 C 
BRANCH  76  77
ATOM     77  C   UNK     1      83.029  63.380  99.374  0.00  0.00    +0.000 C 
BRANCH  77  78
ATOM     78  C   UNK     1      82.851  63.897 100.791  0.00  0.00    +0.000 C 
ATOM     79  O   UNK     1      82.406  63.095 101.644  0.00  0.00    +0.000 OA
ATOM     80  O   UNK     1      83.172  65.078 101.041  0.00  0.00    +0.000 OA
ENDBRANCH  77  78
ENDBRANCH  76  77
ENDBRANCH  49  76
ENDBRANCH  45  49
ENDBRANCH  44  47
BRANCH  44  81
ATOM     81  C   UNK     1      76.423  64.551 101.412  0.00  0.00    +0.000 C 
ATOM     82  C   UNK     1      76.247  65.166 100.010  0.00  0.00    +0.000 C 
BRANCH  81  83
ATOM     83  C   UNK     1      75.308  63.506 101.630  0.00  0.00    +0.000 C 
ATOM     84  C   UNK     1      75.304  62.357 100.616  0.00  0.00    +0.000 C 
ENDBRANCH  81  83
ENDBRANCH  44  81
ENDBRANCH  40  44
ENDBRANCH   1  42
BRANCH  25  85
ATOM     85  C   UNK     1      76.042  68.885 102.888  0.00  0.00    +0.000 C 
ATOM     86  C   UNK     1      76.840  68.413 101.659  0.00  0.00    +0.000 C 
BRANCH  85  87
ATOM     87  C   UNK     1      75.786  70.404 102.889  0.00  0.00    +0.000 C 
ATOM     88  C   UNK     1      74.430  70.814 102.301  0.00  0.00    +0.000 C 
ENDBRANCH  85  87
ENDBRANCH  25  85
BRANCH   9  89
ATOM     89  C   UNK     1      77.429  59.527 101.792  0.00  0.00    +0.000 C 
BRANCH  89  90
ATOM     90  C   UNK     1      77.015  58.110 101.428  0.00  0.00    +0.000 C 
ATOM     91  N   UNK     1      76.698  57.322 102.487  0.00  0.00    +0.000 N 
ATOM     92  O   UNK     1      76.947  57.684 100.304  0.00  0.00    +0.000 OA
ATOM     93  H   UNK     1      76.449  56.361 102.308  0.00  0.00    +0.000 HD
ATOM     94  H   UNK     1      76.572  57.725 103.406  0.00  0.00    +0.000 HD
ENDBRANCH  89  90
ENDBRANCH   9  89
BRANCH  13  95
ATOM     95  C   UNK     1      72.759  61.113 104.731  0.00  0.00    +0.000 C 
BRANCH  95  96
ATOM     96  C   UNK     1      72.283  60.943 106.165  0.00  0.00    +0.000 C 
ATOM     97  O   UNK     1      72.362  59.803 106.678  0.00  0.00    +0.000 OA
ATOM     98  O   UNK     1      71.861  61.959 106.758  0.00  0.00    +0.000 OA
ENDBRANCH  95  96
ENDBRANCH  13  95
BRANCH  17  99
ATOM     99  C   UNK     1      74.887  63.031 108.534  0.00  0.00    +0.000 C 
BRANCH  99 100
ATOM    100  C   UNK     1      75.207  63.081 109.999  0.00  0.00    +0.000 A 
ATOM    101  C   UNK     1      75.452  62.050 110.821  0.00  0.00    +0.000 A 
ATOM    102  N   UNK     1      75.658  62.572 111.957  0.00  0.00    +0.000 N 
ATOM    103  C   UNK     1      75.544  63.828 111.831  0.00  0.00    +0.000 A 
ATOM    104  N   UNK     1      75.271  64.169 110.645  0.00  0.00    +0.000 NA
ATOM    105  H   UNK     1      75.879  62.058 112.840  0.00  0.00    +0.000 HD
ENDBRANCH  99 100
ENDBRANCH  17  99
BRANCH  21 106
ATOM    106  C   UNK     1      75.211  66.649 108.043  0.00  0.00    +0.000 C 
BRANCH 106 107
ATOM    107  C   UNK     1      73.729  66.645 107.727  0.00  0.00    +0.000 A 
ATOM    108  C   UNK     1      73.135  65.566 107.188  0.00  0.00    +0.000 A 
ATOM    109  C   UNK     1      71.817  65.559 106.935  0.00  0.00    +0.000 A 
ATOM    110  C   UNK     1      71.074  66.638 107.218  0.00  0.00    +0.000 A 
ATOM    111  C   UNK     1      71.655  67.724 107.752  0.00  0.00    +0.000 A 
ATOM    112  C   UNK     1      72.973  67.724 108.003  0.00  0.00    +0.000 A 
ENDBRANCH 106 107
ENDBRANCH  21 106
BRANCH  29 113
ATOM    113  C   UNK     1      81.364  68.827 105.209  0.00  0.00    +0.000 C 
BRANCH 113 114
ATOM    114  C   UNK     1      82.678  69.546 104.862  0.00  0.00    +0.000 C 
BRANCH 114 115
ATOM    115  C   UNK     1      82.708  70.002 103.395  0.00  0.00    +0.000 C 
BRANCH 115 116
ATOM    116  N   UNK     1      83.242  71.370 103.283  0.00  0.00    +0.000 NA
ATOM    117  H   UNK     1      84.195  71.416 103.683  0.00  0.00    +0.000 HD
ATOM    118  H   UNK     1      83.351  71.634 102.288  0.00  0.00    +0.000 HD
ENDBRANCH 115 116
ENDBRANCH 114 115
ENDBRANCH 113 114
ENDBRANCH  29 113
TORSDOF 33
ENDMDL
