MODEL 1
REMARK VINA RESULT:      -8.7      0.000      0.000
REMARK  Name = ./3951.pdb
REMARK  56 active torsions:
REMARK  status: ('A' for Active; 'I' for Inactive)
REMARK    1  A    between atoms: O_1  and  C_2
REMARK    2  A    between atoms: C_4  and  C_10
REMARK    3  A    between atoms: C_6  and  O_9
REMARK    4  A    between atoms: C_7  and  O_8
REMARK    5  A    between atoms: C_10  and  O_12
REMARK    6  A    between atoms: O_12  and  C_13
REMARK    7  A    between atoms: C_14  and  O_15
REMARK    8  A    between atoms: C_16  and  O_78
REMARK    9  A    between atoms: C_18  and  C_20
REMARK   10  A    between atoms: C_20  and  O_22
REMARK   11  A    between atoms: O_22  and  C_23
REMARK   12  A    between atoms: C_23  and  C_24
REMARK   13  A    between atoms: O_79  and  C_85
REMARK   14  A    between atoms: O_80  and  C_82
REMARK   15  A    between atoms: O_83  and  C_84
REMARK   16  A    between atoms: C_87  and  C_89
REMARK   17  A    between atoms: C_89  and  O_90
REMARK   18  A    between atoms: O_90  and  C_96
REMARK   19  A    between atoms: O_91  and  C_93
REMARK   20  A    between atoms: O_94  and  C_95
REMARK   21  A    between atoms: C_98  and  C_100
REMARK   22  A    between atoms: C_100  and  O_101
REMARK   23  A    between atoms: O_101  and  C_102
REMARK   24  A    between atoms: O_103  and  C_109
REMARK   25  A    between atoms: O_104  and  C_106
REMARK   26  A    between atoms: O_107  and  C_108
REMARK   27  A    between atoms: C_111  and  C_113
REMARK   28  A    between atoms: C_113  and  O_114
REMARK   29  A    between atoms: O_114  and  C_120
REMARK   30  A    between atoms: O_115  and  C_117
REMARK   31  A    between atoms: O_118  and  C_119
REMARK   32  A    between atoms: C_122  and  C_124
REMARK   33  A    between atoms: C_124  and  O_125
REMARK   34  A    between atoms: O_125  and  C_126
REMARK   35  A    between atoms: O_127  and  C_133
REMARK   36  A    between atoms: O_128  and  C_130
REMARK   37  A    between atoms: O_131  and  C_132
REMARK   38  A    between atoms: C_135  and  C_137
REMARK   39  A    between atoms: C_137  and  O_138
REMARK   40  A    between atoms: O_138  and  C_144
REMARK   41  A    between atoms: O_139  and  C_141
REMARK   42  A    between atoms: O_142  and  C_143
REMARK   43  A    between atoms: C_146  and  C_148
REMARK   44  A    between atoms: C_148  and  O_149
REMARK   45  A    between atoms: O_149  and  C_150
REMARK   46  A    between atoms: O_151  and  C_157
REMARK   47  A    between atoms: O_152  and  C_154
REMARK   48  A    between atoms: O_155  and  C_156
REMARK   49  A    between atoms: C_159  and  C_161
REMARK   50  A    between atoms: C_161  and  O_162
REMARK   51  A    between atoms: O_162  and  C_168
REMARK   52  A    between atoms: O_163  and  C_165
REMARK   53  A    between atoms: O_166  and  C_167
REMARK   54  A    between atoms: C_170  and  C_172
REMARK   55  A    between atoms: C_172  and  O_173
REMARK   56  A    between atoms: O_173  and  C_174
REMARK                            x       y       z     vdW  Elec       q    Type
REMARK                         _______ _______ _______ _____ _____    ______ ____
ROOT
ATOM      1  C   UNK     1      73.339  62.993 103.634  0.00  0.00    +0.000 C 
ATOM      2  O   UNK     1      73.847  63.640 102.501  0.00  0.00    +0.000 OA
ATOM      3  C   UNK     1      72.990  64.009 104.730  0.00  0.00    +0.000 C 
ATOM      4  C   UNK     1      74.179  64.942 104.996  0.00  0.00    +0.000 C 
ATOM      5  C   UNK     1      74.518  65.620 103.666  0.00  0.00    +0.000 C 
ATOM      6  C   UNK     1      74.928  64.499 102.750  0.00  0.00    +0.000 C 
ENDROOT
BRANCH   5   7
ATOM      7  O   UNK     1      75.517  66.580 103.866  0.00  0.00    +0.000 OA
BRANCH   7   9
ATOM      8  O   UNK     1      75.719  68.310 102.506  0.00  0.00    +0.000 OA
ATOM      9  C   UNK     1      75.218  67.883 103.532  0.00  0.00    +0.000 C 
BRANCH   9  15
ATOM     10  C   UNK     1      73.116  68.704 104.247  0.00  0.00    +0.000 A 
ATOM     11  C   UNK     1      72.360  69.502 105.016  0.00  0.00    +0.000 A 
ATOM     12  C   UNK     1      72.955  70.321 105.902  0.00  0.00    +0.000 A 
ATOM     13  C   UNK     1      74.299  70.338 106.023  0.00  0.00    +0.000 A 
ATOM     14  C   UNK     1      75.020  69.513 105.241  0.00  0.00    +0.000 A 
ATOM     15  C   UNK     1      74.458  68.690 104.337  0.00  0.00    +0.000 A 
BRANCH  11  17
ATOM     16  H   UNK     1      70.738  69.859 104.024  0.00  0.00    +0.000 HD
ATOM     17  O   UNK     1      71.005  69.514 104.891  0.00  0.00    +0.000 OA
ENDBRANCH  11  17
BRANCH  12  19
ATOM     18  H   UNK     1      72.088  71.997 106.251  0.00  0.00    +0.000 HD
ATOM     19  O   UNK     1      72.170  71.125 106.669  0.00  0.00    +0.000 OA
ENDBRANCH  12  19
BRANCH  13  20
ATOM     20  O   UNK     1      74.939  71.163 106.913  0.00  0.00    +0.000 OA
BRANCH  20  22
ATOM     21  O   UNK     1      74.760  69.911 108.728  0.00  0.00    +0.000 OA
ATOM     22  C   UNK     1      75.508  70.549 108.008  0.00  0.00    +0.000 C 
BRANCH  22  28
ATOM     23  C   UNK     1      77.308  70.391 109.523  0.00  0.00    +0.000 A 
ATOM     24  C   UNK     1      78.614  70.488 109.823  0.00  0.00    +0.000 A 
ATOM     25  C   UNK     1      79.483  70.856 108.868  0.00  0.00    +0.000 A 
ATOM     26  C   UNK     1      79.048  71.123 107.624  0.00  0.00    +0.000 A 
ATOM     27  C   UNK     1      77.736  71.018 107.350  0.00  0.00    +0.000 A 
ATOM     28  C   UNK     1      76.844  70.651 108.288  0.00  0.00    +0.000 A 
BRANCH  26  30
ATOM     29  H   UNK     1      80.038  70.764 106.038  0.00  0.00    +0.000 HD
ATOM     30  O   UNK     1      79.947  71.494 106.671  0.00  0.00    +0.000 OA
ENDBRANCH  26  30
BRANCH  24  32
ATOM     31  H   UNK     1      78.322  69.960 111.646  0.00  0.00    +0.000 HD
ATOM     32  O   UNK     1      79.063  70.224 111.078  0.00  0.00    +0.000 OA
ENDBRANCH  24  32
BRANCH  25  34
ATOM     33  H   UNK     1      81.323  70.772 108.366  0.00  0.00    +0.000 HD
ATOM     34  O   UNK     1      80.806  70.958 109.167  0.00  0.00    +0.000 OA
ENDBRANCH  25  34
ENDBRANCH  22  28
ENDBRANCH  20  22
ENDBRANCH  13  20
ENDBRANCH   9  15
ENDBRANCH   7   9
ENDBRANCH   5   7
BRANCH   1  35
ATOM     35  C   UNK     1      72.103  62.220 103.163  0.00  0.00    +0.000 C 
BRANCH  35  36
ATOM     36  O   UNK     1      71.328  63.060 102.340  0.00  0.00    +0.000 OA
BRANCH  36  37
ATOM     37  C   UNK     1      70.054  62.689 101.971  0.00  0.00    +0.000 C 
ATOM     38  O   UNK     1      69.115  63.044 102.659  0.00  0.00    +0.000 OA
BRANCH  37  43
ATOM     39  C   UNK     1      68.446  60.685  99.421  0.00  0.00    +0.000 A 
ATOM     40  C   UNK     1      69.438  60.605  98.516  0.00  0.00    +0.000 A 
ATOM     41  C   UNK     1      70.599  61.251  98.715  0.00  0.00    +0.000 A 
ATOM     42  C   UNK     1      70.789  61.925  99.861  0.00  0.00    +0.000 A 
ATOM     43  C   UNK     1      69.837  61.995 100.809  0.00  0.00    +0.000 A 
ATOM     44  C   UNK     1      68.668  61.377 100.555  0.00  0.00    +0.000 A 
BRANCH  41  46
ATOM     45  H   UNK     1      71.667  60.330  97.415  0.00  0.00    +0.000 HD
ATOM     46  O   UNK     1      71.536  61.245  97.727  0.00  0.00    +0.000 OA
ENDBRANCH  41  46
BRANCH  40  47
ATOM     47  O   UNK     1      69.260  59.934  97.347  0.00  0.00    +0.000 OA
ATOM     48  H   UNK     1      70.081  60.023  96.832  0.00  0.00    +0.000 HD
ENDBRANCH  40  47
BRANCH  39  49
ATOM     49  O   UNK     1      67.247  60.075  99.161  0.00  0.00    +0.000 OA
BRANCH  49  50
ATOM     50  C   UNK     1      66.859  59.137 100.092  0.00  0.00    +0.000 C 
ATOM     51  O   UNK     1      67.750  58.444 100.549  0.00  0.00    +0.000 OA
BRANCH  50  54
ATOM     52  C   UNK     1      63.652  59.813 101.578  0.00  0.00    +0.000 A 
ATOM     53  C   UNK     1      64.932  59.938 101.190  0.00  0.00    +0.000 A 
ATOM     54  C   UNK     1      65.559  58.979 100.484  0.00  0.00    +0.000 A 
ATOM     55  C   UNK     1      64.856  57.872 100.179  0.00  0.00    +0.000 A 
ATOM     56  C   UNK     1      63.579  57.717 100.563  0.00  0.00    +0.000 A 
ATOM     57  C   UNK     1      62.981  58.689 101.273  0.00  0.00    +0.000 A 
BRANCH  52  58
ATOM     58  O   UNK     1      63.040  60.786 102.305  0.00  0.00    +0.000 OA
ATOM     59  H   UNK     1      63.003  61.600 101.776  0.00  0.00    +0.000 HD
ENDBRANCH  52  58
BRANCH  57  60
ATOM     60  O   UNK     1      61.682  58.553 101.653  0.00  0.00    +0.000 OA
ATOM     61  H   UNK     1      61.173  58.168 100.922  0.00  0.00    +0.000 HD
ENDBRANCH  57  60
BRANCH  56  62
ATOM     62  O   UNK     1      62.875  56.596 100.247  0.00  0.00    +0.000 OA
ATOM     63  H   UNK     1      62.078  56.565 100.801  0.00  0.00    +0.000 HD
ENDBRANCH  56  62
ENDBRANCH  50  54
ENDBRANCH  49  50
ENDBRANCH  39  49
ENDBRANCH  37  43
ENDBRANCH  36  37
ENDBRANCH  35  36
ENDBRANCH   1  35
BRANCH   4  64
ATOM     64  O   UNK     1      73.881  65.929 105.924  0.00  0.00    +0.000 OA
BRANCH  64  66
ATOM     65  O   UNK     1      73.982  66.778 107.898  0.00  0.00    +0.000 OA
ATOM     66  C   UNK     1      74.662  66.289 107.008  0.00  0.00    +0.000 C 
BRANCH  66  72
ATOM     67  C   UNK     1      76.964  67.082 106.996  0.00  0.00    +0.000 A 
ATOM     68  C   UNK     1      78.278  66.855 107.155  0.00  0.00    +0.000 A 
ATOM     69  C   UNK     1      78.692  65.648 107.576  0.00  0.00    +0.000 A 
ATOM     70  C   UNK     1      77.798  64.682 107.865  0.00  0.00    +0.000 A 
ATOM     71  C   UNK     1      76.495  64.984 107.700  0.00  0.00    +0.000 A 
ATOM     72  C   UNK     1      76.018  66.152 107.222  0.00  0.00    +0.000 A 
BRANCH  68  74
ATOM     73  H   UNK     1      79.702  68.086 107.704  0.00  0.00    +0.000 HD
ATOM     74  O   UNK     1      79.193  67.835 106.913  0.00  0.00    +0.000 OA
ENDBRANCH  68  74
BRANCH  69  76
ATOM     75  H   UNK     1      80.169  64.828 108.475  0.00  0.00    +0.000 HD
ATOM     76  O   UNK     1      80.027  65.426 107.723  0.00  0.00    +0.000 OA
ENDBRANCH  69  76
BRANCH  70  77
ATOM     77  O   UNK     1      78.255  63.449 108.275  0.00  0.00    +0.000 OA
BRANCH  77  79
ATOM     78  O   UNK     1      79.566  63.430 110.062  0.00  0.00    +0.000 OA
ATOM     79  C   UNK     1      78.447  63.227 109.625  0.00  0.00    +0.000 C 
BRANCH  79  85
ATOM     80  C   UNK     1      76.397  62.104 109.997  0.00  0.00    +0.000 A 
ATOM     81  C   UNK     1      75.362  61.768 110.783  0.00  0.00    +0.000 A 
ATOM     82  C   UNK     1      75.374  62.125 112.077  0.00  0.00    +0.000 A 
ATOM     83  C   UNK     1      76.413  62.811 112.578  0.00  0.00    +0.000 A 
ATOM     84  C   UNK     1      77.428  63.151 111.767  0.00  0.00    +0.000 A 
ATOM     85  C   UNK     1      77.440  62.820 110.462  0.00  0.00    +0.000 A 
BRANCH  83  87
ATOM     86  H   UNK     1      76.172  62.397 114.422  0.00  0.00    +0.000 HD
ATOM     87  O   UNK     1      76.394  63.178 113.889  0.00  0.00    +0.000 OA
ENDBRANCH  83  87
BRANCH  81  89
ATOM     88  H   UNK     1      74.512  60.173 110.129  0.00  0.00    +0.000 HD
ATOM     89  O   UNK     1      74.287  61.103 110.284  0.00  0.00    +0.000 OA
ENDBRANCH  81  89
BRANCH  82  91
ATOM     90  H   UNK     1      74.577  61.155 113.515  0.00  0.00    +0.000 HD
ATOM     91  O   UNK     1      74.307  61.824 112.863  0.00  0.00    +0.000 OA
ENDBRANCH  82  91
ENDBRANCH  79  85
ENDBRANCH  77  79
ENDBRANCH  70  77
ENDBRANCH  66  72
ENDBRANCH  64  66
ENDBRANCH   4  64
BRANCH   3  92
ATOM     92  O   UNK     1      72.449  63.338 105.842  0.00  0.00    +0.000 OA
BRANCH  92  94
ATOM     93  O   UNK     1      70.242  63.020 105.983  0.00  0.00    +0.000 OA
ATOM     94  C   UNK     1      71.203  63.688 106.318  0.00  0.00    +0.000 C 
BRANCH  94 100
ATOM     95  C   UNK     1      70.611  65.945 106.861  0.00  0.00    +0.000 A 
ATOM     96  C   UNK     1      70.427  66.896 107.794  0.00  0.00    +0.000 A 
ATOM     97  C   UNK     1      70.622  66.610 109.098  0.00  0.00    +0.000 A 
ATOM     98  C   UNK     1      71.038  65.386 109.480  0.00  0.00    +0.000 A 
ATOM     99  C   UNK     1      71.294  64.502 108.501  0.00  0.00    +0.000 A 
ATOM    100  C   UNK     1      71.057  64.725 107.200  0.00  0.00    +0.000 A 
BRANCH  96 102
ATOM    101  H   UNK     1      69.019  68.211 107.648  0.00  0.00    +0.000 HD
ATOM    102  O   UNK     1      69.962  68.122 107.437  0.00  0.00    +0.000 OA
ENDBRANCH  96 102
BRANCH  97 104
ATOM    103  H   UNK     1      71.154  68.095 110.177  0.00  0.00    +0.000 HD
ATOM    104  O   UNK     1      70.352  67.568 110.026  0.00  0.00    +0.000 OA
ENDBRANCH  97 104
BRANCH  98 105
ATOM    105  O   UNK     1      71.174  65.032 110.808  0.00  0.00    +0.000 OA
BRANCH 105 107
ATOM    106  O   UNK     1      72.995  63.755 110.670  0.00  0.00    +0.000 OA
ATOM    107  C   UNK     1      72.495  64.762 111.141  0.00  0.00    +0.000 C 
BRANCH 107 113
ATOM    108  C   UNK     1      73.674  66.800 111.335  0.00  0.00    +0.000 A 
ATOM    109  C   UNK     1      74.483  67.640 112.002  0.00  0.00    +0.000 A 
ATOM    110  C   UNK     1      74.915  67.303 113.228  0.00  0.00    +0.000 A 
ATOM    111  C   UNK     1      74.512  66.152 113.794  0.00  0.00    +0.000 A 
ATOM    112  C   UNK     1      73.683  65.340 113.114  0.00  0.00    +0.000 A 
ATOM    113  C   UNK     1      73.258  65.638 111.872  0.00  0.00    +0.000 A 
BRANCH 111 115
ATOM    114  H   UNK     1      75.850  65.332 114.887  0.00  0.00    +0.000 HD
ATOM    115  O   UNK     1      75.009  65.806 115.013  0.00  0.00    +0.000 OA
ENDBRANCH 111 115
BRANCH 109 117
ATOM    116  H   UNK     1      74.864  68.738 110.471  0.00  0.00    +0.000 HD
ATOM    117  O   UNK     1      74.896  68.807 111.438  0.00  0.00    +0.000 OA
ENDBRANCH 109 117
BRANCH 110 119
ATOM    118  H   UNK     1      75.738  69.007 113.470  0.00  0.00    +0.000 HD
ATOM    119  O   UNK     1      75.761  68.133 113.893  0.00  0.00    +0.000 OA
ENDBRANCH 110 119
ENDBRANCH 107 113
ENDBRANCH 105 107
ENDBRANCH  98 105
ENDBRANCH  94 100
ENDBRANCH  92  94
ENDBRANCH   3  92
BRANCH   6 120
ATOM    120  O   UNK     1      75.386  64.954 101.504  0.00  0.00    +0.000 OA
BRANCH 120 122
ATOM    121  O   UNK     1      76.983  64.796  99.947  0.00  0.00    +0.000 OA
ATOM    122  C   UNK     1      76.213  64.220 100.689  0.00  0.00    +0.000 C 
BRANCH 122 128
ATOM    123  C   UNK     1      75.144  62.224  99.917  0.00  0.00    +0.000 A 
ATOM    124  C   UNK     1      75.004  60.891 100.016  0.00  0.00    +0.000 A 
ATOM    125  C   UNK     1      75.747  60.191 100.896  0.00  0.00    +0.000 A 
ATOM    126  C   UNK     1      76.728  60.787 101.601  0.00  0.00    +0.000 A 
ATOM    127  C   UNK     1      76.848  62.114 101.444  0.00  0.00    +0.000 A 
ATOM    128  C   UNK     1      76.059  62.862 100.660  0.00  0.00    +0.000 A 
BRANCH 124 130
ATOM    129  H   UNK     1      73.621  59.558  99.872  0.00  0.00    +0.000 HD
ATOM    130  O   UNK     1      74.027  60.250  99.319  0.00  0.00    +0.000 OA
ENDBRANCH 124 130
BRANCH 125 132
ATOM    131  H   UNK     1      74.946  58.746 101.859  0.00  0.00    +0.000 HD
ATOM    132  O   UNK     1      75.480  58.869 101.057  0.00  0.00    +0.000 OA
ENDBRANCH 125 132
BRANCH 126 133
ATOM    133  O   UNK     1      77.544  60.115 102.483  0.00  0.00    +0.000 OA
BRANCH 133 135
ATOM    134  O   UNK     1      78.438  61.463 103.992  0.00  0.00    +0.000 OA
ATOM    135  C   UNK     1      77.550  60.661 103.757  0.00  0.00    +0.000 C 
BRANCH 135 141
ATOM    136  C   UNK     1      75.999  61.355 105.426  0.00  0.00    +0.000 A 
ATOM    137  C   UNK     1      75.143  61.083 106.428  0.00  0.00    +0.000 A 
ATOM    138  C   UNK     1      74.840  59.805 106.703  0.00  0.00    +0.000 A 
ATOM    139  C   UNK     1      75.372  58.814 105.970  0.00  0.00    +0.000 A 
ATOM    140  C   UNK     1      76.248  59.115 104.997  0.00  0.00    +0.000 A 
ATOM    141  C   UNK     1      76.602  60.384 104.712  0.00  0.00    +0.000 A 
BRANCH 139 143
ATOM    142  H   UNK     1      74.276  57.534 106.859  0.00  0.00    +0.000 HD
ATOM    143  O   UNK     1      75.037  57.526 106.254  0.00  0.00    +0.000 OA
ENDBRANCH 139 143
BRANCH 137 145
ATOM    144  H   UNK     1      74.727  61.899 108.116  0.00  0.00    +0.000 HD
ATOM    145  O   UNK     1      74.580  62.071 107.174  0.00  0.00    +0.000 OA
ENDBRANCH 137 145
BRANCH 138 147
ATOM    146  H   UNK     1      74.454  59.363 108.514  0.00  0.00    +0.000 HD
ATOM    147  O   UNK     1      73.956  59.529 107.697  0.00  0.00    +0.000 OA
ENDBRANCH 138 147
ENDBRANCH 135 141
ENDBRANCH 133 135
ENDBRANCH 126 133
ENDBRANCH 122 128
ENDBRANCH 120 122
ENDBRANCH   6 120
TORSDOF 56
ENDMDL
MODEL 2
REMARK VINA RESULT:      -8.5      2.808     10.926
REMARK  Name = ./3951.pdb
REMARK  56 active torsions:
REMARK  status: ('A' for Active; 'I' for Inactive)
REMARK    1  A    between atoms: O_1  and  C_2
REMARK    2  A    between atoms: C_4  and  C_10
REMARK    3  A    between atoms: C_6  and  O_9
REMARK    4  A    between atoms: C_7  and  O_8
REMARK    5  A    between atoms: C_10  and  O_12
REMARK    6  A    between atoms: O_12  and  C_13
REMARK    7  A    between atoms: C_14  and  O_15
REMARK    8  A    between atoms: C_16  and  O_78
REMARK    9  A    between atoms: C_18  and  C_20
REMARK   10  A    between atoms: C_20  and  O_22
REMARK   11  A    between atoms: O_22  and  C_23
REMARK   12  A    between atoms: C_23  and  C_24
REMARK   13  A    between atoms: O_79  and  C_85
REMARK   14  A    between atoms: O_80  and  C_82
REMARK   15  A    between atoms: O_83  and  C_84
REMARK   16  A    between atoms: C_87  and  C_89
REMARK   17  A    between atoms: C_89  and  O_90
REMARK   18  A    between atoms: O_90  and  C_96
REMARK   19  A    between atoms: O_91  and  C_93
REMARK   20  A    between atoms: O_94  and  C_95
REMARK   21  A    between atoms: C_98  and  C_100
REMARK   22  A    between atoms: C_100  and  O_101
REMARK   23  A    between atoms: O_101  and  C_102
REMARK   24  A    between atoms: O_103  and  C_109
REMARK   25  A    between atoms: O_104  and  C_106
REMARK   26  A    between atoms: O_107  and  C_108
REMARK   27  A    between atoms: C_111  and  C_113
REMARK   28  A    between atoms: C_113  and  O_114
REMARK   29  A    between atoms: O_114  and  C_120
REMARK   30  A    between atoms: O_115  and  C_117
REMARK   31  A    between atoms: O_118  and  C_119
REMARK   32  A    between atoms: C_122  and  C_124
REMARK   33  A    between atoms: C_124  and  O_125
REMARK   34  A    between atoms: O_125  and  C_126
REMARK   35  A    between atoms: O_127  and  C_133
REMARK   36  A    between atoms: O_128  and  C_130
REMARK   37  A    between atoms: O_131  and  C_132
REMARK   38  A    between atoms: C_135  and  C_137
REMARK   39  A    between atoms: C_137  and  O_138
REMARK   40  A    between atoms: O_138  and  C_144
REMARK   41  A    between atoms: O_139  and  C_141
REMARK   42  A    between atoms: O_142  and  C_143
REMARK   43  A    between atoms: C_146  and  C_148
REMARK   44  A    between atoms: C_148  and  O_149
REMARK   45  A    between atoms: O_149  and  C_150
REMARK   46  A    between atoms: O_151  and  C_157
REMARK   47  A    between atoms: O_152  and  C_154
REMARK   48  A    between atoms: O_155  and  C_156
REMARK   49  A    between atoms: C_159  and  C_161
REMARK   50  A    between atoms: C_161  and  O_162
REMARK   51  A    between atoms: O_162  and  C_168
REMARK   52  A    between atoms: O_163  and  C_165
REMARK   53  A    between atoms: O_166  and  C_167
REMARK   54  A    between atoms: C_170  and  C_172
REMARK   55  A    between atoms: C_172  and  O_173
REMARK   56  A    between atoms: O_173  and  C_174
REMARK                            x       y       z     vdW  Elec       q    Type
REMARK                         _______ _______ _______ _____ _____    ______ ____
ROOT
ATOM      1  C   UNK     1      75.688  63.644 104.116  0.00  0.00    +0.000 C 
ATOM      2  O   UNK     1      76.509  64.604 104.718  0.00  0.00    +0.000 OA
ATOM      3  C   UNK     1      74.791  62.963 105.158  0.00  0.00    +0.000 C 
ATOM      4  C   UNK     1      75.629  62.451 106.336  0.00  0.00    +0.000 C 
ATOM      5  C   UNK     1      76.371  63.659 106.913  0.00  0.00    +0.000 C 
ATOM      6  C   UNK     1      77.267  64.134 105.801  0.00  0.00    +0.000 C 
ENDROOT
BRANCH   5   7
ATOM      7  O   UNK     1      77.060  63.283 108.072  0.00  0.00    +0.000 OA
BRANCH   7   9
ATOM      8  O   UNK     1      76.289  64.990 109.243  0.00  0.00    +0.000 OA
ATOM      9  C   UNK     1      76.632  63.821 109.265  0.00  0.00    +0.000 C 
BRANCH   9  15
ATOM     10  C   UNK     1      77.651  62.254 110.718  0.00  0.00    +0.000 A 
ATOM     11  C   UNK     1      77.675  61.540 111.854  0.00  0.00    +0.000 A 
ATOM     12  C   UNK     1      76.673  61.675 112.741  0.00  0.00    +0.000 A 
ATOM     13  C   UNK     1      75.653  62.525 112.496  0.00  0.00    +0.000 A 
ATOM     14  C   UNK     1      75.673  63.232 111.351  0.00  0.00    +0.000 A 
ATOM     15  C   UNK     1      76.654  63.113 110.438  0.00  0.00    +0.000 A 
BRANCH  11  17
ATOM     16  H   UNK     1      79.415  61.094 112.574  0.00  0.00    +0.000 HD
ATOM     17  O   UNK     1      78.684  60.662 112.105  0.00  0.00    +0.000 OA
ENDBRANCH  11  17
BRANCH  12  19
ATOM     18  H   UNK     1      76.153  61.349 114.559  0.00  0.00    +0.000 HD
ATOM     19  O   UNK     1      76.716  60.938 113.883  0.00  0.00    +0.000 OA
ENDBRANCH  12  19
BRANCH  13  20
ATOM     20  O   UNK     1      74.613  62.685 113.376  0.00  0.00    +0.000 OA
BRANCH  20  22
ATOM     21  O   UNK     1      72.781  63.788 112.810  0.00  0.00    +0.000 OA
ATOM     22  C   UNK     1      73.906  63.864 113.271  0.00  0.00    +0.000 C 
BRANCH  22  28
ATOM     23  C   UNK     1      74.534  66.083 112.780  0.00  0.00    +0.000 A 
ATOM     24  C   UNK     1      75.053  67.271 113.132  0.00  0.00    +0.000 A 
ATOM     25  C   UNK     1      75.488  67.453 114.389  0.00  0.00    +0.000 A 
ATOM     26  C   UNK     1      75.402  66.455 115.285  0.00  0.00    +0.000 A 
ATOM     27  C   UNK     1      74.879  65.276 114.908  0.00  0.00    +0.000 A 
ATOM     28  C   UNK     1      74.435  65.066 113.655  0.00  0.00    +0.000 A 
BRANCH  26  30
ATOM     29  H   UNK     1      75.556  67.543 116.841  0.00  0.00    +0.000 HD
ATOM     30  O   UNK     1      75.849  66.662 116.555  0.00  0.00    +0.000 OA
ENDBRANCH  26  30
BRANCH  24  32
ATOM     31  H   UNK     1      76.077  68.431 111.994  0.00  0.00    +0.000 HD
ATOM     32  O   UNK     1      75.148  68.285 112.232  0.00  0.00    +0.000 OA
ENDBRANCH  24  32
BRANCH  25  34
ATOM     33  H   UNK     1      76.365  68.583 115.653  0.00  0.00    +0.000 HD
ATOM     34  O   UNK     1      76.016  68.653 114.749  0.00  0.00    +0.000 OA
ENDBRANCH  25  34
ENDBRANCH  22  28
ENDBRANCH  20  22
ENDBRANCH  13  20
ENDBRANCH   9  15
ENDBRANCH   7   9
ENDBRANCH   5   7
BRANCH   1  35
ATOM     35  C   UNK     1      74.866  64.389 103.059  0.00  0.00    +0.000 C 
BRANCH  35  36
ATOM     36  O   UNK     1      75.665  65.404 102.496  0.00  0.00    +0.000 OA
BRANCH  36  37
ATOM     37  C   UNK     1      76.379  65.166 101.342  0.00  0.00    +0.000 C 
ATOM     38  O   UNK     1      75.787  65.139 100.279  0.00  0.00    +0.000 OA
BRANCH  37  43
ATOM     39  C   UNK     1      79.679  63.787 101.893  0.00  0.00    +0.000 A 
ATOM     40  C   UNK     1      80.442  64.808 101.463  0.00  0.00    +0.000 A 
ATOM     41  C   UNK     1      79.879  65.912 100.945  0.00  0.00    +0.000 A 
ATOM     42  C   UNK     1      78.540  66.018 100.920  0.00  0.00    +0.000 A 
ATOM     43  C   UNK     1      77.742  65.036 101.378  0.00  0.00    +0.000 A 
ATOM     44  C   UNK     1      78.340  63.924 101.845  0.00  0.00    +0.000 A 
BRANCH  41  46
ATOM     45  H   UNK     1      80.518  66.933  99.453  0.00  0.00    +0.000 HD
ATOM     46  O   UNK     1      80.681  66.875 100.413  0.00  0.00    +0.000 OA
ENDBRANCH  41  46
BRANCH  40  47
ATOM     47  O   UNK     1      81.799  64.715 101.474  0.00  0.00    +0.000 OA
ATOM     48  H   UNK     1      82.153  65.605 101.305  0.00  0.00    +0.000 HD
ENDBRANCH  40  47
BRANCH  39  49
ATOM     49  O   UNK     1      80.281  62.644 102.353  0.00  0.00    +0.000 OA
BRANCH  49  50
ATOM     50  C   UNK     1      80.570  62.642 103.699  0.00  0.00    +0.000 C 
ATOM     51  O   UNK     1      80.580  63.733 104.241  0.00  0.00    +0.000 OA
BRANCH  50  54
ATOM     52  C   UNK     1      81.757  60.429 106.276  0.00  0.00    +0.000 A 
ATOM     53  C   UNK     1      81.493  61.539 105.568  0.00  0.00    +0.000 A 
ATOM     54  C   UNK     1      80.835  61.495 104.396  0.00  0.00    +0.000 A 
ATOM     55  C   UNK     1      80.447  60.288 103.944  0.00  0.00    +0.000 A 
ATOM     56  C   UNK     1      80.706  59.161 104.628  0.00  0.00    +0.000 A 
ATOM     57  C   UNK     1      81.372  59.235 105.793  0.00  0.00    +0.000 A 
BRANCH  52  58
ATOM     58  O   UNK     1      82.437  60.491 107.453  0.00  0.00    +0.000 OA
ATOM     59  H   UNK     1      83.372  60.676 107.268  0.00  0.00    +0.000 HD
ENDBRANCH  52  58
BRANCH  57  60
ATOM     60  O   UNK     1      81.624  58.104 106.505  0.00  0.00    +0.000 OA
ATOM     61  H   UNK     1      81.197  58.170 107.373  0.00  0.00    +0.000 HD
ENDBRANCH  57  60
BRANCH  56  62
ATOM     62  O   UNK     1      80.307  57.944 104.166  0.00  0.00    +0.000 OA
ATOM     63  H   UNK     1      79.675  58.081 103.441  0.00  0.00    +0.000 HD
ENDBRANCH  56  62
ENDBRANCH  50  54
ENDBRANCH  49  50
ENDBRANCH  39  49
ENDBRANCH  37  43
ENDBRANCH  36  37
ENDBRANCH  35  36
ENDBRANCH   1  35
BRANCH   4  64
ATOM     64  O   UNK     1      74.850  61.899 107.343  0.00  0.00    +0.000 OA
BRANCH  64  66
ATOM     65  O   UNK     1      75.162  60.290 108.735  0.00  0.00    +0.000 OA
ATOM     66  C   UNK     1      74.721  60.551 107.625  0.00  0.00    +0.000 C 
BRANCH  66  72
ATOM     67  C   UNK     1      72.865  59.206 106.803  0.00  0.00    +0.000 A 
ATOM     68  C   UNK     1      72.405  58.146 106.119  0.00  0.00    +0.000 A 
ATOM     69  C   UNK     1      73.272  57.360 105.459  0.00  0.00    +0.000 A 
ATOM     70  C   UNK     1      74.589  57.647 105.458  0.00  0.00    +0.000 A 
ATOM     71  C   UNK     1      74.980  58.735 106.150  0.00  0.00    +0.000 A 
ATOM     72  C   UNK     1      74.170  59.527 106.883  0.00  0.00    +0.000 A 
BRANCH  68  74
ATOM     73  H   UNK     1      70.622  58.283 105.313  0.00  0.00    +0.000 HD
ATOM     74  O   UNK     1      71.072  57.869 106.070  0.00  0.00    +0.000 OA
ENDBRANCH  68  74
BRANCH  69  76
ATOM     75  H   UNK     1      71.965  56.529 104.336  0.00  0.00    +0.000 HD
ATOM     76  O   UNK     1      72.794  56.282 104.779  0.00  0.00    +0.000 OA
ENDBRANCH  69  76
BRANCH  70  77
ATOM     77  O   UNK     1      75.454  56.810 104.789  0.00  0.00    +0.000 OA
BRANCH  77  79
ATOM     78  O   UNK     1      77.627  57.247 104.746  0.00  0.00    +0.000 OA
ATOM     79  C   UNK     1      76.560  57.357 104.168  0.00  0.00    +0.000 C 
BRANCH  79  85
ATOM     80  C   UNK     1      77.374  58.944 102.612  0.00  0.00    +0.000 A 
ATOM     81  C   UNK     1      77.275  59.623 101.459  0.00  0.00    +0.000 A 
ATOM     82  C   UNK     1      76.294  59.317 100.595  0.00  0.00    +0.000 A 
ATOM     83  C   UNK     1      75.421  58.340 100.886  0.00  0.00    +0.000 A 
ATOM     84  C   UNK     1      75.530  57.687 102.055  0.00  0.00    +0.000 A 
ATOM     85  C   UNK     1      76.495  57.980 102.948  0.00  0.00    +0.000 A 
BRANCH  83  87
ATOM     86  H   UNK     1      73.660  57.721 100.501  0.00  0.00    +0.000 HD
ATOM     87  O   UNK     1      74.423  58.059 100.003  0.00  0.00    +0.000 OA
ENDBRANCH  83  87
BRANCH  81  89
ATOM     88  H   UNK     1      78.941  60.554 101.689  0.00  0.00    +0.000 HD
ATOM     89  O   UNK     1      78.130  60.637 101.164  0.00  0.00    +0.000 OA
ENDBRANCH  81  89
BRANCH  82  91
ATOM     90  H   UNK     1      75.558  60.775  99.607  0.00  0.00    +0.000 HD
ATOM     91  O   UNK     1      76.166  60.033  99.447  0.00  0.00    +0.000 OA
ENDBRANCH  82  91
ENDBRANCH  79  85
ENDBRANCH  77  79
ENDBRANCH  70  77
ENDBRANCH  66  72
ENDBRANCH  64  66
ENDBRANCH   4  64
BRANCH   3  92
ATOM     92  O   UNK     1      73.952  62.029 104.522  0.00  0.00    +0.000 OA
BRANCH  92  94
ATOM     93  O   UNK     1      72.125  62.478 105.726  0.00  0.00    +0.000 OA
ATOM     94  C   UNK     1      72.583  62.132 104.653  0.00  0.00    +0.000 C 
BRANCH  94 100
ATOM     95  C   UNK     1      70.599  62.552 103.378  0.00  0.00    +0.000 A 
ATOM     96  C   UNK     1      69.875  62.332 102.266  0.00  0.00    +0.000 A 
ATOM     97  C   UNK     1      70.347  61.512 101.304  0.00  0.00    +0.000 A 
ATOM     98  C   UNK     1      71.524  60.875 101.458  0.00  0.00    +0.000 A 
ATOM     99  C   UNK     1      72.163  61.059 102.627  0.00  0.00    +0.000 A 
ATOM    100  C   UNK     1      71.759  61.910 103.582  0.00  0.00    +0.000 A 
BRANCH  96 102
ATOM    101  H   UNK     1      68.035  62.416 101.681  0.00  0.00    +0.000 HD
ATOM    102  O   UNK     1      68.707  63.000 102.068  0.00  0.00    +0.000 OA
ENDBRANCH  96 102
BRANCH  97 104
ATOM    103  H   UNK     1      69.604  60.429  99.915  0.00  0.00    +0.000 HD
ATOM    104  O   UNK     1      69.630  61.370 100.156  0.00  0.00    +0.000 OA
ENDBRANCH  97 104
BRANCH  98 105
ATOM    105  O   UNK     1      72.076  60.090 100.465  0.00  0.00    +0.000 OA
BRANCH 105 107
ATOM    106  O   UNK     1      73.647  61.526  99.803  0.00  0.00    +0.000 OA
ATOM    107  C   UNK     1      72.683  60.854  99.477  0.00  0.00    +0.000 C 
BRANCH 107 113
ATOM    108  C   UNK     1      71.577  61.763  97.598  0.00  0.00    +0.000 A 
ATOM    109  C   UNK     1      71.132  61.682  96.333  0.00  0.00    +0.000 A 
ATOM    110  C   UNK     1      71.393  60.578  95.614  0.00  0.00    +0.000 A 
ATOM    111  C   UNK     1      72.121  59.581  96.145  0.00  0.00    +0.000 A 
ATOM    112  C   UNK     1      72.576  59.699  97.405  0.00  0.00    +0.000 A 
ATOM    113  C   UNK     1      72.305  60.780  98.160  0.00  0.00    +0.000 A 
BRANCH 111 115
ATOM    114  H   UNK     1      71.556  58.313  94.830  0.00  0.00    +0.000 HD
ATOM    115  O   UNK     1      72.323  58.449  95.415  0.00  0.00    +0.000 OA
ENDBRANCH 111 115
BRANCH 109 117
ATOM    116  H   UNK     1      69.448  62.507  95.912  0.00  0.00    +0.000 HD
ATOM    117  O   UNK     1      70.394  62.685  95.787  0.00  0.00    +0.000 OA
ENDBRANCH 109 117
BRANCH 110 119
ATOM    118  H   UNK     1      71.642  60.635  93.723  0.00  0.00    +0.000 HD
ATOM    119  O   UNK     1      70.915  60.476  94.346  0.00  0.00    +0.000 OA
ENDBRANCH 110 119
ENDBRANCH 107 113
ENDBRANCH 105 107
ENDBRANCH  98 105
ENDBRANCH  94 100
ENDBRANCH  92  94
ENDBRANCH   3  92
BRANCH   6 120
ATOM    120  O   UNK     1      78.115  65.181 106.194  0.00  0.00    +0.000 OA
BRANCH 120 122
ATOM    121  O   UNK     1      78.483  66.977 104.913  0.00  0.00    +0.000 OA
ATOM    122  C   UNK     1      77.896  66.496 105.862  0.00  0.00    +0.000 C 
BRANCH 122 128
ATOM    123  C   UNK     1      77.509  67.752 107.861  0.00  0.00    +0.000 A 
ATOM    124  C   UNK     1      76.639  68.410 108.646  0.00  0.00    +0.000 A 
ATOM    125  C   UNK     1      75.347  68.531 108.282  0.00  0.00    +0.000 A 
ATOM    126  C   UNK     1      74.928  68.110 107.073  0.00  0.00    +0.000 A 
ATOM    127  C   UNK     1      75.841  67.487 106.313  0.00  0.00    +0.000 A 
ATOM    128  C   UNK     1      77.107  67.251 106.683  0.00  0.00    +0.000 A 
BRANCH 124 130
ATOM    129  H   UNK     1      76.498  69.634 110.126  0.00  0.00    +0.000 HD
ATOM    130  O   UNK     1      77.024  68.854 109.873  0.00  0.00    +0.000 OA
ENDBRANCH 124 130
BRANCH 125 132
ATOM    131  H   UNK     1      73.915  69.728 108.700  0.00  0.00    +0.000 HD
ATOM    132  O   UNK     1      74.478  69.087 109.165  0.00  0.00    +0.000 OA
ENDBRANCH 125 132
BRANCH 126 133
ATOM    133  O   UNK     1      73.630  68.244 106.632  0.00  0.00    +0.000 OA
BRANCH 133 135
ATOM    134  O   UNK     1      72.904  66.590 105.354  0.00  0.00    +0.000 OA
ATOM    135  C   UNK     1      72.967  67.035 106.488  0.00  0.00    +0.000 C 
BRANCH 135 141
ATOM    136  C   UNK     1      71.476  66.823 108.332  0.00  0.00    +0.000 A 
ATOM    137  C   UNK     1      71.030  66.168 109.420  0.00  0.00    +0.000 A 
ATOM    138  C   UNK     1      71.526  64.954 109.705  0.00  0.00    +0.000 A 
ATOM    139  C   UNK     1      72.443  64.395 108.899  0.00  0.00    +0.000 A 
ATOM    140  C   UNK     1      72.894  65.087 107.839  0.00  0.00    +0.000 A 
ATOM    141  C   UNK     1      72.443  66.321 107.538  0.00  0.00    +0.000 A 
BRANCH 139 143
ATOM    142  H   UNK     1      73.436  62.837 108.437  0.00  0.00    +0.000 HD
ATOM    143  O   UNK     1      72.919  63.156 109.196  0.00  0.00    +0.000 OA
ENDBRANCH 139 143
BRANCH 137 145
ATOM    144  H   UNK     1      70.232  66.402 111.151  0.00  0.00    +0.000 HD
ATOM    145  O   UNK     1      70.089  66.707 110.242  0.00  0.00    +0.000 OA
ENDBRANCH 137 145
BRANCH 138 147
ATOM    146  H   UNK     1      71.648  63.529 110.960  0.00  0.00    +0.000 HD
ATOM    147  O   UNK     1      71.057  64.280 110.787  0.00  0.00    +0.000 OA
ENDBRANCH 138 147
ENDBRANCH 135 141
ENDBRANCH 133 135
ENDBRANCH 126 133
ENDBRANCH 122 128
ENDBRANCH 120 122
ENDBRANCH   6 120
TORSDOF 56
ENDMDL
MODEL 3
REMARK VINA RESULT:      -8.4      2.565      8.842
REMARK  Name = ./3951.pdb
REMARK  56 active torsions:
REMARK  status: ('A' for Active; 'I' for Inactive)
REMARK    1  A    between atoms: O_1  and  C_2
REMARK    2  A    between atoms: C_4  and  C_10
REMARK    3  A    between atoms: C_6  and  O_9
REMARK    4  A    between atoms: C_7  and  O_8
REMARK    5  A    between atoms: C_10  and  O_12
REMARK    6  A    between atoms: O_12  and  C_13
REMARK    7  A    between atoms: C_14  and  O_15
REMARK    8  A    between atoms: C_16  and  O_78
REMARK    9  A    between atoms: C_18  and  C_20
REMARK   10  A    between atoms: C_20  and  O_22
REMARK   11  A    between atoms: O_22  and  C_23
REMARK   12  A    between atoms: C_23  and  C_24
REMARK   13  A    between atoms: O_79  and  C_85
REMARK   14  A    between atoms: O_80  and  C_82
REMARK   15  A    between atoms: O_83  and  C_84
REMARK   16  A    between atoms: C_87  and  C_89
REMARK   17  A    between atoms: C_89  and  O_90
REMARK   18  A    between atoms: O_90  and  C_96
REMARK   19  A    between atoms: O_91  and  C_93
REMARK   20  A    between atoms: O_94  and  C_95
REMARK   21  A    between atoms: C_98  and  C_100
REMARK   22  A    between atoms: C_100  and  O_101
REMARK   23  A    between atoms: O_101  and  C_102
REMARK   24  A    between atoms: O_103  and  C_109
REMARK   25  A    between atoms: O_104  and  C_106
REMARK   26  A    between atoms: O_107  and  C_108
REMARK   27  A    between atoms: C_111  and  C_113
REMARK   28  A    between atoms: C_113  and  O_114
REMARK   29  A    between atoms: O_114  and  C_120
REMARK   30  A    between atoms: O_115  and  C_117
REMARK   31  A    between atoms: O_118  and  C_119
REMARK   32  A    between atoms: C_122  and  C_124
REMARK   33  A    between atoms: C_124  and  O_125
REMARK   34  A    between atoms: O_125  and  C_126
REMARK   35  A    between atoms: O_127  and  C_133
REMARK   36  A    between atoms: O_128  and  C_130
REMARK   37  A    between atoms: O_131  and  C_132
REMARK   38  A    between atoms: C_135  and  C_137
REMARK   39  A    between atoms: C_137  and  O_138
REMARK   40  A    between atoms: O_138  and  C_144
REMARK   41  A    between atoms: O_139  and  C_141
REMARK   42  A    between atoms: O_142  and  C_143
REMARK   43  A    between atoms: C_146  and  C_148
REMARK   44  A    between atoms: C_148  and  O_149
REMARK   45  A    between atoms: O_149  and  C_150
REMARK   46  A    between atoms: O_151  and  C_157
REMARK   47  A    between atoms: O_152  and  C_154
REMARK   48  A    between atoms: O_155  and  C_156
REMARK   49  A    between atoms: C_159  and  C_161
REMARK   50  A    between atoms: C_161  and  O_162
REMARK   51  A    between atoms: O_162  and  C_168
REMARK   52  A    between atoms: O_163  and  C_165
REMARK   53  A    between atoms: O_166  and  C_167
REMARK   54  A    between atoms: C_170  and  C_172
REMARK   55  A    between atoms: C_172  and  O_173
REMARK   56  A    between atoms: O_173  and  C_174
REMARK                            x       y       z     vdW  Elec       q    Type
REMARK                         _______ _______ _______ _____ _____    ______ ____
ROOT
ATOM      1  C   UNK     1      71.942  63.608 105.612  0.00  0.00    +0.000 C 
ATOM      2  O   UNK     1      71.707  64.913 106.061  0.00  0.00    +0.000 OA
ATOM      3  C   UNK     1      72.048  62.635 106.793  0.00  0.00    +0.000 C 
ATOM      4  C   UNK     1      73.053  63.154 107.829  0.00  0.00    +0.000 C 
ATOM      5  C   UNK     1      72.570  64.540 108.263  0.00  0.00    +0.000 C 
ATOM      6  C   UNK     1      72.624  65.380 107.015  0.00  0.00    +0.000 C 
ENDROOT
BRANCH   5   7
ATOM      7  O   UNK     1      73.377  65.020 109.301  0.00  0.00    +0.000 OA
BRANCH   7   9
ATOM      8  O   UNK     1      71.555  65.363 110.502  0.00  0.00    +0.000 OA
ATOM      9  C   UNK     1      72.769  65.266 110.513  0.00  0.00    +0.000 C 
BRANCH   9  15
ATOM     10  C   UNK     1      73.912  66.688 112.021  0.00  0.00    +0.000 A 
ATOM     11  C   UNK     1      74.629  66.894 113.136  0.00  0.00    +0.000 A 
ATOM     12  C   UNK     1      74.942  65.848 113.922  0.00  0.00    +0.000 A 
ATOM     13  C   UNK     1      74.535  64.603 113.598  0.00  0.00    +0.000 A 
ATOM     14  C   UNK     1      73.806  64.442 112.478  0.00  0.00    +0.000 A 
ATOM     15  C   UNK     1      73.485  65.464 111.664  0.00  0.00    +0.000 A 
BRANCH  11  17
ATOM     16  H   UNK     1      74.798  68.379 114.366  0.00  0.00    +0.000 HD
ATOM     17  O   UNK     1      75.067  68.140 113.465  0.00  0.00    +0.000 OA
ENDBRANCH  11  17
BRANCH  12  19
ATOM     18  H   UNK     1      75.203  66.703 115.621  0.00  0.00    +0.000 HD
ATOM     19  O   UNK     1      75.674  66.079 115.046  0.00  0.00    +0.000 OA
ENDBRANCH  12  19
BRANCH  13  20
ATOM     20  O   UNK     1      74.839  63.513 114.375  0.00  0.00    +0.000 OA
BRANCH  20  22
ATOM     21  O   UNK     1      76.829  63.465 113.409  0.00  0.00    +0.000 OA
ATOM     22  C   UNK     1      76.002  62.846 114.054  0.00  0.00    +0.000 C 
BRANCH  22  28
ATOM     23  C   UNK     1      77.475  61.078 114.568  0.00  0.00    +0.000 A 
ATOM     24  C   UNK     1      77.718  59.807 114.931  0.00  0.00    +0.000 A 
ATOM     25  C   UNK     1      76.685  58.980 115.162  0.00  0.00    +0.000 A 
ATOM     26  C   UNK     1      75.423  59.422 115.032  0.00  0.00    +0.000 A 
ATOM     27  C   UNK     1      75.207  60.698 114.667  0.00  0.00    +0.000 A 
ATOM     28  C   UNK     1      76.223  61.548 114.429  0.00  0.00    +0.000 A 
BRANCH  26  30
ATOM     29  H   UNK     1      73.930  58.403 114.432  0.00  0.00    +0.000 HD
ATOM     30  O   UNK     1      74.391  58.567 115.271  0.00  0.00    +0.000 OA
ENDBRANCH  26  30
BRANCH  24  32
ATOM     31  H   UNK     1      79.111  58.549 114.528  0.00  0.00    +0.000 HD
ATOM     32  O   UNK     1      78.991  59.350 115.062  0.00  0.00    +0.000 OA
ENDBRANCH  24  32
BRANCH  25  34
ATOM     33  H   UNK     1      77.426  57.255 114.820  0.00  0.00    +0.000 HD
ATOM     34  O   UNK     1      76.925  57.693 115.528  0.00  0.00    +0.000 OA
ENDBRANCH  25  34
ENDBRANCH  22  28
ENDBRANCH  20  22
ENDBRANCH  13  20
ENDBRANCH   9  15
ENDBRANCH   7   9
ENDBRANCH   5   7
BRANCH   1  35
ATOM     35  C   UNK     1      70.769  63.258 104.690  0.00  0.00    +0.000 C 
BRANCH  35  36
ATOM     36  O   UNK     1      71.269  62.992 103.400  0.00  0.00    +0.000 OA
BRANCH  36  37
ATOM     37  C   UNK     1      71.447  61.693 102.978  0.00  0.00    +0.000 C 
ATOM     38  O   UNK     1      70.707  60.828 103.407  0.00  0.00    +0.000 OA
BRANCH  37  43
ATOM     39  C   UNK     1      73.194  60.016 100.288  0.00  0.00    +0.000 A 
ATOM     40  C   UNK     1      74.292  60.788 100.196  0.00  0.00    +0.000 A 
ATOM     41  C   UNK     1      74.428  61.878 100.967  0.00  0.00    +0.000 A 
ATOM     42  C   UNK     1      73.487  62.158 101.884  0.00  0.00    +0.000 A 
ATOM     43  C   UNK     1      72.394  61.388 102.036  0.00  0.00    +0.000 A 
ATOM     44  C   UNK     1      72.267  60.331 101.212  0.00  0.00    +0.000 A 
BRANCH  41  46
ATOM     45  H   UNK     1      75.195  63.510 100.312  0.00  0.00    +0.000 HD
ATOM     46  O   UNK     1      75.495  62.701 100.766  0.00  0.00    +0.000 OA
ENDBRANCH  41  46
BRANCH  40  47
ATOM     47  O   UNK     1      75.251  60.524  99.268  0.00  0.00    +0.000 OA
ATOM     48  H   UNK     1      74.810  60.469  98.402  0.00  0.00    +0.000 HD
ENDBRANCH  40  47
BRANCH  39  49
ATOM     49  O   UNK     1      73.048  58.949  99.440  0.00  0.00    +0.000 OA
BRANCH  49  50
ATOM     50  C   UNK     1      72.742  59.279  98.139  0.00  0.00    +0.000 C 
ATOM     51  O   UNK     1      73.593  59.012  97.310  0.00  0.00    +0.000 OA
BRANCH  50  54
ATOM     52  C   UNK     1      70.401  61.528  96.586  0.00  0.00    +0.000 A 
ATOM     53  C   UNK     1      71.547  60.933  96.956  0.00  0.00    +0.000 A 
ATOM     54  C   UNK     1      71.562  59.874  97.786  0.00  0.00    +0.000 A 
ATOM     55  C   UNK     1      70.379  59.427  98.246  0.00  0.00    +0.000 A 
ATOM     56  C   UNK     1      69.220  60.009  97.898  0.00  0.00    +0.000 A 
ATOM     57  C   UNK     1      69.236  61.070  97.073  0.00  0.00    +0.000 A 
BRANCH  52  58
ATOM     58  O   UNK     1      70.406  62.608  95.757  0.00  0.00    +0.000 OA
ATOM     59  H   UNK     1      71.162  62.537  95.151  0.00  0.00    +0.000 HD
ENDBRANCH  52  58
BRANCH  57  60
ATOM     60  O   UNK     1      68.068  61.658  96.699  0.00  0.00    +0.000 OA
ATOM     61  H   UNK     1      67.417  60.971  96.486  0.00  0.00    +0.000 HD
ENDBRANCH  57  60
BRANCH  56  62
ATOM     62  O   UNK     1      68.027  59.548  98.365  0.00  0.00    +0.000 OA
ATOM     63  H   UNK     1      67.412  59.471  97.617  0.00  0.00    +0.000 HD
ENDBRANCH  56  62
ENDBRANCH  50  54
ENDBRANCH  49  50
ENDBRANCH  39  49
ENDBRANCH  37  43
ENDBRANCH  36  37
ENDBRANCH  35  36
ENDBRANCH   1  35
BRANCH   4  64
ATOM     64  O   UNK     1      73.121  62.346 108.955  0.00  0.00    +0.000 OA
BRANCH  64  66
ATOM     65  O   UNK     1      73.953  60.517 109.721  0.00  0.00    +0.000 OA
ATOM     66  C   UNK     1      74.238  61.660 109.397  0.00  0.00    +0.000 C 
BRANCH  66  72
ATOM     67  C   UNK     1      76.449  61.663 110.417  0.00  0.00    +0.000 A 
ATOM     68  C   UNK     1      77.699  62.148 110.493  0.00  0.00    +0.000 A 
ATOM     69  C   UNK     1      78.106  63.063 109.598  0.00  0.00    +0.000 A 
ATOM     70  C   UNK     1      77.281  63.471 108.614  0.00  0.00    +0.000 A 
ATOM     71  C   UNK     1      76.046  62.930 108.586  0.00  0.00    +0.000 A 
ATOM     72  C   UNK     1      75.556  62.056 109.490  0.00  0.00    +0.000 A 
BRANCH  68  74
ATOM     73  H   UNK     1      79.476  61.619 111.130  0.00  0.00    +0.000 HD
ATOM     74  O   UNK     1      78.563  61.712 111.452  0.00  0.00    +0.000 OA
ENDBRANCH  68  74
BRANCH  69  76
ATOM     75  H   UNK     1      79.413  64.414 109.237  0.00  0.00    +0.000 HD
ATOM     76  O   UNK     1      79.372  63.556 109.692  0.00  0.00    +0.000 OA
ENDBRANCH  69  76
BRANCH  70  77
ATOM     77  O   UNK     1      77.721  64.426 107.724  0.00  0.00    +0.000 OA
BRANCH  77  79
ATOM     78  O   UNK     1      79.118  63.356 106.375  0.00  0.00    +0.000 OA
ATOM     79  C   UNK     1      78.104  64.027 106.458  0.00  0.00    +0.000 C 
BRANCH  79  85
ATOM     80  C   UNK     1      77.883  64.099 104.103  0.00  0.00    +0.000 A 
ATOM     81  C   UNK     1      77.231  64.472 102.990  0.00  0.00    +0.000 A 
ATOM     82  C   UNK     1      76.034  65.070 103.096  0.00  0.00    +0.000 A 
ATOM     83  C   UNK     1      75.496  65.292 104.306  0.00  0.00    +0.000 A 
ATOM     84  C   UNK     1      76.176  64.927 105.405  0.00  0.00    +0.000 A 
ATOM     85  C   UNK     1      77.385  64.337 105.332  0.00  0.00    +0.000 A 
BRANCH  83  87
ATOM     86  H   UNK     1      74.258  66.614 103.712  0.00  0.00    +0.000 HD
ATOM     87  O   UNK     1      74.290  65.917 104.390  0.00  0.00    +0.000 OA
ENDBRANCH  83  87
BRANCH  81  89
ATOM     88  H   UNK     1      78.000  63.349 101.632  0.00  0.00    +0.000 HD
ATOM     89  O   UNK     1      77.776  64.284 101.759  0.00  0.00    +0.000 OA
ENDBRANCH  81  89
BRANCH  82  91
ATOM     90  H   UNK     1      74.605  64.933 101.838  0.00  0.00    +0.000 HD
ATOM     91  O   UNK     1      75.393  65.487 101.973  0.00  0.00    +0.000 OA
ENDBRANCH  82  91
ENDBRANCH  79  85
ENDBRANCH  77  79
ENDBRANCH  70  77
ENDBRANCH  66  72
ENDBRANCH  64  66
ENDBRANCH   4  64
BRANCH   3  92
ATOM     92  O   UNK     1      72.248  61.328 106.313  0.00  0.00    +0.000 OA
BRANCH  92  94
ATOM     93  O   UNK     1      74.325  61.812 105.648  0.00  0.00    +0.000 OA
ATOM     94  C   UNK     1      73.486  60.951 105.837  0.00  0.00    +0.000 C 
BRANCH  94 100
ATOM     95  C   UNK     1      72.872  58.675 105.410  0.00  0.00    +0.000 A 
ATOM     96  C   UNK     1      73.247  57.408 105.155  0.00  0.00    +0.000 A 
ATOM     97  C   UNK     1      74.556  57.098 105.055  0.00  0.00    +0.000 A 
ATOM     98  C   UNK     1      75.504  58.037 105.246  0.00  0.00    +0.000 A 
ATOM     99  C   UNK     1      75.077  59.265 105.588  0.00  0.00    +0.000 A 
ATOM    100  C   UNK     1      73.787  59.630 105.639  0.00  0.00    +0.000 A 
BRANCH  96 102
ATOM    101  H   UNK     1      71.852  56.201 105.730  0.00  0.00    +0.000 HD
ATOM    102  O   UNK     1      72.309  56.455 104.912  0.00  0.00    +0.000 OA
ENDBRANCH  96 102
BRANCH  97 104
ATOM    103  H   UNK     1      75.866  55.785 104.591  0.00  0.00    +0.000 HD
ATOM    104  O   UNK     1      74.903  55.826 104.718  0.00  0.00    +0.000 OA
ENDBRANCH  97 104
BRANCH  98 105
ATOM    105  O   UNK     1      76.849  57.776 105.077  0.00  0.00    +0.000 OA
BRANCH 105 107
ATOM    106  O   UNK     1      76.940  57.157 102.938  0.00  0.00    +0.000 OA
ATOM    107  C   UNK     1      77.259  57.992 103.768  0.00  0.00    +0.000 C 
BRANCH 107 113
ATOM    108  C   UNK     1      77.631  59.707 102.187  0.00  0.00    +0.000 A 
ATOM    109  C   UNK     1      78.292  60.793 101.753  0.00  0.00    +0.000 A 
ATOM    110  C   UNK     1      79.265  61.319 102.515  0.00  0.00    +0.000 A 
ATOM    111  C   UNK     1      79.548  60.783 103.714  0.00  0.00    +0.000 A 
ATOM    112  C   UNK     1      78.855  59.711 104.136  0.00  0.00    +0.000 A 
ATOM    113  C   UNK     1      77.895  59.144 103.380  0.00  0.00    +0.000 A 
BRANCH 111 115
ATOM    114  H   UNK     1      80.265  61.469 105.349  0.00  0.00    +0.000 HD
ATOM    115  O   UNK     1      80.577  61.300 104.442  0.00  0.00    +0.000 OA
ENDBRANCH 111 115
BRANCH 109 117
ATOM    116  H   UNK     1      77.693  62.252 100.655  0.00  0.00    +0.000 HD
ATOM    117  O   UNK     1      78.012  61.343 100.541  0.00  0.00    +0.000 OA
ENDBRANCH 109 117
BRANCH 110 119
ATOM    118  H   UNK     1      79.378  63.173 102.080  0.00  0.00    +0.000 HD
ATOM    119  O   UNK     1      79.960  62.397 102.065  0.00  0.00    +0.000 OA
ENDBRANCH 110 119
ENDBRANCH 107 113
ENDBRANCH 105 107
ENDBRANCH  98 105
ENDBRANCH  94 100
ENDBRANCH  92  94
ENDBRANCH   3  92
BRANCH   6 120
ATOM    120  O   UNK     1      72.317  66.729 107.253  0.00  0.00    +0.000 OA
BRANCH 120 122
ATOM    121  O   UNK     1      73.138  68.311 105.902  0.00  0.00    +0.000 OA
ATOM    122  C   UNK     1      73.184  67.760 106.984  0.00  0.00    +0.000 C 
BRANCH 122 128
ATOM    123  C   UNK     1      73.938  68.810 108.997  0.00  0.00    +0.000 A 
ATOM    124  C   UNK     1      74.963  69.124 109.807  0.00  0.00    +0.000 A 
ATOM    125  C   UNK     1      76.216  68.729 109.507  0.00  0.00    +0.000 A 
ATOM    126  C   UNK     1      76.450  67.907 108.465  0.00  0.00    +0.000 A 
ATOM    127  C   UNK     1      75.389  67.597 107.705  0.00  0.00    +0.000 A 
ATOM    128  C   UNK     1      74.147  68.057 107.907  0.00  0.00    +0.000 A 
BRANCH 124 130
ATOM    129  H   UNK     1      75.588  70.433 111.074  0.00  0.00    +0.000 HD
ATOM    130  O   UNK     1      74.768  69.949 110.871  0.00  0.00    +0.000 OA
ENDBRANCH 124 130
BRANCH 125 132
ATOM    131  H   UNK     1      77.989  68.570 110.204  0.00  0.00    +0.000 HD
ATOM    132  O   UNK     1      77.238  69.180 110.279  0.00  0.00    +0.000 OA
ENDBRANCH 125 132
BRANCH 126 133
ATOM    133  O   UNK     1      77.702  67.438 108.135  0.00  0.00    +0.000 OA
BRANCH 133 135
ATOM    134  O   UNK     1      78.892  69.278 107.831  0.00  0.00    +0.000 OA
ATOM    135  C   UNK     1      78.410  68.291 107.303  0.00  0.00    +0.000 C 
BRANCH 135 141
ATOM    136  C   UNK     1      77.715  68.376 105.026  0.00  0.00    +0.000 A 
ATOM    137  C   UNK     1      77.878  68.054 103.730  0.00  0.00    +0.000 A 
ATOM    138  C   UNK     1      79.000  67.428 103.345  0.00  0.00    +0.000 A 
ATOM    139  C   UNK     1      79.957  67.146 104.244  0.00  0.00    +0.000 A 
ATOM    140  C   UNK     1      79.752  67.450 105.537  0.00  0.00    +0.000 A 
ATOM    141  C   UNK     1      78.625  68.051 105.967  0.00  0.00    +0.000 A 
BRANCH 139 143
ATOM    142  H   UNK     1      81.683  67.197 103.442  0.00  0.00    +0.000 HD
ATOM    143  O   UNK     1      81.095  66.527 103.829  0.00  0.00    +0.000 OA
ENDBRANCH 139 143
BRANCH 137 145
ATOM    144  H   UNK     1      76.331  69.027 103.137  0.00  0.00    +0.000 HD
ATOM    145  O   UNK     1      76.931  68.344 102.798  0.00  0.00    +0.000 OA
ENDBRANCH 137 145
BRANCH 138 147
ATOM    146  H   UNK     1      80.132  67.084 101.854  0.00  0.00    +0.000 HD
ATOM    147  O   UNK     1      79.179  67.127 102.032  0.00  0.00    +0.000 OA
ENDBRANCH 138 147
ENDBRANCH 135 141
ENDBRANCH 133 135
ENDBRANCH 126 133
ENDBRANCH 122 128
ENDBRANCH 120 122
ENDBRANCH   6 120
TORSDOF 56
ENDMDL
MODEL 4
REMARK VINA RESULT:      -8.4      6.812     13.046
REMARK  Name = ./3951.pdb
REMARK  56 active torsions:
REMARK  status: ('A' for Active; 'I' for Inactive)
REMARK    1  A    between atoms: O_1  and  C_2
REMARK    2  A    between atoms: C_4  and  C_10
REMARK    3  A    between atoms: C_6  and  O_9
REMARK    4  A    between atoms: C_7  and  O_8
REMARK    5  A    between atoms: C_10  and  O_12
REMARK    6  A    between atoms: O_12  and  C_13
REMARK    7  A    between atoms: C_14  and  O_15
REMARK    8  A    between atoms: C_16  and  O_78
REMARK    9  A    between atoms: C_18  and  C_20
REMARK   10  A    between atoms: C_20  and  O_22
REMARK   11  A    between atoms: O_22  and  C_23
REMARK   12  A    between atoms: C_23  and  C_24
REMARK   13  A    between atoms: O_79  and  C_85
REMARK   14  A    between atoms: O_80  and  C_82
REMARK   15  A    between atoms: O_83  and  C_84
REMARK   16  A    between atoms: C_87  and  C_89
REMARK   17  A    between atoms: C_89  and  O_90
REMARK   18  A    between atoms: O_90  and  C_96
REMARK   19  A    between atoms: O_91  and  C_93
REMARK   20  A    between atoms: O_94  and  C_95
REMARK   21  A    between atoms: C_98  and  C_100
REMARK   22  A    between atoms: C_100  and  O_101
REMARK   23  A    between atoms: O_101  and  C_102
REMARK   24  A    between atoms: O_103  and  C_109
REMARK   25  A    between atoms: O_104  and  C_106
REMARK   26  A    between atoms: O_107  and  C_108
REMARK   27  A    between atoms: C_111  and  C_113
REMARK   28  A    between atoms: C_113  and  O_114
REMARK   29  A    between atoms: O_114  and  C_120
REMARK   30  A    between atoms: O_115  and  C_117
REMARK   31  A    between atoms: O_118  and  C_119
REMARK   32  A    between atoms: C_122  and  C_124
REMARK   33  A    between atoms: C_124  and  O_125
REMARK   34  A    between atoms: O_125  and  C_126
REMARK   35  A    between atoms: O_127  and  C_133
REMARK   36  A    between atoms: O_128  and  C_130
REMARK   37  A    between atoms: O_131  and  C_132
REMARK   38  A    between atoms: C_135  and  C_137
REMARK   39  A    between atoms: C_137  and  O_138
REMARK   40  A    between atoms: O_138  and  C_144
REMARK   41  A    between atoms: O_139  and  C_141
REMARK   42  A    between atoms: O_142  and  C_143
REMARK   43  A    between atoms: C_146  and  C_148
REMARK   44  A    between atoms: C_148  and  O_149
REMARK   45  A    between atoms: O_149  and  C_150
REMARK   46  A    between atoms: O_151  and  C_157
REMARK   47  A    between atoms: O_152  and  C_154
REMARK   48  A    between atoms: O_155  and  C_156
REMARK   49  A    between atoms: C_159  and  C_161
REMARK   50  A    between atoms: C_161  and  O_162
REMARK   51  A    between atoms: O_162  and  C_168
REMARK   52  A    between atoms: O_163  and  C_165
REMARK   53  A    between atoms: O_166  and  C_167
REMARK   54  A    between atoms: C_170  and  C_172
REMARK   55  A    between atoms: C_172  and  O_173
REMARK   56  A    between atoms: O_173  and  C_174
REMARK                            x       y       z     vdW  Elec       q    Type
REMARK                         _______ _______ _______ _____ _____    ______ ____
ROOT
ATOM      1  C   UNK     1      65.908  56.849 101.700  0.00  0.00    +0.000 C 
ATOM      2  O   UNK     1      66.660  55.847 101.074  0.00  0.00    +0.000 OA
ATOM      3  C   UNK     1      65.882  58.124 100.846  0.00  0.00    +0.000 C 
ATOM      4  C   UNK     1      67.305  58.535 100.449  0.00  0.00    +0.000 C 
ATOM      5  C   UNK     1      67.918  57.350  99.700  0.00  0.00    +0.000 C 
ATOM      6  C   UNK     1      67.958  56.231 100.705  0.00  0.00    +0.000 C 
ENDROOT
BRANCH   5   7
ATOM      7  O   UNK     1      69.176  57.705  99.200  0.00  0.00    +0.000 OA
BRANCH   7   9
ATOM      8  O   UNK     1      68.470  57.092  97.198  0.00  0.00    +0.000 OA
ATOM      9  C   UNK     1      69.420  57.461  97.866  0.00  0.00    +0.000 C 
BRANCH   9  15
ATOM     10  C   UNK     1      71.015  56.854  96.225  0.00  0.00    +0.000 A 
ATOM     11  C   UNK     1      72.244  56.923  95.691  0.00  0.00    +0.000 A 
ATOM     12  C   UNK     1      73.172  57.706  96.269  0.00  0.00    +0.000 A 
ATOM     13  C   UNK     1      72.871  58.422  97.373  0.00  0.00    +0.000 A 
ATOM     14  C   UNK     1      71.622  58.336  97.868  0.00  0.00    +0.000 A 
ATOM     15  C   UNK     1      70.674  57.554  97.322  0.00  0.00    +0.000 A 
BRANCH  11  17
ATOM     16  H   UNK     1      71.911  55.495  94.428  0.00  0.00    +0.000 HD
ATOM     17  O   UNK     1      72.570  56.188  94.593  0.00  0.00    +0.000 OA
ENDBRANCH  11  17
BRANCH  12  19
ATOM     18  H   UNK     1      75.086  57.682  96.411  0.00  0.00    +0.000 HD
ATOM     19  O   UNK     1      74.413  57.756  95.715  0.00  0.00    +0.000 OA
ENDBRANCH  12  19
BRANCH  13  20
ATOM     20  O   UNK     1      73.794  59.229  97.990  0.00  0.00    +0.000 OA
BRANCH  20  22
ATOM     21  O   UNK     1      74.664  57.735  99.371  0.00  0.00    +0.000 OA
ATOM     22  C   UNK     1      74.180  58.847  99.257  0.00  0.00    +0.000 C 
BRANCH  22  28
ATOM     23  C   UNK     1      75.032  60.449 100.764  0.00  0.00    +0.000 A 
ATOM     24  C   UNK     1      74.904  61.258 101.829  0.00  0.00    +0.000 A 
ATOM     25  C   UNK     1      73.738  61.287 102.496  0.00  0.00    +0.000 A 
ATOM     26  C   UNK     1      72.712  60.515 102.099  0.00  0.00    +0.000 A 
ATOM     27  C   UNK     1      72.867  59.715 101.030  0.00  0.00    +0.000 A 
ATOM     28  C   UNK     1      74.024  59.666 100.343  0.00  0.00    +0.000 A 
BRANCH  26  30
ATOM     29  H   UNK     1      71.395  61.476 103.083  0.00  0.00    +0.000 HD
ATOM     30  O   UNK     1      71.540  60.561 102.790  0.00  0.00    +0.000 OA
ENDBRANCH  26  30
BRANCH  24  32
ATOM     31  H   UNK     1      75.840  62.933 101.879  0.00  0.00    +0.000 HD
ATOM     32  O   UNK     1      75.937  62.039 102.241  0.00  0.00    +0.000 OA
ENDBRANCH  24  32
BRANCH  25  34
ATOM     33  H   UNK     1      72.715  61.984 103.948  0.00  0.00    +0.000 HD
ATOM     34  O   UNK     1      73.604  62.102 103.576  0.00  0.00    +0.000 OA
ENDBRANCH  25  34
ENDBRANCH  22  28
ENDBRANCH  20  22
ENDBRANCH  13  20
ENDBRANCH   9  15
ENDBRANCH   7   9
ENDBRANCH   5   7
BRANCH   1  35
ATOM     35  C   UNK     1      64.505  56.267 101.895  0.00  0.00    +0.000 C 
BRANCH  35  36
ATOM     36  O   UNK     1      64.618  55.009 102.520  0.00  0.00    +0.000 OA
BRANCH  36  37
ATOM     37  C   UNK     1      64.515  54.900 103.889  0.00  0.00    +0.000 C 
ATOM     38  O   UNK     1      63.409  54.898 104.397  0.00  0.00    +0.000 OA
BRANCH  37  43
ATOM     39  C   UNK     1      66.948  55.292 106.540  0.00  0.00    +0.000 A 
ATOM     40  C   UNK     1      67.863  54.380 106.164  0.00  0.00    +0.000 A 
ATOM     41  C   UNK     1      67.654  53.606 105.086  0.00  0.00    +0.000 A 
ATOM     42  C   UNK     1      66.551  53.795 104.343  0.00  0.00    +0.000 A 
ATOM     43  C   UNK     1      65.632  54.725 104.662  0.00  0.00    +0.000 A 
ATOM     44  C   UNK     1      65.850  55.450 105.776  0.00  0.00    +0.000 A 
BRANCH  41  46
ATOM     45  H   UNK     1      69.199  52.556 105.523  0.00  0.00    +0.000 HD
ATOM     46  O   UNK     1      68.544  52.614 104.803  0.00  0.00    +0.000 OA
ENDBRANCH  41  46
BRANCH  40  47
ATOM     47  O   UNK     1      68.981  54.169 106.909  0.00  0.00    +0.000 OA
ATOM     48  H   UNK     1      68.692  53.933 107.808  0.00  0.00    +0.000 HD
ENDBRANCH  40  47
BRANCH  39  49
ATOM     49  O   UNK     1      67.154  56.020 107.683  0.00  0.00    +0.000 OA
BRANCH  49  50
ATOM     50  C   UNK     1      67.111  57.386 107.516  0.00  0.00    +0.000 C 
ATOM     51  O   UNK     1      68.041  57.875 106.900  0.00  0.00    +0.000 OA
BRANCH  50  54
ATOM     52  C   UNK     1      64.926  59.047 109.844  0.00  0.00    +0.000 A 
ATOM     53  C   UNK     1      65.909  58.286 109.335  0.00  0.00    +0.000 A 
ATOM     54  C   UNK     1      66.096  58.159 108.009  0.00  0.00    +0.000 A 
ATOM     55  C   UNK     1      65.252  58.822 107.195  0.00  0.00    +0.000 A 
ATOM     56  C   UNK     1      64.256  59.582 107.678  0.00  0.00    +0.000 A 
ATOM     57  C   UNK     1      64.089  59.685 109.008  0.00  0.00    +0.000 A 
BRANCH  52  58
ATOM     58  O   UNK     1      64.744  59.151 111.188  0.00  0.00    +0.000 OA
ATOM     59  H   UNK     1      64.507  60.068 111.405  0.00  0.00    +0.000 HD
ENDBRANCH  52  58
BRANCH  57  60
ATOM     60  O   UNK     1      63.096  60.466 109.510  0.00  0.00    +0.000 OA
ATOM     61  H   UNK     1      63.328  60.738 110.412  0.00  0.00    +0.000 HD
ENDBRANCH  57  60
BRANCH  56  62
ATOM     62  O   UNK     1      63.410  60.252 106.848  0.00  0.00    +0.000 OA
ATOM     63  H   UNK     1      63.936  60.692 106.160  0.00  0.00    +0.000 HD
ENDBRANCH  56  62
ENDBRANCH  50  54
ENDBRANCH  49  50
ENDBRANCH  39  49
ENDBRANCH  37  43
ENDBRANCH  36  37
ENDBRANCH  35  36
ENDBRANCH   1  35
BRANCH   4  64
ATOM     64  O   UNK     1      67.324  59.638  99.608  0.00  0.00    +0.000 OA
BRANCH  64  66
ATOM     65  O   UNK     1      67.900  61.400 100.699  0.00  0.00    +0.000 OA
ATOM     66  C   UNK     1      68.169  60.728  99.715  0.00  0.00    +0.000 C 
BRANCH  66  72
ATOM     67  C   UNK     1      70.413  61.603  99.353  0.00  0.00    +0.000 A 
ATOM     68  C   UNK     1      71.376  62.039  98.525  0.00  0.00    +0.000 A 
ATOM     69  C   UNK     1      71.179  61.986  97.198  0.00  0.00    +0.000 A 
ATOM     70  C   UNK     1      70.037  61.474  96.697  0.00  0.00    +0.000 A 
ATOM     71  C   UNK     1      69.120  61.038  97.584  0.00  0.00    +0.000 A 
ATOM     72  C   UNK     1      69.231  61.121  98.926  0.00  0.00    +0.000 A 
BRANCH  68  74
ATOM     73  H   UNK     1      73.077  63.000  98.349  0.00  0.00    +0.000 HD
ATOM     74  O   UNK     1      72.556  62.516  99.013  0.00  0.00    +0.000 OA
ENDBRANCH  68  74
BRANCH  69  76
ATOM     75  H   UNK     1      72.059  63.402  96.259  0.00  0.00    +0.000 HD
ATOM     76  O   UNK     1      72.159  62.442  96.370  0.00  0.00    +0.000 OA
ENDBRANCH  69  76
BRANCH  70  77
ATOM     77  O   UNK     1      69.856  61.452  95.332  0.00  0.00    +0.000 OA
BRANCH  77  79
ATOM     78  O   UNK     1      71.506  60.116  94.694  0.00  0.00    +0.000 OA
ATOM     79  C   UNK     1      70.315  60.362  94.619  0.00  0.00    +0.000 C 
BRANCH  79  85
ATOM     80  C   UNK     1      69.832  59.181  92.625  0.00  0.00    +0.000 A 
ATOM     81  C   UNK     1      69.001  58.470  91.847  0.00  0.00    +0.000 A 
ATOM     82  C   UNK     1      67.805  58.095  92.329  0.00  0.00    +0.000 A 
ATOM     83  C   UNK     1      67.446  58.432  93.578  0.00  0.00    +0.000 A 
ATOM     84  C   UNK     1      68.288  59.160  94.330  0.00  0.00    +0.000 A 
ATOM     85  C   UNK     1      69.489  59.562  93.871  0.00  0.00    +0.000 A 
BRANCH  83  87
ATOM     86  H   UNK     1      65.929  57.280  93.534  0.00  0.00    +0.000 HD
ATOM     87  O   UNK     1      66.222  58.058  94.039  0.00  0.00    +0.000 OA
ENDBRANCH  83  87
BRANCH  81  89
ATOM     88  H   UNK     1      68.587  57.719  90.127  0.00  0.00    +0.000 HD
ATOM     89  O   UNK     1      69.335  58.149  90.570  0.00  0.00    +0.000 OA
ENDBRANCH  81  89
BRANCH  82  91
ATOM     90  H   UNK     1      66.404  56.824  92.081  0.00  0.00    +0.000 HD
ATOM     91  O   UNK     1      66.945  57.412  91.528  0.00  0.00    +0.000 OA
ENDBRANCH  82  91
ENDBRANCH  79  85
ENDBRANCH  77  79
ENDBRANCH  70  77
ENDBRANCH  66  72
ENDBRANCH  64  66
ENDBRANCH   4  64
BRANCH   3  92
ATOM     92  O   UNK     1      65.091  59.100 101.479  0.00  0.00    +0.000 OA
BRANCH  92  94
ATOM     93  O   UNK     1      64.156  60.466  99.979  0.00  0.00    +0.000 OA
ATOM     94  C   UNK     1      63.987  59.617 100.835  0.00  0.00    +0.000 C 
BRANCH  94 100
ATOM     95  C   UNK     1      61.961  58.496 100.220  0.00  0.00    +0.000 A 
ATOM     96  C   UNK     1      60.765  57.996 100.580  0.00  0.00    +0.000 A 
ATOM     97  C   UNK     1      60.358  58.078 101.863  0.00  0.00    +0.000 A 
ATOM     98  C   UNK     1      61.119  58.691 102.791  0.00  0.00    +0.000 A 
ATOM     99  C   UNK     1      62.262  59.253 102.359  0.00  0.00    +0.000 A 
ATOM    100  C   UNK     1      62.732  59.143 101.107  0.00  0.00    +0.000 A 
BRANCH  96 102
ATOM    101  H   UNK     1      60.136  57.688  98.779  0.00  0.00    +0.000 HD
ATOM    102  O   UNK     1      60.002  57.332  99.672  0.00  0.00    +0.000 OA
ENDBRANCH  96 102
BRANCH  97 104
ATOM    103  H   UNK     1      59.199  57.291 103.164  0.00  0.00    +0.000 HD
ATOM    104  O   UNK     1      59.179  57.494 102.214  0.00  0.00    +0.000 OA
ENDBRANCH  97 104
BRANCH  98 105
ATOM    105  O   UNK     1      60.772  58.727 104.127  0.00  0.00    +0.000 OA
BRANCH 105 107
ATOM    106  O   UNK     1      62.791  58.188 104.902  0.00  0.00    +0.000 OA
ATOM    107  C   UNK     1      61.600  57.924 104.900  0.00  0.00    +0.000 C 
BRANCH 107 113
ATOM    108  C   UNK     1      61.442  56.909 107.027  0.00  0.00    +0.000 A 
ATOM    109  C   UNK     1      61.033  55.920 107.839  0.00  0.00    +0.000 A 
ATOM    110  C   UNK     1      60.290  54.920 107.335  0.00  0.00    +0.000 A 
ATOM    111  C   UNK     1      59.934  54.930 106.039  0.00  0.00    +0.000 A 
ATOM    112  C   UNK     1      60.337  55.944 105.254  0.00  0.00    +0.000 A 
ATOM    113  C   UNK     1      61.107  56.944 105.724  0.00  0.00    +0.000 A 
BRANCH 111 115
ATOM    114  H   UNK     1      58.362  54.195 105.237  0.00  0.00    +0.000 HD
ATOM    115  O   UNK     1      59.230  53.876 105.540  0.00  0.00    +0.000 OA
ENDBRANCH 111 115
BRANCH 109 117
ATOM    116  H   UNK     1      60.614  56.084 109.707  0.00  0.00    +0.000 HD
ATOM    117  O   UNK     1      61.388  55.901 109.152  0.00  0.00    +0.000 OA
ENDBRANCH 109 117
BRANCH 110 119
ATOM    118  H   UNK     1      60.265  54.050 109.032  0.00  0.00    +0.000 HD
ATOM    119  O   UNK     1      59.903  53.900 108.144  0.00  0.00    +0.000 OA
ENDBRANCH 110 119
ENDBRANCH 107 113
ENDBRANCH 105 107
ENDBRANCH  98 105
ENDBRANCH  94 100
ENDBRANCH  92  94
ENDBRANCH   3  92
BRANCH   6 120
ATOM    120  O   UNK     1      68.601  55.083 100.217  0.00  0.00    +0.000 OA
BRANCH 120 122
ATOM    121  O   UNK     1      69.136  53.589 101.793  0.00  0.00    +0.000 OA
ATOM    122  C   UNK     1      69.522  54.366 100.943  0.00  0.00    +0.000 C 
BRANCH 122 128
ATOM    123  C   UNK     1      71.439  54.723  99.557  0.00  0.00    +0.000 A 
ATOM    124  C   UNK     1      72.768  54.906  99.470  0.00  0.00    +0.000 A 
ATOM    125  C   UNK     1      73.524  54.956 100.585  0.00  0.00    +0.000 A 
ATOM    126  C   UNK     1      72.956  54.953 101.806  0.00  0.00    +0.000 A 
ATOM    127  C   UNK     1      71.623  54.798 101.840  0.00  0.00    +0.000 A 
ATOM    128  C   UNK     1      70.848  54.637 100.758  0.00  0.00    +0.000 A 
BRANCH 124 130
ATOM    129  H   UNK     1      73.703  55.816  98.054  0.00  0.00    +0.000 HD
ATOM    130  O   UNK     1      73.379  54.919  98.256  0.00  0.00    +0.000 OA
ENDBRANCH 124 130
BRANCH 125 132
ATOM    131  H   UNK     1      75.249  55.542 101.167  0.00  0.00    +0.000 HD
ATOM    132  O   UNK     1      74.874  55.009 100.446  0.00  0.00    +0.000 OA
ENDBRANCH 125 132
BRANCH 126 133
ATOM    133  O   UNK     1      73.674  55.043 102.977  0.00  0.00    +0.000 OA
BRANCH 133 135
ATOM    134  O   UNK     1      74.798  56.937 102.767  0.00  0.00    +0.000 OA
ATOM    135  C   UNK     1      73.921  56.348 103.376  0.00  0.00    +0.000 C 
BRANCH 135 141
ATOM    136  C   UNK     1      72.270  56.366 105.092  0.00  0.00    +0.000 A 
ATOM    137  C   UNK     1      71.505  57.019 105.986  0.00  0.00    +0.000 A 
ATOM    138  C   UNK     1      71.708  58.329 106.193  0.00  0.00    +0.000 A 
ATOM    139  C   UNK     1      72.680  58.973 105.526  0.00  0.00    +0.000 A 
ATOM    140  C   UNK     1      73.407  58.302 104.616  0.00  0.00    +0.000 A 
ATOM    141  C   UNK     1      73.211  56.994 104.358  0.00  0.00    +0.000 A 
BRANCH 139 143
ATOM    142  H   UNK     1      73.393  60.666 105.025  0.00  0.00    +0.000 HD
ATOM    143  O   UNK     1      72.882  60.297 105.764  0.00  0.00    +0.000 OA
ENDBRANCH 139 143
BRANCH 137 145
ATOM    144  H   UNK     1      69.819  56.103 106.083  0.00  0.00    +0.000 HD
ATOM    145  O   UNK     1      70.525  56.384 106.685  0.00  0.00    +0.000 OA
ENDBRANCH 137 145
BRANCH 138 147
ATOM    146  H   UNK     1      70.086  58.552 107.162  0.00  0.00    +0.000 HD
ATOM    147  O   UNK     1      70.955  58.983 107.114  0.00  0.00    +0.000 OA
ENDBRANCH 138 147
ENDBRANCH 135 141
ENDBRANCH 133 135
ENDBRANCH 126 133
ENDBRANCH 122 128
ENDBRANCH 120 122
ENDBRANCH   6 120
TORSDOF 56
ENDMDL
MODEL 5
REMARK VINA RESULT:      -8.3      3.686      9.048
REMARK  Name = ./3951.pdb
REMARK  56 active torsions:
REMARK  status: ('A' for Active; 'I' for Inactive)
REMARK    1  A    between atoms: O_1  and  C_2
REMARK    2  A    between atoms: C_4  and  C_10
REMARK    3  A    between atoms: C_6  and  O_9
REMARK    4  A    between atoms: C_7  and  O_8
REMARK    5  A    between atoms: C_10  and  O_12
REMARK    6  A    between atoms: O_12  and  C_13
REMARK    7  A    between atoms: C_14  and  O_15
REMARK    8  A    between atoms: C_16  and  O_78
REMARK    9  A    between atoms: C_18  and  C_20
REMARK   10  A    between atoms: C_20  and  O_22
REMARK   11  A    between atoms: O_22  and  C_23
REMARK   12  A    between atoms: C_23  and  C_24
REMARK   13  A    between atoms: O_79  and  C_85
REMARK   14  A    between atoms: O_80  and  C_82
REMARK   15  A    between atoms: O_83  and  C_84
REMARK   16  A    between atoms: C_87  and  C_89
REMARK   17  A    between atoms: C_89  and  O_90
REMARK   18  A    between atoms: O_90  and  C_96
REMARK   19  A    between atoms: O_91  and  C_93
REMARK   20  A    between atoms: O_94  and  C_95
REMARK   21  A    between atoms: C_98  and  C_100
REMARK   22  A    between atoms: C_100  and  O_101
REMARK   23  A    between atoms: O_101  and  C_102
REMARK   24  A    between atoms: O_103  and  C_109
REMARK   25  A    between atoms: O_104  and  C_106
REMARK   26  A    between atoms: O_107  and  C_108
REMARK   27  A    between atoms: C_111  and  C_113
REMARK   28  A    between atoms: C_113  and  O_114
REMARK   29  A    between atoms: O_114  and  C_120
REMARK   30  A    between atoms: O_115  and  C_117
REMARK   31  A    between atoms: O_118  and  C_119
REMARK   32  A    between atoms: C_122  and  C_124
REMARK   33  A    between atoms: C_124  and  O_125
REMARK   34  A    between atoms: O_125  and  C_126
REMARK   35  A    between atoms: O_127  and  C_133
REMARK   36  A    between atoms: O_128  and  C_130
REMARK   37  A    between atoms: O_131  and  C_132
REMARK   38  A    between atoms: C_135  and  C_137
REMARK   39  A    between atoms: C_137  and  O_138
REMARK   40  A    between atoms: O_138  and  C_144
REMARK   41  A    between atoms: O_139  and  C_141
REMARK   42  A    between atoms: O_142  and  C_143
REMARK   43  A    between atoms: C_146  and  C_148
REMARK   44  A    between atoms: C_148  and  O_149
REMARK   45  A    between atoms: O_149  and  C_150
REMARK   46  A    between atoms: O_151  and  C_157
REMARK   47  A    between atoms: O_152  and  C_154
REMARK   48  A    between atoms: O_155  and  C_156
REMARK   49  A    between atoms: C_159  and  C_161
REMARK   50  A    between atoms: C_161  and  O_162
REMARK   51  A    between atoms: O_162  and  C_168
REMARK   52  A    between atoms: O_163  and  C_165
REMARK   53  A    between atoms: O_166  and  C_167
REMARK   54  A    between atoms: C_170  and  C_172
REMARK   55  A    between atoms: C_172  and  O_173
REMARK   56  A    between atoms: O_173  and  C_174
REMARK                            x       y       z     vdW  Elec       q    Type
REMARK                         _______ _______ _______ _____ _____    ______ ____
ROOT
ATOM      1  C   UNK     1      75.946  67.141 103.362  0.00  0.00    +0.000 C 
ATOM      2  O   UNK     1      76.586  65.909 103.548  0.00  0.00    +0.000 OA
ATOM      3  C   UNK     1      75.994  67.979 104.646  0.00  0.00    +0.000 C 
ATOM      4  C   UNK     1      75.488  67.161 105.841  0.00  0.00    +0.000 C 
ATOM      5  C   UNK     1      76.370  65.913 105.932  0.00  0.00    +0.000 C 
ATOM      6  C   UNK     1      76.126  65.169 104.647  0.00  0.00    +0.000 C 
ENDROOT
BRANCH   5   7
ATOM      7  O   UNK     1      76.041  65.183 107.079  0.00  0.00    +0.000 OA
BRANCH   7   9
ATOM      8  O   UNK     1      78.020  65.727 107.897  0.00  0.00    +0.000 OA
ATOM      9  C   UNK     1      77.006  65.071 108.057  0.00  0.00    +0.000 C 
BRANCH   9  15
ATOM     10  C   UNK     1      77.920  63.501 109.575  0.00  0.00    +0.000 A 
ATOM     11  C   UNK     1      77.802  62.648 110.603  0.00  0.00    +0.000 A 
ATOM     12  C   UNK     1      76.606  62.490 111.197  0.00  0.00    +0.000 A 
ATOM     13  C   UNK     1      75.532  63.187 110.769  0.00  0.00    +0.000 A 
ATOM     14  C   UNK     1      75.696  64.043 109.743  0.00  0.00    +0.000 A 
ATOM     15  C   UNK     1      76.875  64.216 109.119  0.00  0.00    +0.000 A 
BRANCH  11  17
ATOM     16  H   UNK     1      78.784  61.696 111.972  0.00  0.00    +0.000 HD
ATOM     17  O   UNK     1      78.869  61.920 111.032  0.00  0.00    +0.000 OA
ENDBRANCH  11  17
BRANCH  12  19
ATOM     18  H   UNK     1      76.187  62.080 113.025  0.00  0.00    +0.000 HD
ATOM     19  O   UNK     1      76.508  61.616 112.235  0.00  0.00    +0.000 OA
ENDBRANCH  12  19
BRANCH  13  20
ATOM     20  O   UNK     1      74.296  63.049 111.349  0.00  0.00    +0.000 OA
BRANCH  20  22
ATOM     21  O   UNK     1      72.475  64.290 111.159  0.00  0.00    +0.000 OA
ATOM     22  C   UNK     1      73.609  64.218 111.598  0.00  0.00    +0.000 C 
BRANCH  22  28
ATOM     23  C   UNK     1      74.549  65.098 113.573  0.00  0.00    +0.000 A 
ATOM     24  C   UNK     1      75.095  66.103 114.277  0.00  0.00    +0.000 A 
ATOM     25  C   UNK     1      75.266  67.301 113.693  0.00  0.00    +0.000 A 
ATOM     26  C   UNK     1      74.893  67.488 112.415  0.00  0.00    +0.000 A 
ATOM     27  C   UNK     1      74.349  66.466 111.732  0.00  0.00    +0.000 A 
ATOM     28  C   UNK     1      74.167  65.256 112.294  0.00  0.00    +0.000 A 
BRANCH  26  30
ATOM     29  H   UNK     1      74.676  69.379 112.420  0.00  0.00    +0.000 HD
ATOM     30  O   UNK     1      75.075  68.709 111.842  0.00  0.00    +0.000 OA
ENDBRANCH  26  30
BRANCH  24  32
ATOM     31  H   UNK     1      75.021  66.571 116.139  0.00  0.00    +0.000 HD
ATOM     32  O   UNK     1      75.471  65.925 115.571  0.00  0.00    +0.000 OA
ENDBRANCH  24  32
BRANCH  25  34
ATOM     33  H   UNK     1      75.608  68.196 115.343  0.00  0.00    +0.000 HD
ATOM     34  O   UNK     1      75.816  68.321 114.402  0.00  0.00    +0.000 OA
ENDBRANCH  25  34
ENDBRANCH  22  28
ENDBRANCH  20  22
ENDBRANCH  13  20
ENDBRANCH   9  15
ENDBRANCH   7   9
ENDBRANCH   5   7
BRANCH   1  35
ATOM     35  C   UNK     1      76.679  67.830 102.206  0.00  0.00    +0.000 C 
BRANCH  35  36
ATOM     36  O   UNK     1      76.443  67.103 101.022  0.00  0.00    +0.000 OA
BRANCH  36  37
ATOM     37  C   UNK     1      77.493  66.745 100.206  0.00  0.00    +0.000 C 
ATOM     38  O   UNK     1      78.453  66.178 100.696  0.00  0.00    +0.000 OA
BRANCH  37  43
ATOM     39  C   UNK     1      76.821  68.290  97.002  0.00  0.00    +0.000 A 
ATOM     40  C   UNK     1      77.295  67.342  96.174  0.00  0.00    +0.000 A 
ATOM     41  C   UNK     1      77.881  66.237  96.663  0.00  0.00    +0.000 A 
ATOM     42  C   UNK     1      77.931  66.051  97.992  0.00  0.00    +0.000 A 
ATOM     43  C   UNK     1      77.431  66.956  98.854  0.00  0.00    +0.000 A 
ATOM     44  C   UNK     1      76.895  68.074  98.330  0.00  0.00    +0.000 A 
BRANCH  41  46
ATOM     45  H   UNK     1      77.953  65.357  94.960  0.00  0.00    +0.000 HD
ATOM     46  O   UNK     1      78.454  65.355  95.797  0.00  0.00    +0.000 OA
ENDBRANCH  41  46
BRANCH  40  47
ATOM     47  O   UNK     1      77.260  67.517  94.825  0.00  0.00    +0.000 OA
ATOM     48  H   UNK     1      76.680  68.278  94.646  0.00  0.00    +0.000 HD
ENDBRANCH  40  47
BRANCH  39  49
ATOM     49  O   UNK     1      76.291  69.440  96.477  0.00  0.00    +0.000 OA
BRANCH  49  50
ATOM     50  C   UNK     1      74.915  69.483  96.448  0.00  0.00    +0.000 C 
ATOM     51  O   UNK     1      74.386  68.905  95.516  0.00  0.00    +0.000 OA
BRANCH  50  54
ATOM     52  C   UNK     1      73.668  72.104  98.575  0.00  0.00    +0.000 A 
ATOM     53  C   UNK     1      74.386  71.438  97.656  0.00  0.00    +0.000 A 
ATOM     54  C   UNK     1      74.177  70.135  97.397  0.00  0.00    +0.000 A 
ATOM     55  C   UNK     1      73.215  69.508  98.099  0.00  0.00    +0.000 A 
ATOM     56  C   UNK     1      72.488  70.147  99.030  0.00  0.00    +0.000 A 
ATOM     57  C   UNK     1      72.725  71.448  99.273  0.00  0.00    +0.000 A 
BRANCH  52  58
ATOM     58  O   UNK     1      73.904  73.419  98.835  0.00  0.00    +0.000 OA
ATOM     59  H   UNK     1      73.960  73.902  97.994  0.00  0.00    +0.000 HD
ENDBRANCH  52  58
BRANCH  57  60
ATOM     60  O   UNK     1      71.984  72.112 100.200  0.00  0.00    +0.000 OA
ATOM     61  H   UNK     1      71.692  72.960  99.829  0.00  0.00    +0.000 HD
ENDBRANCH  57  60
BRANCH  56  62
ATOM     62  O   UNK     1      71.515  69.506  99.733  0.00  0.00    +0.000 OA
ATOM     63  H   UNK     1      70.975  68.989  99.113  0.00  0.00    +0.000 HD
ENDBRANCH  56  62
ENDBRANCH  50  54
ENDBRANCH  49  50
ENDBRANCH  39  49
ENDBRANCH  37  43
ENDBRANCH  36  37
ENDBRANCH  35  36
ENDBRANCH   1  35
BRANCH   4  64
ATOM     64  O   UNK     1      75.590  67.853 107.039  0.00  0.00    +0.000 OA
BRANCH  64  66
ATOM     65  O   UNK     1      75.012  68.569 108.983  0.00  0.00    +0.000 OA
ATOM     66  C   UNK     1      74.622  67.919 108.025  0.00  0.00    +0.000 C 
BRANCH  66  72
ATOM     67  C   UNK     1      72.993  66.130 108.303  0.00  0.00    +0.000 A 
ATOM     68  C   UNK     1      71.728  65.684 108.247  0.00  0.00    +0.000 A 
ATOM     69  C   UNK     1      70.739  66.544 107.951  0.00  0.00    +0.000 A 
ATOM     70  C   UNK     1      71.007  67.847 107.740  0.00  0.00    +0.000 A 
ATOM     71  C   UNK     1      72.297  68.230 107.829  0.00  0.00    +0.000 A 
ATOM     72  C   UNK     1      73.341  67.407 108.060  0.00  0.00    +0.000 A 
BRANCH  68  74
ATOM     73  H   UNK     1      71.028  64.244 109.379  0.00  0.00    +0.000 HD
ATOM     74  O   UNK     1      71.432  64.379 108.504  0.00  0.00    +0.000 OA
ENDBRANCH  68  74
BRANCH  69  76
ATOM     75  H   UNK     1      69.326  65.642 107.028  0.00  0.00    +0.000 HD
ATOM     76  O   UNK     1      69.461  66.077 107.886  0.00  0.00    +0.000 OA
ENDBRANCH  69  76
BRANCH  70  77
ATOM     77  O   UNK     1      69.974  68.699 107.418  0.00  0.00    +0.000 OA
BRANCH  77  79
ATOM     78  O   UNK     1      70.608  70.803 107.710  0.00  0.00    +0.000 OA
ATOM     79  C   UNK     1      70.276  69.947 106.909  0.00  0.00    +0.000 C 
BRANCH  79  85
ATOM     80  C   UNK     1      69.093  70.638 104.979  0.00  0.00    +0.000 A 
ATOM     81  C   UNK     1      69.013  70.841 103.654  0.00  0.00    +0.000 A 
ATOM     82  C   UNK     1      70.106  70.669 102.893  0.00  0.00    +0.000 A 
ATOM     83  C   UNK     1      71.267  70.298 103.455  0.00  0.00    +0.000 A 
ATOM     84  C   UNK     1      71.317  70.083 104.780  0.00  0.00    +0.000 A 
ATOM     85  C   UNK     1      70.235  70.233 105.568  0.00  0.00    +0.000 A 
BRANCH  83  87
ATOM     86  H   UNK     1      72.051  69.952 101.753  0.00  0.00    +0.000 HD
ATOM     87  O   UNK     1      72.357  70.112 102.661  0.00  0.00    +0.000 OA
ENDBRANCH  83  87
BRANCH  81  89
ATOM     88  H   UNK     1      67.326  71.763 103.652  0.00  0.00    +0.000 HD
ATOM     89  O   UNK     1      67.838  71.185 103.065  0.00  0.00    +0.000 OA
ENDBRANCH  81  89
BRANCH  82  91
ATOM     90  H   UNK     1      69.735  69.991 101.148  0.00  0.00    +0.000 HD
ATOM     91  O   UNK     1      70.016  70.832 101.547  0.00  0.00    +0.000 OA
ENDBRANCH  82  91
ENDBRANCH  79  85
ENDBRANCH  77  79
ENDBRANCH  70  77
ENDBRANCH  66  72
ENDBRANCH  64  66
ENDBRANCH   4  64
BRANCH   3  92
ATOM     92  O   UNK     1      75.377  69.223 104.422  0.00  0.00    +0.000 OA
BRANCH  92  94
ATOM     93  O   UNK     1      76.794  70.884 103.950  0.00  0.00    +0.000 OA
ATOM     94  C   UNK     1      76.033  70.388 104.760  0.00  0.00    +0.000 C 
BRANCH  94 100
ATOM     95  C   UNK     1      74.565  71.161 106.488  0.00  0.00    +0.000 A 
ATOM     96  C   UNK     1      74.408  71.719 107.702  0.00  0.00    +0.000 A 
ATOM     97  C   UNK     1      75.487  72.066 108.432  0.00  0.00    +0.000 A 
ATOM     98  C   UNK     1      76.732  71.897 107.945  0.00  0.00    +0.000 A 
ATOM     99  C   UNK     1      76.831  71.421 106.691  0.00  0.00    +0.000 A 
ATOM    100  C   UNK     1      75.788  71.008 105.956  0.00  0.00    +0.000 A 
BRANCH  96 102
ATOM    101  H   UNK     1      72.625  71.065 108.064  0.00  0.00    +0.000 HD
ATOM    102  O   UNK     1      73.163  71.855 108.234  0.00  0.00    +0.000 OA
ENDBRANCH  96 102
BRANCH  97 104
ATOM    103  H   UNK     1      74.752  71.929 110.192  0.00  0.00    +0.000 HD
ATOM    104  O   UNK     1      75.298  72.555 109.688  0.00  0.00    +0.000 OA
ENDBRANCH  97 104
BRANCH  98 105
ATOM    105  O   UNK     1      77.862  72.168 108.691  0.00  0.00    +0.000 OA
BRANCH 105 107
ATOM    106  O   UNK     1      77.440  70.171 109.584  0.00  0.00    +0.000 OA
ATOM    107  C   UNK     1      78.239  71.086 109.475  0.00  0.00    +0.000 C 
BRANCH 107 113
ATOM    108  C   UNK     1      79.687  70.328 111.181  0.00  0.00    +0.000 A 
ATOM    109  C   UNK     1      80.893  70.271 111.770  0.00  0.00    +0.000 A 
ATOM    110  C   UNK     1      81.934  70.901 111.200  0.00  0.00    +0.000 A 
ATOM    111  C   UNK     1      81.775  71.553 110.036  0.00  0.00    +0.000 A 
ATOM    112  C   UNK     1      80.562  71.575 109.455  0.00  0.00    +0.000 A 
ATOM    113  C   UNK     1      79.494  70.977 110.017  0.00  0.00    +0.000 A 
BRANCH 111 115
ATOM    114  H   UNK     1      82.507  73.060 109.114  0.00  0.00    +0.000 HD
ATOM    115  O   UNK     1      82.831  72.231 109.509  0.00  0.00    +0.000 OA
ENDBRANCH 111 115
BRANCH 109 117
ATOM    116  H   UNK     1      81.618  68.829 112.813  0.00  0.00    +0.000 HD
ATOM    117  O   UNK     1      81.064  69.614 112.948  0.00  0.00    +0.000 OA
ENDBRANCH 109 117
BRANCH 110 119
ATOM    118  H   UNK     1      83.087  71.358 112.650  0.00  0.00    +0.000 HD
ATOM    119  O   UNK     1      83.148  70.875 111.811  0.00  0.00    +0.000 OA
ENDBRANCH 110 119
ENDBRANCH 107 113
ENDBRANCH 105 107
ENDBRANCH  98 105
ENDBRANCH  94 100
ENDBRANCH  92  94
ENDBRANCH   3  92
BRANCH   6 120
ATOM    120  O   UNK     1      76.777  63.926 104.605  0.00  0.00    +0.000 OA
BRANCH 120 122
ATOM    121  O   UNK     1      76.692  61.890 103.685  0.00  0.00    +0.000 OA
ATOM    122  C   UNK     1      76.131  62.742 104.344  0.00  0.00    +0.000 C 
BRANCH 122 128
ATOM    123  C   UNK     1      73.774  62.838 103.947  0.00  0.00    +0.000 A 
ATOM    124  C   UNK     1      72.528  62.769 104.445  0.00  0.00    +0.000 A 
ATOM    125  C   UNK     1      72.329  62.520 105.754  0.00  0.00    +0.000 A 
ATOM    126  C   UNK     1      73.361  62.210 106.563  0.00  0.00    +0.000 A 
ATOM    127  C   UNK     1      74.583  62.262 106.011  0.00  0.00    +0.000 A 
ATOM    128  C   UNK     1      74.830  62.611 104.741  0.00  0.00    +0.000 A 
BRANCH 124 130
ATOM    129  H   UNK     1      70.834  63.638 104.150  0.00  0.00    +0.000 HD
ATOM    130  O   UNK     1      71.458  63.072 103.660  0.00  0.00    +0.000 OA
ENDBRANCH 124 130
BRANCH 125 132
ATOM    131  H   UNK     1      70.662  63.433 105.967  0.00  0.00    +0.000 HD
ATOM    132  O   UNK     1      71.062  62.592 106.240  0.00  0.00    +0.000 OA
ENDBRANCH 125 132
BRANCH 126 133
ATOM    133  O   UNK     1      73.213  61.907 107.898  0.00  0.00    +0.000 OA
BRANCH 133 135
ATOM    134  O   UNK     1      74.291  60.436 109.151  0.00  0.00    +0.000 OA
ATOM    135  C   UNK     1      73.536  60.595 108.206  0.00  0.00    +0.000 C 
BRANCH 135 141
ATOM    136  C   UNK     1      73.804  58.635 106.879  0.00  0.00    +0.000 A 
ATOM    137  C   UNK     1      73.295  57.625 106.151  0.00  0.00    +0.000 A 
ATOM    138  C   UNK     1      71.966  57.443 106.119  0.00  0.00    +0.000 A 
ATOM    139  C   UNK     1      71.158  58.252 106.824  0.00  0.00    +0.000 A 
ATOM    140  C   UNK     1      71.693  59.272 107.516  0.00  0.00    +0.000 A 
ATOM    141  C   UNK     1      73.020  59.505 107.547  0.00  0.00    +0.000 A 
BRANCH 139 143
ATOM    142  H   UNK     1      69.452  58.487 106.011  0.00  0.00    +0.000 HD
ATOM    143  O   UNK     1      69.815  58.038 106.793  0.00  0.00    +0.000 OA
ENDBRANCH 139 143
BRANCH 137 145
ATOM    144  H   UNK     1      75.002  57.124 105.426  0.00  0.00    +0.000 HD
ATOM    145  O   UNK     1      74.094  56.783 105.442  0.00  0.00    +0.000 OA
ENDBRANCH 137 145
BRANCH 138 147
ATOM    146  H   UNK     1      71.433  56.659 104.469  0.00  0.00    +0.000 HD
ATOM    147  O   UNK     1      71.452  56.407 105.406  0.00  0.00    +0.000 OA
ENDBRANCH 138 147
ENDBRANCH 135 141
ENDBRANCH 133 135
ENDBRANCH 126 133
ENDBRANCH 122 128
ENDBRANCH 120 122
ENDBRANCH   6 120
TORSDOF 56
ENDMDL
MODEL 6
REMARK VINA RESULT:      -8.3      3.535     10.579
REMARK  Name = ./3951.pdb
REMARK  56 active torsions:
REMARK  status: ('A' for Active; 'I' for Inactive)
REMARK    1  A    between atoms: O_1  and  C_2
REMARK    2  A    between atoms: C_4  and  C_10
REMARK    3  A    between atoms: C_6  and  O_9
REMARK    4  A    between atoms: C_7  and  O_8
REMARK    5  A    between atoms: C_10  and  O_12
REMARK    6  A    between atoms: O_12  and  C_13
REMARK    7  A    between atoms: C_14  and  O_15
REMARK    8  A    between atoms: C_16  and  O_78
REMARK    9  A    between atoms: C_18  and  C_20
REMARK   10  A    between atoms: C_20  and  O_22
REMARK   11  A    between atoms: O_22  and  C_23
REMARK   12  A    between atoms: C_23  and  C_24
REMARK   13  A    between atoms: O_79  and  C_85
REMARK   14  A    between atoms: O_80  and  C_82
REMARK   15  A    between atoms: O_83  and  C_84
REMARK   16  A    between atoms: C_87  and  C_89
REMARK   17  A    between atoms: C_89  and  O_90
REMARK   18  A    between atoms: O_90  and  C_96
REMARK   19  A    between atoms: O_91  and  C_93
REMARK   20  A    between atoms: O_94  and  C_95
REMARK   21  A    between atoms: C_98  and  C_100
REMARK   22  A    between atoms: C_100  and  O_101
REMARK   23  A    between atoms: O_101  and  C_102
REMARK   24  A    between atoms: O_103  and  C_109
REMARK   25  A    between atoms: O_104  and  C_106
REMARK   26  A    between atoms: O_107  and  C_108
REMARK   27  A    between atoms: C_111  and  C_113
REMARK   28  A    between atoms: C_113  and  O_114
REMARK   29  A    between atoms: O_114  and  C_120
REMARK   30  A    between atoms: O_115  and  C_117
REMARK   31  A    between atoms: O_118  and  C_119
REMARK   32  A    between atoms: C_122  and  C_124
REMARK   33  A    between atoms: C_124  and  O_125
REMARK   34  A    between atoms: O_125  and  C_126
REMARK   35  A    between atoms: O_127  and  C_133
REMARK   36  A    between atoms: O_128  and  C_130
REMARK   37  A    between atoms: O_131  and  C_132
REMARK   38  A    between atoms: C_135  and  C_137
REMARK   39  A    between atoms: C_137  and  O_138
REMARK   40  A    between atoms: O_138  and  C_144
REMARK   41  A    between atoms: O_139  and  C_141
REMARK   42  A    between atoms: O_142  and  C_143
REMARK   43  A    between atoms: C_146  and  C_148
REMARK   44  A    between atoms: C_148  and  O_149
REMARK   45  A    between atoms: O_149  and  C_150
REMARK   46  A    between atoms: O_151  and  C_157
REMARK   47  A    between atoms: O_152  and  C_154
REMARK   48  A    between atoms: O_155  and  C_156
REMARK   49  A    between atoms: C_159  and  C_161
REMARK   50  A    between atoms: C_161  and  O_162
REMARK   51  A    between atoms: O_162  and  C_168
REMARK   52  A    between atoms: O_163  and  C_165
REMARK   53  A    between atoms: O_166  and  C_167
REMARK   54  A    between atoms: C_170  and  C_172
REMARK   55  A    between atoms: C_172  and  O_173
REMARK   56  A    between atoms: O_173  and  C_174
REMARK                            x       y       z     vdW  Elec       q    Type
REMARK                         _______ _______ _______ _____ _____    ______ ____
ROOT
ATOM      1  C   UNK     1      75.779  61.703 112.545  0.00  0.00    +0.000 C 
ATOM      2  O   UNK     1      74.694  61.579 111.669  0.00  0.00    +0.000 OA
ATOM      3  C   UNK     1      76.700  62.851 112.111  0.00  0.00    +0.000 C 
ATOM      4  C   UNK     1      77.077  62.707 110.631  0.00  0.00    +0.000 C 
ATOM      5  C   UNK     1      75.767  62.687 109.839  0.00  0.00    +0.000 C 
ATOM      6  C   UNK     1      75.043  61.457 110.316  0.00  0.00    +0.000 C 
ENDROOT
BRANCH   5   7
ATOM      7  O   UNK     1      76.044  62.683 108.467  0.00  0.00    +0.000 OA
BRANCH   7   9
ATOM      8  O   UNK     1      74.434  64.171 108.194  0.00  0.00    +0.000 OA
ATOM      9  C   UNK     1      75.390  63.611 107.687  0.00  0.00    +0.000 C 
BRANCH   9  15
ATOM     10  C   UNK     1      75.767  65.099 105.884  0.00  0.00    +0.000 A 
ATOM     11  C   UNK     1      76.091  65.346 104.606  0.00  0.00    +0.000 A 
ATOM     12  C   UNK     1      76.394  64.320 103.791  0.00  0.00    +0.000 A 
ATOM     13  C   UNK     1      76.378  63.052 104.253  0.00  0.00    +0.000 A 
ATOM     14  C   UNK     1      76.060  62.848 105.546  0.00  0.00    +0.000 A 
ATOM     15  C   UNK     1      75.741  63.851 106.385  0.00  0.00    +0.000 A 
BRANCH  11  17
ATOM     16  H   UNK     1      75.350  67.130 104.484  0.00  0.00    +0.000 HD
ATOM     17  O   UNK     1      76.089  66.617 104.119  0.00  0.00    +0.000 OA
ENDBRANCH  11  17
BRANCH  12  19
ATOM     18  H   UNK     1      75.909  64.607 101.957  0.00  0.00    +0.000 HD
ATOM     19  O   UNK     1      76.715  64.593 102.498  0.00  0.00    +0.000 OA
ENDBRANCH  12  19
BRANCH  13  20
ATOM     20  O   UNK     1      76.677  61.981 103.450  0.00  0.00    +0.000 OA
BRANCH  20  22
ATOM     21  O   UNK     1      77.959  60.515 104.500  0.00  0.00    +0.000 OA
ATOM     22  C   UNK     1      76.841  60.771 104.089  0.00  0.00    +0.000 C 
BRANCH  22  28
ATOM     23  C   UNK     1      74.768  59.883 103.398  0.00  0.00    +0.000 A 
ATOM     24  C   UNK     1      73.742  59.028 103.538  0.00  0.00    +0.000 A 
ATOM     25  C   UNK     1      73.749  58.152 104.556  0.00  0.00    +0.000 A 
ATOM     26  C   UNK     1      74.774  58.133 105.425  0.00  0.00    +0.000 A 
ATOM     27  C   UNK     1      75.790  58.999 105.262  0.00  0.00    +0.000 A 
ATOM     28  C   UNK     1      75.808  59.887 104.250  0.00  0.00    +0.000 A 
BRANCH  26  30
ATOM     29  H   UNK     1      74.718  56.343 106.071  0.00  0.00    +0.000 HD
ATOM     30  O   UNK     1      74.761  57.237 106.449  0.00  0.00    +0.000 OA
ENDBRANCH  26  30
BRANCH  24  32
ATOM     31  H   UNK     1      72.380  59.951 102.548  0.00  0.00    +0.000 HD
ATOM     32  O   UNK     1      72.698  59.043 102.668  0.00  0.00    +0.000 OA
ENDBRANCH  24  32
BRANCH  25  34
ATOM     33  H   UNK     1      71.884  57.751 104.492  0.00  0.00    +0.000 HD
ATOM     34  O   UNK     1      72.711  57.287 104.704  0.00  0.00    +0.000 OA
ENDBRANCH  25  34
ENDBRANCH  22  28
ENDBRANCH  20  22
ENDBRANCH  13  20
ENDBRANCH   9  15
ENDBRANCH   7   9
ENDBRANCH   5   7
BRANCH   1  35
ATOM     35  C   UNK     1      75.178  61.951 113.933  0.00  0.00    +0.000 C 
BRANCH  35  36
ATOM     36  O   UNK     1      74.918  63.328 114.075  0.00  0.00    +0.000 OA
BRANCH  36  37
ATOM     37  C   UNK     1      73.634  63.810 113.945  0.00  0.00    +0.000 C 
ATOM     38  O   UNK     1      72.787  63.454 114.743  0.00  0.00    +0.000 OA
BRANCH  37  43
ATOM     39  C   UNK     1      73.891  66.627 111.686  0.00  0.00    +0.000 A 
ATOM     40  C   UNK     1      72.693  66.559 111.079  0.00  0.00    +0.000 A 
ATOM     41  C   UNK     1      71.836  65.565 111.366  0.00  0.00    +0.000 A 
ATOM     42  C   UNK     1      72.157  64.673 112.317  0.00  0.00    +0.000 A 
ATOM     43  C   UNK     1      73.328  64.731 112.977  0.00  0.00    +0.000 A 
ATOM     44  C   UNK     1      74.183  65.711 112.630  0.00  0.00    +0.000 A 
BRANCH  41  46
ATOM     45  H   UNK     1      70.047  64.910 111.143  0.00  0.00    +0.000 HD
ATOM     46  O   UNK     1      70.683  65.459 110.648  0.00  0.00    +0.000 OA
ENDBRANCH  41  46
BRANCH  40  47
ATOM     47  O   UNK     1      72.354  67.448 110.107  0.00  0.00    +0.000 OA
ATOM     48  H   UNK     1      72.410  68.339 110.496  0.00  0.00    +0.000 HD
ENDBRANCH  40  47
BRANCH  39  49
ATOM     49  O   UNK     1      74.774  67.611 111.325  0.00  0.00    +0.000 OA
BRANCH  49  50
ATOM     50  C   UNK     1      75.635  67.272 110.305  0.00  0.00    +0.000 C 
ATOM     51  O   UNK     1      75.946  66.096 110.242  0.00  0.00    +0.000 OA
BRANCH  50  54
ATOM     52  C   UNK     1      77.283  70.184 108.983  0.00  0.00    +0.000 A 
ATOM     53  C   UNK     1      76.787  69.275 109.838  0.00  0.00    +0.000 A 
ATOM     54  C   UNK     1      76.120  68.188 109.413  0.00  0.00    +0.000 A 
ATOM     55  C   UNK     1      75.957  68.038 108.085  0.00  0.00    +0.000 A 
ATOM     56  C   UNK     1      76.435  68.936 107.208  0.00  0.00    +0.000 A 
ATOM     57  C   UNK     1      77.091  70.017 107.663  0.00  0.00    +0.000 A 
BRANCH  52  58
ATOM     58  O   UNK     1      77.942  71.286 109.432  0.00  0.00    +0.000 OA
ATOM     59  H   UNK     1      78.884  71.071 109.536  0.00  0.00    +0.000 HD
ENDBRANCH  52  58
BRANCH  57  60
ATOM     60  O   UNK     1      77.596  70.925 106.785  0.00  0.00    +0.000 OA
ATOM     61  H   UNK     1      76.866  71.352 106.310  0.00  0.00    +0.000 HD
ENDBRANCH  57  60
BRANCH  56  62
ATOM     62  O   UNK     1      76.268  68.775 105.867  0.00  0.00    +0.000 OA
ATOM     63  H   UNK     1      77.112  68.964 105.426  0.00  0.00    +0.000 HD
ENDBRANCH  56  62
ENDBRANCH  50  54
ENDBRANCH  49  50
ENDBRANCH  39  49
ENDBRANCH  37  43
ENDBRANCH  36  37
ENDBRANCH  35  36
ENDBRANCH   1  35
BRANCH   4  64
ATOM     64  O   UNK     1      77.845  63.768 110.174  0.00  0.00    +0.000 OA
BRANCH  64  66
ATOM     65  O   UNK     1      79.856  63.044 109.940  0.00  0.00    +0.000 OA
ATOM     66  C   UNK     1      78.972  63.673 109.378  0.00  0.00    +0.000 C 
BRANCH  66  72
ATOM     67  C   UNK     1      78.937  65.368 107.630  0.00  0.00    +0.000 A 
ATOM     68  C   UNK     1      79.127  65.729 106.350  0.00  0.00    +0.000 A 
ATOM     69  C   UNK     1      79.630  64.838 105.481  0.00  0.00    +0.000 A 
ATOM     70  C   UNK     1      79.970  63.600 105.892  0.00  0.00    +0.000 A 
ATOM     71  C   UNK     1      79.769  63.310 107.193  0.00  0.00    +0.000 A 
ATOM     72  C   UNK     1      79.211  64.137 108.101  0.00  0.00    +0.000 A 
BRANCH  68  74
ATOM     73  H   UNK     1      77.888  67.209 106.000  0.00  0.00    +0.000 HD
ATOM     74  O   UNK     1      78.833  66.991 105.928  0.00  0.00    +0.000 OA
ENDBRANCH  68  74
BRANCH  69  76
ATOM     75  H   UNK     1      79.416  66.092 104.052  0.00  0.00    +0.000 HD
ATOM     76  O   UNK     1      79.807  65.213 104.184  0.00  0.00    +0.000 OA
ENDBRANCH  69  76
BRANCH  70  77
ATOM     77  O   UNK     1      80.464  62.702 104.972  0.00  0.00    +0.000 OA
BRANCH  77  79
ATOM     78  O   UNK     1      82.517  63.376 104.476  0.00  0.00    +0.000 OA
ATOM     79  C   UNK     1      81.827  62.479 104.928  0.00  0.00    +0.000 C 
BRANCH  79  85
ATOM     80  C   UNK     1      81.678  60.203 105.558  0.00  0.00    +0.000 A 
ATOM     81  C   UNK     1      82.210  59.087 106.083  0.00  0.00    +0.000 A 
ATOM     82  C   UNK     1      83.511  59.069 106.415  0.00  0.00    +0.000 A 
ATOM     83  C   UNK     1      84.270  60.159 106.223  0.00  0.00    +0.000 A 
ATOM     84  C   UNK     1      83.711  61.269 105.714  0.00  0.00    +0.000 A 
ATOM     85  C   UNK     1      82.406  61.323 105.384  0.00  0.00    +0.000 A 
BRANCH  83  87
ATOM     86  H   UNK     1      85.635  60.196 107.552  0.00  0.00    +0.000 HD
ATOM     87  O   UNK     1      85.582  60.124 106.585  0.00  0.00    +0.000 OA
ENDBRANCH  83  87
BRANCH  81  89
ATOM     88  H   UNK     1      80.565  58.105 105.931  0.00  0.00    +0.000 HD
ATOM     89  O   UNK     1      81.448  57.986 106.314  0.00  0.00    +0.000 OA
ENDBRANCH  81  89
BRANCH  82  91
ATOM     90  H   UNK     1      84.347  57.359 106.282  0.00  0.00    +0.000 HD
ATOM     91  O   UNK     1      84.040  57.955 106.986  0.00  0.00    +0.000 OA
ENDBRANCH  82  91
ENDBRANCH  79  85
ENDBRANCH  77  79
ENDBRANCH  70  77
ENDBRANCH  66  72
ENDBRANCH  64  66
ENDBRANCH   4  64
BRANCH   3  92
ATOM     92  O   UNK     1      77.761  62.977 113.027  0.00  0.00    +0.000 OA
BRANCH  92  94
ATOM     93  O   UNK     1      78.463  60.857 113.051  0.00  0.00    +0.000 OA
ATOM     94  C   UNK     1      78.234  61.865 113.692  0.00  0.00    +0.000 C 
BRANCH  94 100
ATOM     95  C   UNK     1      79.234  61.003 115.691  0.00  0.00    +0.000 A 
ATOM     96  C   UNK     1      79.510  61.154 116.999  0.00  0.00    +0.000 A 
ATOM     97  C   UNK     1      79.107  62.263 117.652  0.00  0.00    +0.000 A 
ATOM     98  C   UNK     1      78.393  63.215 117.019  0.00  0.00    +0.000 A 
ATOM     99  C   UNK     1      78.067  62.972 115.737  0.00  0.00    +0.000 A 
ATOM    100  C   UNK     1      78.497  61.913 115.035  0.00  0.00    +0.000 A 
BRANCH  96 102
ATOM    101  H   UNK     1      80.164  60.308 118.609  0.00  0.00    +0.000 HD
ATOM    102  O   UNK     1      80.269  60.229 117.647  0.00  0.00    +0.000 OA
ENDBRANCH  96 102
BRANCH  97 104
ATOM    103  H   UNK     1      78.667  62.534 119.493  0.00  0.00    +0.000 HD
ATOM    104  O   UNK     1      79.468  62.424 118.954  0.00  0.00    +0.000 OA
ENDBRANCH  97 104
BRANCH  98 105
ATOM    105  O   UNK     1      78.030  64.398 117.631  0.00  0.00    +0.000 OA
BRANCH 105 107
ATOM    106  O   UNK     1      76.445  63.701 119.033  0.00  0.00    +0.000 OA
ATOM    107  C   UNK     1      76.708  64.379 118.055  0.00  0.00    +0.000 C 
BRANCH 107 113
ATOM    108  C   UNK     1      74.439  64.919 117.682  0.00  0.00    +0.000 A 
ATOM    109  C   UNK     1      73.477  65.635 117.076  0.00  0.00    +0.000 A 
ATOM    110  C   UNK     1      73.824  66.614 116.224  0.00  0.00    +0.000 A 
ATOM    111  C   UNK     1      75.120  66.895 116.009  0.00  0.00    +0.000 A 
ATOM    112  C   UNK     1      76.063  66.179 116.647  0.00  0.00    +0.000 A 
ATOM    113  C   UNK     1      75.745  65.172 117.483  0.00  0.00    +0.000 A 
BRANCH 111 115
ATOM    114  H   UNK     1      76.408  67.998 115.125  0.00  0.00    +0.000 HD
ATOM    115  O   UNK     1      75.446  67.853 115.098  0.00  0.00    +0.000 OA
ENDBRANCH 111 115
BRANCH 109 117
ATOM    116  H   UNK     1      72.030  65.054 118.199  0.00  0.00    +0.000 HD
ATOM    117  O   UNK     1      72.162  65.359 117.288  0.00  0.00    +0.000 OA
ENDBRANCH 109 117
BRANCH 110 119
ATOM    118  H   UNK     1      73.101  68.257 115.577  0.00  0.00    +0.000 HD
ATOM    119  O   UNK     1      72.855  67.318 115.582  0.00  0.00    +0.000 OA
ENDBRANCH 110 119
ENDBRANCH 107 113
ENDBRANCH 105 107
ENDBRANCH  98 105
ENDBRANCH  94 100
ENDBRANCH  92  94
ENDBRANCH   3  92
BRANCH   6 120
ATOM    120  O   UNK     1      73.856  61.215 109.607  0.00  0.00    +0.000 OA
BRANCH 120 122
ATOM    121  O   UNK     1      74.399  59.167 108.891  0.00  0.00    +0.000 OA
ATOM    122  C   UNK     1      73.681  60.140 108.769  0.00  0.00    +0.000 C 
BRANCH 122 128
ATOM    123  C   UNK     1      71.851  59.322 107.464  0.00  0.00    +0.000 A 
ATOM    124  C   UNK     1      71.057  59.471 106.390  0.00  0.00    +0.000 A 
ATOM    125  C   UNK     1      71.214  60.526 105.566  0.00  0.00    +0.000 A 
ATOM    126  C   UNK     1      72.078  61.514 105.867  0.00  0.00    +0.000 A 
ATOM    127  C   UNK     1      72.826  61.334 106.966  0.00  0.00    +0.000 A 
ATOM    128  C   UNK     1      72.776  60.249 107.752  0.00  0.00    +0.000 A 
BRANCH 124 130
ATOM    129  H   UNK     1      69.624  58.260 106.826  0.00  0.00    +0.000 HD
ATOM    130  O   UNK     1      70.169  58.497 106.054  0.00  0.00    +0.000 OA
ENDBRANCH 124 130
BRANCH 125 132
ATOM    131  H   UNK     1      70.487  59.689 104.008  0.00  0.00    +0.000 HD
ATOM    132  O   UNK     1      70.482  60.566 104.423  0.00  0.00    +0.000 OA
ENDBRANCH 125 132
BRANCH 126 133
ATOM    133  O   UNK     1      72.252  62.634 105.084  0.00  0.00    +0.000 OA
BRANCH 133 135
ATOM    134  O   UNK     1      70.140  63.245 104.841  0.00  0.00    +0.000 OA
ATOM    135  C   UNK     1      71.245  63.575 105.235  0.00  0.00    +0.000 C 
BRANCH 135 141
ATOM    136  C   UNK     1      70.627  65.235 106.828  0.00  0.00    +0.000 A 
ATOM    137  C   UNK     1      70.739  66.471 107.348  0.00  0.00    +0.000 A 
ATOM    138  C   UNK     1      71.705  67.287 106.900  0.00  0.00    +0.000 A 
ATOM    139  C   UNK     1      72.561  66.863 105.955  0.00  0.00    +0.000 A 
ATOM    140  C   UNK     1      72.404  65.635 105.432  0.00  0.00    +0.000 A 
ATOM    141  C   UNK     1      71.426  64.799 105.833  0.00  0.00    +0.000 A 
BRANCH 139 143
ATOM    142  H   UNK     1      74.401  67.266 105.678  0.00  0.00    +0.000 HD
ATOM    143  O   UNK     1      73.545  67.699 105.528  0.00  0.00    +0.000 OA
ENDBRANCH 139 143
BRANCH 137 145
ATOM    144  H   UNK     1      68.976  66.834 108.018  0.00  0.00    +0.000 HD
ATOM    145  O   UNK     1      69.894  66.917 108.317  0.00  0.00    +0.000 OA
ENDBRANCH 137 145
BRANCH 138 147
ATOM    146  H   UNK     1      70.951  68.871 107.638  0.00  0.00    +0.000 HD
ATOM    147  O   UNK     1      71.837  68.525 107.443  0.00  0.00    +0.000 OA
ENDBRANCH 138 147
ENDBRANCH 135 141
ENDBRANCH 133 135
ENDBRANCH 126 133
ENDBRANCH 122 128
ENDBRANCH 120 122
ENDBRANCH   6 120
TORSDOF 56
ENDMDL
MODEL 7
REMARK VINA RESULT:      -8.3      6.682     12.974
REMARK  Name = ./3951.pdb
REMARK  56 active torsions:
REMARK  status: ('A' for Active; 'I' for Inactive)
REMARK    1  A    between atoms: O_1  and  C_2
REMARK    2  A    between atoms: C_4  and  C_10
REMARK    3  A    between atoms: C_6  and  O_9
REMARK    4  A    between atoms: C_7  and  O_8
REMARK    5  A    between atoms: C_10  and  O_12
REMARK    6  A    between atoms: O_12  and  C_13
REMARK    7  A    between atoms: C_14  and  O_15
REMARK    8  A    between atoms: C_16  and  O_78
REMARK    9  A    between atoms: C_18  and  C_20
REMARK   10  A    between atoms: C_20  and  O_22
REMARK   11  A    between atoms: O_22  and  C_23
REMARK   12  A    between atoms: C_23  and  C_24
REMARK   13  A    between atoms: O_79  and  C_85
REMARK   14  A    between atoms: O_80  and  C_82
REMARK   15  A    between atoms: O_83  and  C_84
REMARK   16  A    between atoms: C_87  and  C_89
REMARK   17  A    between atoms: C_89  and  O_90
REMARK   18  A    between atoms: O_90  and  C_96
REMARK   19  A    between atoms: O_91  and  C_93
REMARK   20  A    between atoms: O_94  and  C_95
REMARK   21  A    between atoms: C_98  and  C_100
REMARK   22  A    between atoms: C_100  and  O_101
REMARK   23  A    between atoms: O_101  and  C_102
REMARK   24  A    between atoms: O_103  and  C_109
REMARK   25  A    between atoms: O_104  and  C_106
REMARK   26  A    between atoms: O_107  and  C_108
REMARK   27  A    between atoms: C_111  and  C_113
REMARK   28  A    between atoms: C_113  and  O_114
REMARK   29  A    between atoms: O_114  and  C_120
REMARK   30  A    between atoms: O_115  and  C_117
REMARK   31  A    between atoms: O_118  and  C_119
REMARK   32  A    between atoms: C_122  and  C_124
REMARK   33  A    between atoms: C_124  and  O_125
REMARK   34  A    between atoms: O_125  and  C_126
REMARK   35  A    between atoms: O_127  and  C_133
REMARK   36  A    between atoms: O_128  and  C_130
REMARK   37  A    between atoms: O_131  and  C_132
REMARK   38  A    between atoms: C_135  and  C_137
REMARK   39  A    between atoms: C_137  and  O_138
REMARK   40  A    between atoms: O_138  and  C_144
REMARK   41  A    between atoms: O_139  and  C_141
REMARK   42  A    between atoms: O_142  and  C_143
REMARK   43  A    between atoms: C_146  and  C_148
REMARK   44  A    between atoms: C_148  and  O_149
REMARK   45  A    between atoms: O_149  and  C_150
REMARK   46  A    between atoms: O_151  and  C_157
REMARK   47  A    between atoms: O_152  and  C_154
REMARK   48  A    between atoms: O_155  and  C_156
REMARK   49  A    between atoms: C_159  and  C_161
REMARK   50  A    between atoms: C_161  and  O_162
REMARK   51  A    between atoms: O_162  and  C_168
REMARK   52  A    between atoms: O_163  and  C_165
REMARK   53  A    between atoms: O_166  and  C_167
REMARK   54  A    between atoms: C_170  and  C_172
REMARK   55  A    between atoms: C_172  and  O_173
REMARK   56  A    between atoms: O_173  and  C_174
REMARK                            x       y       z     vdW  Elec       q    Type
REMARK                         _______ _______ _______ _____ _____    ______ ____
ROOT
ATOM      1  C   UNK     1      64.903  56.183 102.659  0.00  0.00    +0.000 C 
ATOM      2  O   UNK     1      65.824  57.178 102.307  0.00  0.00    +0.000 OA
ATOM      3  C   UNK     1      65.574  54.804 102.683  0.00  0.00    +0.000 C 
ATOM      4  C   UNK     1      66.331  54.551 101.373  0.00  0.00    +0.000 C 
ATOM      5  C   UNK     1      67.347  55.685 101.220  0.00  0.00    +0.000 C 
ATOM      6  C   UNK     1      66.520  56.937 101.113  0.00  0.00    +0.000 C 
ENDROOT
BRANCH   5   7
ATOM      7  O   UNK     1      68.159  55.447 100.105  0.00  0.00    +0.000 OA
BRANCH   7   9
ATOM      8  O   UNK     1      70.050  55.795 101.193  0.00  0.00    +0.000 OA
ATOM      9  C   UNK     1      69.447  55.935 100.143  0.00  0.00    +0.000 C 
BRANCH   9  15
ATOM     10  C   UNK     1      69.276  56.959  98.016  0.00  0.00    +0.000 A 
ATOM     11  C   UNK     1      69.815  57.601  96.969  0.00  0.00    +0.000 A 
ATOM     12  C   UNK     1      71.127  57.899  96.981  0.00  0.00    +0.000 A 
ATOM     13  C   UNK     1      71.895  57.561  98.037  0.00  0.00    +0.000 A 
ATOM     14  C   UNK     1      71.313  56.929  99.073  0.00  0.00    +0.000 A 
ATOM     15  C   UNK     1      70.007  56.607  99.089  0.00  0.00    +0.000 A 
BRANCH  11  17
ATOM     16  H   UNK     1      68.559  57.161  95.564  0.00  0.00    +0.000 HD
ATOM     17  O   UNK     1      69.059  57.928  95.885  0.00  0.00    +0.000 OA
ENDBRANCH  11  17
BRANCH  12  19
ATOM     18  H   UNK     1      72.589  58.306  95.806  0.00  0.00    +0.000 HD
ATOM     19  O   UNK     1      71.654  58.546  95.906  0.00  0.00    +0.000 OA
ENDBRANCH  12  19
BRANCH  13  20
ATOM     20  O   UNK     1      73.237  57.845  98.082  0.00  0.00    +0.000 OA
BRANCH  20  22
ATOM     21  O   UNK     1      73.093  60.045  97.900  0.00  0.00    +0.000 OA
ATOM     22  C   UNK     1      73.575  59.110  98.514  0.00  0.00    +0.000 C 
BRANCH  22  28
ATOM     23  C   UNK     1      75.539  60.042  99.427  0.00  0.00    +0.000 A 
ATOM     24  C   UNK     1      76.382  60.255 100.451  0.00  0.00    +0.000 A 
ATOM     25  C   UNK     1      76.101  59.731 101.656  0.00  0.00    +0.000 A 
ATOM     26  C   UNK     1      74.986  59.001 101.832  0.00  0.00    +0.000 A 
ATOM     27  C   UNK     1      74.159  58.802 100.791  0.00  0.00    +0.000 A 
ATOM     28  C   UNK     1      74.416  59.317  99.573  0.00  0.00    +0.000 A 
BRANCH  26  30
ATOM     29  H   UNK     1      74.323  57.602 102.939  0.00  0.00    +0.000 HD
ATOM     30  O   UNK     1      74.721  58.479 103.061  0.00  0.00    +0.000 OA
ENDBRANCH  26  30
BRANCH  24  32
ATOM     31  H   UNK     1      78.091  60.561  99.631  0.00  0.00    +0.000 HD
ATOM     32  O   UNK     1      77.514  60.989 100.282  0.00  0.00    +0.000 OA
ENDBRANCH  24  32
BRANCH  25  34
ATOM     33  H   UNK     1      77.473  59.135 102.841  0.00  0.00    +0.000 HD
ATOM     34  O   UNK     1      76.952  59.942 102.694  0.00  0.00    +0.000 OA
ENDBRANCH  25  34
ENDBRANCH  22  28
ENDBRANCH  20  22
ENDBRANCH  13  20
ENDBRANCH   9  15
ENDBRANCH   7   9
ENDBRANCH   5   7
BRANCH   1  35
ATOM     35  C   UNK     1      64.360  56.576 104.036  0.00  0.00    +0.000 C 
BRANCH  35  36
ATOM     36  O   UNK     1      65.173  55.991 105.028  0.00  0.00    +0.000 OA
BRANCH  36  37
ATOM     37  C   UNK     1      65.420  56.659 106.207  0.00  0.00    +0.000 C 
ATOM     38  O   UNK     1      66.454  56.430 106.807  0.00  0.00    +0.000 OA
BRANCH  37  43
ATOM     39  C   UNK     1      62.414  58.272 107.416  0.00  0.00    +0.000 A 
ATOM     40  C   UNK     1      62.852  59.539 107.534  0.00  0.00    +0.000 A 
ATOM     41  C   UNK     1      64.133  59.847 107.276  0.00  0.00    +0.000 A 
ATOM     42  C   UNK     1      64.964  58.889 106.832  0.00  0.00    +0.000 A 
ATOM     43  C   UNK     1      64.555  57.619 106.661  0.00  0.00    +0.000 A 
ATOM     44  C   UNK     1      63.277  57.336 106.976  0.00  0.00    +0.000 A 
BRANCH  41  46
ATOM     45  H   UNK     1      64.245  61.705 106.815  0.00  0.00    +0.000 HD
ATOM     46  O   UNK     1      64.570  61.114 107.519  0.00  0.00    +0.000 OA
ENDBRANCH  41  46
BRANCH  40  47
ATOM     47  O   UNK     1      62.027  60.519 107.990  0.00  0.00    +0.000 OA
ATOM     48  H   UNK     1      61.637  60.956 107.213  0.00  0.00    +0.000 HD
ENDBRANCH  40  47
BRANCH  39  49
ATOM     49  O   UNK     1      61.120  57.973 107.752  0.00  0.00    +0.000 OA
BRANCH  49  50
ATOM     50  C   UNK     1      60.950  57.486 109.029  0.00  0.00    +0.000 C 
ATOM     51  O   UNK     1      60.917  56.273 109.133  0.00  0.00    +0.000 OA
BRANCH  50  54
ATOM     52  C   UNK     1      59.519  59.767 111.416  0.00  0.00    +0.000 A 
ATOM     53  C   UNK     1      59.676  58.969 110.347  0.00  0.00    +0.000 A 
ATOM     54  C   UNK     1      60.820  58.301 110.119  0.00  0.00    +0.000 A 
ATOM     55  C   UNK     1      61.822  58.462 111.005  0.00  0.00    +0.000 A 
ATOM     56  C   UNK     1      61.695  59.261 112.077  0.00  0.00    +0.000 A 
ATOM     57  C   UNK     1      60.542  59.922 112.274  0.00  0.00    +0.000 A 
BRANCH  52  58
ATOM     58  O   UNK     1      58.359  60.447 111.621  0.00  0.00    +0.000 OA
ATOM     59  H   UNK     1      58.030  60.248 112.513  0.00  0.00    +0.000 HD
ENDBRANCH  52  58
BRANCH  57  60
ATOM     60  O   UNK     1      60.394  60.720 113.366  0.00  0.00    +0.000 OA
ATOM     61  H   UNK     1      59.537  61.173 113.318  0.00  0.00    +0.000 HD
ENDBRANCH  57  60
BRANCH  56  62
ATOM     62  O   UNK     1      62.712  59.416 112.969  0.00  0.00    +0.000 OA
ATOM     63  H   UNK     1      62.597  58.768 113.683  0.00  0.00    +0.000 HD
ENDBRANCH  56  62
ENDBRANCH  50  54
ENDBRANCH  49  50
ENDBRANCH  39  49
ENDBRANCH  37  43
ENDBRANCH  36  37
ENDBRANCH  35  36
ENDBRANCH   1  35
BRANCH   4  64
ATOM     64  O   UNK     1      67.022  53.347 101.383  0.00  0.00    +0.000 OA
BRANCH  64  66
ATOM     65  O   UNK     1      66.954  51.478 102.444  0.00  0.00    +0.000 OA
ATOM     66  C   UNK     1      67.377  52.623 102.506  0.00  0.00    +0.000 C 
BRANCH  66  72
ATOM     67  C   UNK     1      67.655  53.273 104.837  0.00  0.00    +0.000 A 
ATOM     68  C   UNK     1      68.434  53.693 105.846  0.00  0.00    +0.000 A 
ATOM     69  C   UNK     1      69.756  53.825 105.648  0.00  0.00    +0.000 A 
ATOM     70  C   UNK     1      70.303  53.511 104.456  0.00  0.00    +0.000 A 
ATOM     71  C   UNK     1      69.465  53.079 103.493  0.00  0.00    +0.000 A 
ATOM     72  C   UNK     1      68.124  52.985 103.608  0.00  0.00    +0.000 A 
BRANCH  68  74
ATOM     73  H   UNK     1      67.684  54.910 107.189  0.00  0.00    +0.000 HD
ATOM     74  O   UNK     1      67.906  53.969 107.071  0.00  0.00    +0.000 OA
ENDBRANCH  68  74
BRANCH  69  76
ATOM     75  H   UNK     1      70.318  53.755 107.476  0.00  0.00    +0.000 HD
ATOM     76  O   UNK     1      70.534  54.262 106.676  0.00  0.00    +0.000 OA
ENDBRANCH  69  76
BRANCH  70  77
ATOM     77  O   UNK     1      71.659  53.677 104.279  0.00  0.00    +0.000 OA
BRANCH  77  79
ATOM     78  O   UNK     1      71.480  55.885 104.206  0.00  0.00    +0.000 OA
ATOM     79  C   UNK     1      72.129  54.910 103.871  0.00  0.00    +0.000 C 
BRANCH  79  85
ATOM     80  C   UNK     1      73.240  55.206 101.802  0.00  0.00    +0.000 A 
ATOM     81  C   UNK     1      74.358  55.273 101.062  0.00  0.00    +0.000 A 
ATOM     82  C   UNK     1      75.554  55.227 101.671  0.00  0.00    +0.000 A 
ATOM     83  C   UNK     1      75.628  55.116 103.006  0.00  0.00    +0.000 A 
ATOM     84  C   UNK     1      74.494  55.033 103.722  0.00  0.00    +0.000 A 
ATOM     85  C   UNK     1      73.280  55.062 103.141  0.00  0.00    +0.000 A 
BRANCH  83  87
ATOM     86  H   UNK     1      77.521  54.930 102.906  0.00  0.00    +0.000 HD
ATOM     87  O   UNK     1      76.851  55.054 103.599  0.00  0.00    +0.000 OA
ENDBRANCH  83  87
BRANCH  81  89
ATOM     88  H   UNK     1      74.031  54.499  99.333  0.00  0.00    +0.000 HD
ATOM     89  O   UNK     1      74.302  55.352  99.707  0.00  0.00    +0.000 OA
ENDBRANCH  81  89
BRANCH  82  91
ATOM     90  H   UNK     1      76.719  54.444 100.377  0.00  0.00    +0.000 HD
ATOM     91  O   UNK     1      76.687  55.250 100.920  0.00  0.00    +0.000 OA
ENDBRANCH  82  91
ENDBRANCH  79  85
ENDBRANCH  77  79
ENDBRANCH  70  77
ENDBRANCH  66  72
ENDBRANCH  64  66
ENDBRANCH   4  64
BRANCH   3  92
ATOM     92  O   UNK     1      64.638  53.829 103.074  0.00  0.00    +0.000 OA
BRANCH  92  94
ATOM     93  O   UNK     1      63.568  53.279 101.192  0.00  0.00    +0.000 OA
ATOM     94  C   UNK     1      63.479  53.655 102.346  0.00  0.00    +0.000 C 
BRANCH  94 100
ATOM     95  C   UNK     1      61.783  53.110 103.947  0.00  0.00    +0.000 A 
ATOM     96  C   UNK     1      60.596  53.398 104.512  0.00  0.00    +0.000 A 
ATOM     97  C   UNK     1      59.897  54.476 104.104  0.00  0.00    +0.000 A 
ATOM     98  C   UNK     1      60.353  55.255 103.104  0.00  0.00    +0.000 A 
ATOM     99  C   UNK     1      61.498  54.871 102.513  0.00  0.00    +0.000 A 
ATOM    100  C   UNK     1      62.254  53.843 102.926  0.00  0.00    +0.000 A 
BRANCH  96 102
ATOM    101  H   UNK     1      60.443  51.735 105.484  0.00  0.00    +0.000 HD
ATOM    102  O   UNK     1      60.139  52.654 105.555  0.00  0.00    +0.000 OA
ENDBRANCH  96 102
BRANCH  97 104
ATOM    103  H   UNK     1      58.575  54.126 105.441  0.00  0.00    +0.000 HD
ATOM    104  O   UNK     1      58.739  54.787 104.748  0.00  0.00    +0.000 OA
ENDBRANCH  97 104
BRANCH  98 105
ATOM    105  O   UNK     1      59.705  56.409 102.710  0.00  0.00    +0.000 OA
BRANCH 105 107
ATOM    106  O   UNK     1      59.701  57.654 104.559  0.00  0.00    +0.000 OA
ATOM    107  C   UNK     1      60.136  57.518 103.428  0.00  0.00    +0.000 C 
BRANCH 107 113
ATOM    108  C   UNK     1      61.704  59.252 103.765  0.00  0.00    +0.000 A 
ATOM    109  C   UNK     1      62.596  60.146 103.307  0.00  0.00    +0.000 A 
ATOM    110  C   UNK     1      62.873  60.185 101.993  0.00  0.00    +0.000 A 
ATOM    111  C   UNK     1      62.289  59.314 101.153  0.00  0.00    +0.000 A 
ATOM    112  C   UNK     1      61.419  58.413 101.641  0.00  0.00    +0.000 A 
ATOM    113  C   UNK     1      61.099  58.370 102.948  0.00  0.00    +0.000 A 
BRANCH 111 115
ATOM    114  H   UNK     1      62.383  58.545  99.405  0.00  0.00    +0.000 HD
ATOM    115  O   UNK     1      62.544  59.411  99.819  0.00  0.00    +0.000 OA
ENDBRANCH 111 115
BRANCH 109 117
ATOM    116  H   UNK     1      63.370  60.609 105.004  0.00  0.00    +0.000 HD
ATOM    117  O   UNK     1      63.193  61.032 104.149  0.00  0.00    +0.000 OA
ENDBRANCH 109 117
BRANCH 110 119
ATOM    118  H   UNK     1      64.228  60.732 100.766  0.00  0.00    +0.000 HD
ATOM    119  O   UNK     1      63.749  61.111 101.520  0.00  0.00    +0.000 OA
ENDBRANCH 110 119
ENDBRANCH 107 113
ENDBRANCH 105 107
ENDBRANCH  98 105
ENDBRANCH  94 100
ENDBRANCH  92  94
ENDBRANCH   3  92
BRANCH   6 120
ATOM    120  O   UNK     1      67.293  58.080 100.852  0.00  0.00    +0.000 OA
BRANCH 120 122
ATOM    121  O   UNK     1      65.649  59.314  99.972  0.00  0.00    +0.000 OA
ATOM    122  C   UNK     1      66.844  59.142 100.105  0.00  0.00    +0.000 C 
BRANCH 122 128
ATOM    123  C   UNK     1      67.611  60.344  98.185  0.00  0.00    +0.000 A 
ATOM    124  C   UNK     1      68.605  61.016  97.579  0.00  0.00    +0.000 A 
ATOM    125  C   UNK     1      69.780  61.212  98.210  0.00  0.00    +0.000 A 
ATOM    126  C   UNK     1      69.939  60.855  99.499  0.00  0.00    +0.000 A 
ATOM    127  C   UNK     1      68.907  60.215 100.069  0.00  0.00    +0.000 A 
ATOM    128  C   UNK     1      67.764  59.905  99.442  0.00  0.00    +0.000 A 
BRANCH 124 130
ATOM    129  H   UNK     1      67.647  61.881  96.150  0.00  0.00    +0.000 HD
ATOM    130  O   UNK     1      68.482  61.397  96.279  0.00  0.00    +0.000 OA
ENDBRANCH 124 130
BRANCH 125 132
ATOM    131  H   UNK     1      70.470  62.076  96.650  0.00  0.00    +0.000 HD
ATOM    132  O   UNK     1      70.799  61.778  97.514  0.00  0.00    +0.000 OA
ENDBRANCH 125 132
BRANCH 126 133
ATOM    133  O   UNK     1      71.101  61.068 100.207  0.00  0.00    +0.000 OA
BRANCH 133 135
ATOM    134  O   UNK     1      70.744  63.148 100.869  0.00  0.00    +0.000 OA
ATOM    135  C   UNK     1      70.968  62.002 101.222  0.00  0.00    +0.000 C 
BRANCH 135 141
ATOM    136  C   UNK     1      70.190  62.246 103.460  0.00  0.00    +0.000 A 
ATOM    137  C   UNK     1      70.307  62.020 104.781  0.00  0.00    +0.000 A 
ATOM    138  C   UNK     1      71.258  61.182 105.222  0.00  0.00    +0.000 A 
ATOM    139  C   UNK     1      72.068  60.562 104.348  0.00  0.00    +0.000 A 
ATOM    140  C   UNK     1      71.948  60.832 103.037  0.00  0.00    +0.000 A 
ATOM    141  C   UNK     1      71.026  61.692 102.559  0.00  0.00    +0.000 A 
BRANCH 139 143
ATOM    142  H   UNK     1      72.690  58.795 104.687  0.00  0.00    +0.000 HD
ATOM    143  O   UNK     1      73.013  59.702 104.815  0.00  0.00    +0.000 OA
ENDBRANCH 139 143
BRANCH 137 145
ATOM    144  H   UNK     1      68.741  63.038 105.226  0.00  0.00    +0.000 HD
ATOM    145  O   UNK     1      69.488  62.623 105.684  0.00  0.00    +0.000 OA
ENDBRANCH 137 145
BRANCH 138 147
ATOM    146  H   UNK     1      70.820  61.581 107.030  0.00  0.00    +0.000 HD
ATOM    147  O   UNK     1      71.361  60.931 106.553  0.00  0.00    +0.000 OA
ENDBRANCH 138 147
ENDBRANCH 135 141
ENDBRANCH 133 135
ENDBRANCH 126 133
ENDBRANCH 122 128
ENDBRANCH 120 122
ENDBRANCH   6 120
TORSDOF 56
ENDMDL
MODEL 8
REMARK VINA RESULT:      -8.2      3.276      9.861
REMARK  Name = ./3951.pdb
REMARK  56 active torsions:
REMARK  status: ('A' for Active; 'I' for Inactive)
REMARK    1  A    between atoms: O_1  and  C_2
REMARK    2  A    between atoms: C_4  and  C_10
REMARK    3  A    between atoms: C_6  and  O_9
REMARK    4  A    between atoms: C_7  and  O_8
REMARK    5  A    between atoms: C_10  and  O_12
REMARK    6  A    between atoms: O_12  and  C_13
REMARK    7  A    between atoms: C_14  and  O_15
REMARK    8  A    between atoms: C_16  and  O_78
REMARK    9  A    between atoms: C_18  and  C_20
REMARK   10  A    between atoms: C_20  and  O_22
REMARK   11  A    between atoms: O_22  and  C_23
REMARK   12  A    between atoms: C_23  and  C_24
REMARK   13  A    between atoms: O_79  and  C_85
REMARK   14  A    between atoms: O_80  and  C_82
REMARK   15  A    between atoms: O_83  and  C_84
REMARK   16  A    between atoms: C_87  and  C_89
REMARK   17  A    between atoms: C_89  and  O_90
REMARK   18  A    between atoms: O_90  and  C_96
REMARK   19  A    between atoms: O_91  and  C_93
REMARK   20  A    between atoms: O_94  and  C_95
REMARK   21  A    between atoms: C_98  and  C_100
REMARK   22  A    between atoms: C_100  and  O_101
REMARK   23  A    between atoms: O_101  and  C_102
REMARK   24  A    between atoms: O_103  and  C_109
REMARK   25  A    between atoms: O_104  and  C_106
REMARK   26  A    between atoms: O_107  and  C_108
REMARK   27  A    between atoms: C_111  and  C_113
REMARK   28  A    between atoms: C_113  and  O_114
REMARK   29  A    between atoms: O_114  and  C_120
REMARK   30  A    between atoms: O_115  and  C_117
REMARK   31  A    between atoms: O_118  and  C_119
REMARK   32  A    between atoms: C_122  and  C_124
REMARK   33  A    between atoms: C_124  and  O_125
REMARK   34  A    between atoms: O_125  and  C_126
REMARK   35  A    between atoms: O_127  and  C_133
REMARK   36  A    between atoms: O_128  and  C_130
REMARK   37  A    between atoms: O_131  and  C_132
REMARK   38  A    between atoms: C_135  and  C_137
REMARK   39  A    between atoms: C_137  and  O_138
REMARK   40  A    between atoms: O_138  and  C_144
REMARK   41  A    between atoms: O_139  and  C_141
REMARK   42  A    between atoms: O_142  and  C_143
REMARK   43  A    between atoms: C_146  and  C_148
REMARK   44  A    between atoms: C_148  and  O_149
REMARK   45  A    between atoms: O_149  and  C_150
REMARK   46  A    between atoms: O_151  and  C_157
REMARK   47  A    between atoms: O_152  and  C_154
REMARK   48  A    between atoms: O_155  and  C_156
REMARK   49  A    between atoms: C_159  and  C_161
REMARK   50  A    between atoms: C_161  and  O_162
REMARK   51  A    between atoms: O_162  and  C_168
REMARK   52  A    between atoms: O_163  and  C_165
REMARK   53  A    between atoms: O_166  and  C_167
REMARK   54  A    between atoms: C_170  and  C_172
REMARK   55  A    between atoms: C_172  and  O_173
REMARK   56  A    between atoms: O_173  and  C_174
REMARK                            x       y       z     vdW  Elec       q    Type
REMARK                         _______ _______ _______ _____ _____    ______ ____
ROOT
ATOM      1  C   UNK     1      77.434  63.959 105.624  0.00  0.00    +0.000 C 
ATOM      2  O   UNK     1      76.905  62.702 105.306  0.00  0.00    +0.000 OA
ATOM      3  C   UNK     1      77.032  65.001 104.571  0.00  0.00    +0.000 C 
ATOM      4  C   UNK     1      77.365  64.496 103.161  0.00  0.00    +0.000 C 
ATOM      5  C   UNK     1      76.621  63.172 102.976  0.00  0.00    +0.000 C 
ATOM      6  C   UNK     1      77.204  62.249 104.012  0.00  0.00    +0.000 C 
ENDROOT
BRANCH   5   7
ATOM      7  O   UNK     1      76.782  62.718 101.662  0.00  0.00    +0.000 OA
BRANCH   7   9
ATOM      8  O   UNK     1      75.319  63.556 100.234  0.00  0.00    +0.000 OA
ATOM      9  C   UNK     1      75.646  62.585 100.894  0.00  0.00    +0.000 C 
BRANCH   9  15
ATOM     10  C   UNK     1      74.791  60.642  99.847  0.00  0.00    +0.000 A 
ATOM     11  C   UNK     1      74.026  59.539  99.850  0.00  0.00    +0.000 A 
ATOM     12  C   UNK     1      73.313  59.233 100.948  0.00  0.00    +0.000 A 
ATOM     13  C   UNK     1      73.368  60.022 102.042  0.00  0.00    +0.000 A 
ATOM     14  C   UNK     1      74.158  61.111 102.003  0.00  0.00    +0.000 A 
ATOM     15  C   UNK     1      74.875  61.453 100.917  0.00  0.00    +0.000 A 
BRANCH  11  17
ATOM     16  H   UNK     1      73.983  57.807  98.988  0.00  0.00    +0.000 HD
ATOM     17  O   UNK     1      73.941  58.746  98.747  0.00  0.00    +0.000 OA
ENDBRANCH  11  17
BRANCH  12  19
ATOM     18  H   UNK     1      72.608  57.652 101.779  0.00  0.00    +0.000 HD
ATOM     19  O   UNK     1      72.540  58.113 100.927  0.00  0.00    +0.000 OA
ENDBRANCH  12  19
BRANCH  13  20
ATOM     20  O   UNK     1      72.651  59.741 103.178  0.00  0.00    +0.000 OA
BRANCH  20  22
ATOM     21  O   UNK     1      70.982  61.185 103.025  0.00  0.00    +0.000 OA
ATOM     22  C   UNK     1      71.912  60.781 103.700  0.00  0.00    +0.000 C 
BRANCH  22  28
ATOM     23  C   UNK     1      71.313  62.135 105.535  0.00  0.00    +0.000 A 
ATOM     24  C   UNK     1      71.579  62.703 106.723  0.00  0.00    +0.000 A 
ATOM     25  C   UNK     1      72.768  62.482 107.307  0.00  0.00    +0.000 A 
ATOM     26  C   UNK     1      73.680  61.698 106.708  0.00  0.00    +0.000 A 
ATOM     27  C   UNK     1      73.389  61.140 105.519  0.00  0.00    +0.000 A 
ATOM     28  C   UNK     1      72.205  61.346 104.912  0.00  0.00    +0.000 A 
BRANCH  26  30
ATOM     29  H   UNK     1      75.368  60.822 106.806  0.00  0.00    +0.000 HD
ATOM     30  O   UNK     1      74.878  61.486 107.318  0.00  0.00    +0.000 OA
ENDBRANCH  26  30
BRANCH  24  32
ATOM     31  H   UNK     1      71.065  63.930 108.108  0.00  0.00    +0.000 HD
ATOM     32  O   UNK     1      70.665  63.501 107.335  0.00  0.00    +0.000 OA
ENDBRANCH  24  32
BRANCH  25  34
ATOM     33  H   UNK     1      72.222  63.109 109.025  0.00  0.00    +0.000 HD
ATOM     34  O   UNK     1      73.043  63.056 108.508  0.00  0.00    +0.000 OA
ENDBRANCH  25  34
ENDBRANCH  22  28
ENDBRANCH  20  22
ENDBRANCH  13  20
ENDBRANCH   9  15
ENDBRANCH   7   9
ENDBRANCH   5   7
BRANCH   1  35
ATOM     35  C   UNK     1      76.886  64.312 107.010  0.00  0.00    +0.000 C 
BRANCH  35  36
ATOM     36  O   UNK     1      77.097  63.218 107.873  0.00  0.00    +0.000 OA
BRANCH  36  37
ATOM     37  C   UNK     1      77.832  63.374 109.027  0.00  0.00    +0.000 C 
ATOM     38  O   UNK     1      78.842  64.054 108.994  0.00  0.00    +0.000 OA
BRANCH  37  43
ATOM     39  C   UNK     1      75.718  62.524 111.839  0.00  0.00    +0.000 A 
ATOM     40  C   UNK     1      76.572  61.782 112.567  0.00  0.00    +0.000 A 
ATOM     41  C   UNK     1      77.807  61.516 112.111  0.00  0.00    +0.000 A 
ATOM     42  C   UNK     1      78.209  62.055 110.948  0.00  0.00    +0.000 A 
ATOM     43  C   UNK     1      77.399  62.836 110.210  0.00  0.00    +0.000 A 
ATOM     44  C   UNK     1      76.152  63.041 110.674  0.00  0.00    +0.000 A 
BRANCH  41  46
ATOM     45  H   UNK     1      78.308  59.750 112.665  0.00  0.00    +0.000 HD
ATOM     46  O   UNK     1      78.603  60.667 112.818  0.00  0.00    +0.000 OA
ENDBRANCH  41  46
BRANCH  40  47
ATOM     47  O   UNK     1      76.178  61.223 113.743  0.00  0.00    +0.000 OA
ATOM     48  H   UNK     1      76.848  61.450 114.411  0.00  0.00    +0.000 HD
ENDBRANCH  40  47
BRANCH  39  49
ATOM     49  O   UNK     1      74.440  62.722 112.295  0.00  0.00    +0.000 OA
BRANCH  49  50
ATOM     50  C   UNK     1      73.946  63.992 112.103  0.00  0.00    +0.000 C 
ATOM     51  O   UNK     1      73.088  64.103 111.245  0.00  0.00    +0.000 OA
BRANCH  50  54
ATOM     52  C   UNK     1      75.135  67.298 112.883  0.00  0.00    +0.000 A 
ATOM     53  C   UNK     1      74.713  66.220 112.201  0.00  0.00    +0.000 A 
ATOM     54  C   UNK     1      74.384  65.072 112.819  0.00  0.00    +0.000 A 
ATOM     55  C   UNK     1      74.498  65.032 114.160  0.00  0.00    +0.000 A 
ATOM     56  C   UNK     1      74.926  66.091 114.865  0.00  0.00    +0.000 A 
ATOM     57  C   UNK     1      75.255  67.224 114.220  0.00  0.00    +0.000 A 
BRANCH  52  58
ATOM     58  O   UNK     1      75.478  68.446 112.239  0.00  0.00    +0.000 OA
ATOM     59  H   UNK     1      75.733  68.233 111.326  0.00  0.00    +0.000 HD
ENDBRANCH  52  58
BRANCH  57  60
ATOM     60  O   UNK     1      75.673  68.310 114.923  0.00  0.00    +0.000 OA
ATOM     61  H   UNK     1      75.125  68.408 115.717  0.00  0.00    +0.000 HD
ENDBRANCH  57  60
BRANCH  56  62
ATOM     62  O   UNK     1      75.036  66.043 116.221  0.00  0.00    +0.000 OA
ATOM     63  H   UNK     1      75.932  65.746 116.448  0.00  0.00    +0.000 HD
ENDBRANCH  56  62
ENDBRANCH  50  54
ENDBRANCH  49  50
ENDBRANCH  39  49
ENDBRANCH  37  43
ENDBRANCH  36  37
ENDBRANCH  35  36
ENDBRANCH   1  35
BRANCH   4  64
ATOM     64  O   UNK     1      76.944  65.373 102.171  0.00  0.00    +0.000 OA
BRANCH  64  66
ATOM     65  O   UNK     1      77.414  67.208 101.153  0.00  0.00    +0.000 OA
ATOM     66  C   UNK     1      77.761  66.043 101.278  0.00  0.00    +0.000 C 
BRANCH  66  72
ATOM     67  C   UNK     1      78.892  65.215  99.287  0.00  0.00    +0.000 A 
ATOM     68  C   UNK     1      79.991  64.732  98.684  0.00  0.00    +0.000 A 
ATOM     69  C   UNK     1      81.138  64.646  99.377  0.00  0.00    +0.000 A 
ATOM     70  C   UNK     1      81.197  65.066 100.656  0.00  0.00    +0.000 A 
ATOM     71  C   UNK     1      80.062  65.556 101.193  0.00  0.00    +0.000 A 
ATOM     72  C   UNK     1      78.865  65.610 100.573  0.00  0.00    +0.000 A 
BRANCH  68  74
ATOM     73  H   UNK     1      80.782  63.913  97.088  0.00  0.00    +0.000 HD
ATOM     74  O   UNK     1      79.961  64.347  97.378  0.00  0.00    +0.000 OA
ENDBRANCH  68  74
BRANCH  69  76
ATOM     75  H   UNK     1      82.517  64.756  98.054  0.00  0.00    +0.000 HD
ATOM     76  O   UNK     1      82.243  64.145  98.758  0.00  0.00    +0.000 OA
ENDBRANCH  69  76
BRANCH  70  77
ATOM     77  O   UNK     1      82.384  64.945 101.345  0.00  0.00    +0.000 OA
BRANCH  77  79
ATOM     78  O   UNK     1      83.305  62.936 101.514  0.00  0.00    +0.000 OA
ATOM     79  C   UNK     1      82.622  63.787 102.058  0.00  0.00    +0.000 C 
BRANCH  79  85
ATOM     80  C   UNK     1      82.201  62.367 103.905  0.00  0.00    +0.000 A 
ATOM     81  C   UNK     1      81.664  62.130 105.112  0.00  0.00    +0.000 A 
ATOM     82  C   UNK     1      81.083  63.137 105.785  0.00  0.00    +0.000 A 
ATOM     83  C   UNK     1      81.040  64.368 105.251  0.00  0.00    +0.000 A 
ATOM     84  C   UNK     1      81.568  64.575 104.034  0.00  0.00    +0.000 A 
ATOM     85  C   UNK     1      82.146  63.584 103.329  0.00  0.00    +0.000 A 
BRANCH  83  87
ATOM     86  H   UNK     1      80.662  65.277 106.882  0.00  0.00    +0.000 HD
ATOM     87  O   UNK     1      80.430  65.369 105.943  0.00  0.00    +0.000 OA
ENDBRANCH  83  87
BRANCH  81  89
ATOM     88  H   UNK     1      81.608  60.938 106.619  0.00  0.00    +0.000 HD
ATOM     89  O   UNK     1      81.670  60.884 105.652  0.00  0.00    +0.000 OA
ENDBRANCH  81  89
BRANCH  82  91
ATOM     90  H   UNK     1      80.757  63.592 107.609  0.00  0.00    +0.000 HD
ATOM     91  O   UNK     1      80.501  62.890 106.988  0.00  0.00    +0.000 OA
ENDBRANCH  82  91
ENDBRANCH  79  85
ENDBRANCH  77  79
ENDBRANCH  70  77
ENDBRANCH  66  72
ENDBRANCH  64  66
ENDBRANCH   4  64
BRANCH   3  92
ATOM     92  O   UNK     1      77.545  66.260 104.933  0.00  0.00    +0.000 OA
BRANCH  92  94
ATOM     93  O   UNK     1      75.682  67.485 104.804  0.00  0.00    +0.000 OA
ATOM     94  C   UNK     1      76.700  67.234 105.421  0.00  0.00    +0.000 C 
BRANCH  94 100
ATOM     95  C   UNK     1      78.088  68.564 106.852  0.00  0.00    +0.000 A 
ATOM     96  C   UNK     1      78.252  69.215 108.018  0.00  0.00    +0.000 A 
ATOM     97  C   UNK     1      77.259  69.229 108.930  0.00  0.00    +0.000 A 
ATOM     98  C   UNK     1      76.108  68.564 108.706  0.00  0.00    +0.000 A 
ATOM     99  C   UNK     1      76.031  67.856 107.566  0.00  0.00    +0.000 A 
ATOM    100  C   UNK     1      76.969  67.863 106.607  0.00  0.00    +0.000 A 
BRANCH  96 102
ATOM    101  H   UNK     1      79.801  69.665 109.082  0.00  0.00    +0.000 HD
ATOM    102  O   UNK     1      79.385  69.931 108.246  0.00  0.00    +0.000 OA
ENDBRANCH  96 102
BRANCH  97 104
ATOM    103  H   UNK     1      77.618  70.881 109.824  0.00  0.00    +0.000 HD
ATOM    104  O   UNK     1      77.423  69.960 110.066  0.00  0.00    +0.000 OA
ENDBRANCH  97 104
BRANCH  98 105
ATOM    105  O   UNK     1      75.040  68.618 109.580  0.00  0.00    +0.000 OA
BRANCH 105 107
ATOM    106  O   UNK     1      74.025  70.347 108.608  0.00  0.00    +0.000 OA
ATOM    107  C   UNK     1      73.920  69.196 108.997  0.00  0.00    +0.000 C 
BRANCH 107 113
ATOM    108  C   UNK     1      72.609  67.250 109.262  0.00  0.00    +0.000 A 
ATOM    109  C   UNK     1      71.528  66.503 108.978  0.00  0.00    +0.000 A 
ATOM    110  C   UNK     1      70.597  66.986 108.140  0.00  0.00    +0.000 A 
ATOM    111  C   UNK     1      70.730  68.218 107.619  0.00  0.00    +0.000 A 
ATOM    112  C   UNK     1      71.809  68.954 107.938  0.00  0.00    +0.000 A 
ATOM    113  C   UNK     1      72.773  68.484 108.752  0.00  0.00    +0.000 A 
BRANCH 111 115
ATOM    114  H   UNK     1      68.916  68.405 107.042  0.00  0.00    +0.000 HD
ATOM    115  O   UNK     1      69.801  68.662 106.727  0.00  0.00    +0.000 OA
ENDBRANCH 111 115
BRANCH 109 117
ATOM    116  H   UNK     1      70.781  65.281 110.259  0.00  0.00    +0.000 HD
ATOM    117  O   UNK     1      71.384  65.255 109.500  0.00  0.00    +0.000 OA
ENDBRANCH 109 117
BRANCH 110 119
ATOM    118  H   UNK     1      69.699  65.304 108.084  0.00  0.00    +0.000 HD
ATOM    119  O   UNK     1      69.519  66.221 107.822  0.00  0.00    +0.000 OA
ENDBRANCH 110 119
ENDBRANCH 107 113
ENDBRANCH 105 107
ENDBRANCH  98 105
ENDBRANCH  94 100
ENDBRANCH  92  94
ENDBRANCH   3  92
BRANCH   6 120
ATOM    120  O   UNK     1      76.712  60.938 103.913  0.00  0.00    +0.000 OA
BRANCH 120 122
ATOM    121  O   UNK     1      78.703  59.922 103.842  0.00  0.00    +0.000 OA
ATOM    122  C   UNK     1      77.506  59.851 103.642  0.00  0.00    +0.000 C 
BRANCH 122 128
ATOM    123  C   UNK     1      77.037  58.477 101.740  0.00  0.00    +0.000 A 
ATOM    124  C   UNK     1      76.370  57.432 101.223  0.00  0.00    +0.000 A 
ATOM    125  C   UNK     1      75.556  56.689 102.000  0.00  0.00    +0.000 A 
ATOM    126  C   UNK     1      75.492  56.897 103.329  0.00  0.00    +0.000 A 
ATOM    127  C   UNK     1      76.200  57.934 103.802  0.00  0.00    +0.000 A 
ATOM    128  C   UNK     1      76.935  58.761 103.047  0.00  0.00    +0.000 A 
BRANCH 124 130
ATOM    129  H   UNK     1      75.563  56.811  99.588  0.00  0.00    +0.000 HD
ATOM    130  O   UNK     1      76.411  57.186  99.886  0.00  0.00    +0.000 OA
ENDBRANCH 124 130
BRANCH 125 132
ATOM    131  H   UNK     1      74.745  55.905 100.456  0.00  0.00    +0.000 HD
ATOM    132  O   UNK     1      74.801  55.727 101.409  0.00  0.00    +0.000 OA
ENDBRANCH 125 132
BRANCH 126 133
ATOM    133  O   UNK     1      74.711  56.144 104.178  0.00  0.00    +0.000 OA
BRANCH 133 135
ATOM    134  O   UNK     1      72.635  56.484 103.492  0.00  0.00    +0.000 OA
ATOM    135  C   UNK     1      73.446  56.675 104.382  0.00  0.00    +0.000 C 
BRANCH 135 141
ATOM    136  C   UNK     1      73.962  57.688 106.475  0.00  0.00    +0.000 A 
ATOM    137  C   UNK     1      73.586  58.250 107.638  0.00  0.00    +0.000 A 
ATOM    138  C   UNK     1      72.288  58.516 107.850  0.00  0.00    +0.000 A 
ATOM    139  C   UNK     1      71.380  58.242 106.899  0.00  0.00    +0.000 A 
ATOM    140  C   UNK     1      71.781  57.651 105.760  0.00  0.00    +0.000 A 
ATOM    141  C   UNK     1      73.071  57.339 105.525  0.00  0.00    +0.000 A 
BRANCH 139 143
ATOM    142  H   UNK     1      69.545  57.737 106.965  0.00  0.00    +0.000 HD
ATOM    143  O   UNK     1      70.072  58.537 107.126  0.00  0.00    +0.000 OA
ENDBRANCH 139 143
BRANCH 137 145
ATOM    144  H   UNK     1      74.583  59.513 108.686  0.00  0.00    +0.000 HD
ATOM    145  O   UNK     1      74.489  58.551 108.610  0.00  0.00    +0.000 OA
ENDBRANCH 137 145
BRANCH 138 147
ATOM    146  H   UNK     1      71.286  59.822 108.804  0.00  0.00    +0.000 HD
ATOM    147  O   UNK     1      71.910  59.108 109.012  0.00  0.00    +0.000 OA
ENDBRANCH 138 147
ENDBRANCH 135 141
ENDBRANCH 133 135
ENDBRANCH 126 133
ENDBRANCH 122 128
ENDBRANCH 120 122
ENDBRANCH   6 120
TORSDOF 56
ENDMDL
MODEL 9
REMARK VINA RESULT:      -8.2      3.941     12.661
REMARK  Name = ./3951.pdb
REMARK  56 active torsions:
REMARK  status: ('A' for Active; 'I' for Inactive)
REMARK    1  A    between atoms: O_1  and  C_2
REMARK    2  A    between atoms: C_4  and  C_10
REMARK    3  A    between atoms: C_6  and  O_9
REMARK    4  A    between atoms: C_7  and  O_8
REMARK    5  A    between atoms: C_10  and  O_12
REMARK    6  A    between atoms: O_12  and  C_13
REMARK    7  A    between atoms: C_14  and  O_15
REMARK    8  A    between atoms: C_16  and  O_78
REMARK    9  A    between atoms: C_18  and  C_20
REMARK   10  A    between atoms: C_20  and  O_22
REMARK   11  A    between atoms: O_22  and  C_23
REMARK   12  A    between atoms: C_23  and  C_24
REMARK   13  A    between atoms: O_79  and  C_85
REMARK   14  A    between atoms: O_80  and  C_82
REMARK   15  A    between atoms: O_83  and  C_84
REMARK   16  A    between atoms: C_87  and  C_89
REMARK   17  A    between atoms: C_89  and  O_90
REMARK   18  A    between atoms: O_90  and  C_96
REMARK   19  A    between atoms: O_91  and  C_93
REMARK   20  A    between atoms: O_94  and  C_95
REMARK   21  A    between atoms: C_98  and  C_100
REMARK   22  A    between atoms: C_100  and  O_101
REMARK   23  A    between atoms: O_101  and  C_102
REMARK   24  A    between atoms: O_103  and  C_109
REMARK   25  A    between atoms: O_104  and  C_106
REMARK   26  A    between atoms: O_107  and  C_108
REMARK   27  A    between atoms: C_111  and  C_113
REMARK   28  A    between atoms: C_113  and  O_114
REMARK   29  A    between atoms: O_114  and  C_120
REMARK   30  A    between atoms: O_115  and  C_117
REMARK   31  A    between atoms: O_118  and  C_119
REMARK   32  A    between atoms: C_122  and  C_124
REMARK   33  A    between atoms: C_124  and  O_125
REMARK   34  A    between atoms: O_125  and  C_126
REMARK   35  A    between atoms: O_127  and  C_133
REMARK   36  A    between atoms: O_128  and  C_130
REMARK   37  A    between atoms: O_131  and  C_132
REMARK   38  A    between atoms: C_135  and  C_137
REMARK   39  A    between atoms: C_137  and  O_138
REMARK   40  A    between atoms: O_138  and  C_144
REMARK   41  A    between atoms: O_139  and  C_141
REMARK   42  A    between atoms: O_142  and  C_143
REMARK   43  A    between atoms: C_146  and  C_148
REMARK   44  A    between atoms: C_148  and  O_149
REMARK   45  A    between atoms: O_149  and  C_150
REMARK   46  A    between atoms: O_151  and  C_157
REMARK   47  A    between atoms: O_152  and  C_154
REMARK   48  A    between atoms: O_155  and  C_156
REMARK   49  A    between atoms: C_159  and  C_161
REMARK   50  A    between atoms: C_161  and  O_162
REMARK   51  A    between atoms: O_162  and  C_168
REMARK   52  A    between atoms: O_163  and  C_165
REMARK   53  A    between atoms: O_166  and  C_167
REMARK   54  A    between atoms: C_170  and  C_172
REMARK   55  A    between atoms: C_172  and  O_173
REMARK   56  A    between atoms: O_173  and  C_174
REMARK                            x       y       z     vdW  Elec       q    Type
REMARK                         _______ _______ _______ _____ _____    ______ ____
ROOT
ATOM      1  C   UNK     1      77.901  62.680 110.447  0.00  0.00    +0.000 C 
ATOM      2  O   UNK     1      77.936  62.448 111.827  0.00  0.00    +0.000 OA
ATOM      3  C   UNK     1      76.655  63.489 110.063  0.00  0.00    +0.000 C 
ATOM      4  C   UNK     1      75.392  62.839 110.643  0.00  0.00    +0.000 C 
ATOM      5  C   UNK     1      75.587  62.764 112.159  0.00  0.00    +0.000 C 
ATOM      6  C   UNK     1      76.776  61.862 112.355  0.00  0.00    +0.000 C 
ENDROOT
BRANCH   5   7
ATOM      7  O   UNK     1      74.416  62.293 112.764  0.00  0.00    +0.000 OA
BRANCH   7   9
ATOM      8  O   UNK     1      73.731  64.272 113.468  0.00  0.00    +0.000 OA
ATOM      9  C   UNK     1      73.840  63.087 113.731  0.00  0.00    +0.000 C 
BRANCH   9  15
ATOM     10  C   UNK     1      72.288  62.920 115.511  0.00  0.00    +0.000 A 
ATOM     11  C   UNK     1      71.921  62.462 116.717  0.00  0.00    +0.000 A 
ATOM     12  C   UNK     1      72.757  61.663 117.403  0.00  0.00    +0.000 A 
ATOM     13  C   UNK     1      73.954  61.319 116.883  0.00  0.00    +0.000 A 
ATOM     14  C   UNK     1      74.279  61.788 115.664  0.00  0.00    +0.000 A 
ATOM     15  C   UNK     1      73.470  62.598 114.956  0.00  0.00    +0.000 A 
BRANCH  11  17
ATOM     16  H   UNK     1      70.016  62.785 116.607  0.00  0.00    +0.000 HD
ATOM     17  O   UNK     1      70.727  62.819 117.266  0.00  0.00    +0.000 OA
ENDBRANCH  11  17
BRANCH  12  19
ATOM     18  H   UNK     1      72.249  60.251 118.600  0.00  0.00    +0.000 HD
ATOM     19  O   UNK     1      72.367  61.215 118.627  0.00  0.00    +0.000 OA
ENDBRANCH  12  19
BRANCH  13  20
ATOM     20  O   UNK     1      74.834  60.509 117.556  0.00  0.00    +0.000 OA
BRANCH  20  22
ATOM     21  O   UNK     1      73.946  58.634 116.787  0.00  0.00    +0.000 OA
ATOM     22  C   UNK     1      74.972  59.227 117.069  0.00  0.00    +0.000 C 
BRANCH  22  28
ATOM     23  C   UNK     1      77.048  58.536 117.951  0.00  0.00    +0.000 A 
ATOM     24  C   UNK     1      78.256  57.962 117.823  0.00  0.00    +0.000 A 
ATOM     25  C   UNK     1      78.630  57.475 116.629  0.00  0.00    +0.000 A 
ATOM     26  C   UNK     1      77.801  57.561 115.574  0.00  0.00    +0.000 A 
ATOM     27  C   UNK     1      76.597  58.139 115.729  0.00  0.00    +0.000 A 
ATOM     28  C   UNK     1      76.197  58.635 116.914  0.00  0.00    +0.000 A 
BRANCH  26  30
ATOM     29  H   UNK     1      79.076  56.655 114.488  0.00  0.00    +0.000 HD
ATOM     30  O   UNK     1      78.201  57.060 114.373  0.00  0.00    +0.000 OA
ENDBRANCH  26  30
BRANCH  24  32
ATOM     31  H   UNK     1      79.960  58.268 118.654  0.00  0.00    +0.000 HD
ATOM     32  O   UNK     1      79.102  57.875 118.883  0.00  0.00    +0.000 OA
ENDBRANCH  24  32
BRANCH  25  34
ATOM     33  H   UNK     1      79.973  56.250 117.209  0.00  0.00    +0.000 HD
ATOM     34  O   UNK     1      79.852  56.896 116.494  0.00  0.00    +0.000 OA
ENDBRANCH  25  34
ENDBRANCH  22  28
ENDBRANCH  20  22
ENDBRANCH  13  20
ENDBRANCH   9  15
ENDBRANCH   7   9
ENDBRANCH   5   7
BRANCH   1  35
ATOM     35  C   UNK     1      79.193  63.431 110.109  0.00  0.00    +0.000 C 
BRANCH  35  36
ATOM     36  O   UNK     1      79.659  62.990 108.855  0.00  0.00    +0.000 OA
BRANCH  36  37
ATOM     37  C   UNK     1      79.795  63.879 107.812  0.00  0.00    +0.000 C 
ATOM     38  O   UNK     1      79.957  65.059 108.062  0.00  0.00    +0.000 OA
BRANCH  37  43
ATOM     39  C   UNK     1      81.007  62.697 104.613  0.00  0.00    +0.000 A 
ATOM     40  C   UNK     1      79.847  62.589 103.940  0.00  0.00    +0.000 A 
ATOM     41  C   UNK     1      78.677  62.846 104.549  0.00  0.00    +0.000 A 
ATOM     42  C   UNK     1      78.678  63.278 105.821  0.00  0.00    +0.000 A 
ATOM     43  C   UNK     1      79.819  63.437 106.515  0.00  0.00    +0.000 A 
ATOM     44  C   UNK     1      80.969  63.124 105.890  0.00  0.00    +0.000 A 
BRANCH  41  46
ATOM     45  H   UNK     1      77.119  61.784 104.196  0.00  0.00    +0.000 HD
ATOM     46  O   UNK     1      77.517  62.614 103.874  0.00  0.00    +0.000 OA
ENDBRANCH  41  46
BRANCH  40  47
ATOM     47  O   UNK     1      79.827  62.146 102.655  0.00  0.00    +0.000 OA
ATOM     48  H   UNK     1      78.911  62.218 102.336  0.00  0.00    +0.000 HD
ENDBRANCH  40  47
BRANCH  39  49
ATOM     49  O   UNK     1      82.180  62.362 103.989  0.00  0.00    +0.000 OA
BRANCH  49  50
ATOM     50  C   UNK     1      82.824  61.264 104.515  0.00  0.00    +0.000 C 
ATOM     51  O   UNK     1      82.549  60.193 104.004  0.00  0.00    +0.000 OA
BRANCH  50  54
ATOM     52  C   UNK     1      85.500  62.468 106.599  0.00  0.00    +0.000 A 
ATOM     53  C   UNK     1      84.620  62.350 105.590  0.00  0.00    +0.000 A 
ATOM     54  C   UNK     1      83.716  61.355 105.548  0.00  0.00    +0.000 A 
ATOM     55  C   UNK     1      83.722  60.465 106.558  0.00  0.00    +0.000 A 
ATOM     56  C   UNK     1      84.596  60.555 107.574  0.00  0.00    +0.000 A 
ATOM     57  C   UNK     1      85.493  61.556 107.585  0.00  0.00    +0.000 A 
BRANCH  52  58
ATOM     58  O   UNK     1      86.417  63.473 106.617  0.00  0.00    +0.000 OA
ATOM     59  H   UNK     1      86.364  63.965 105.781  0.00  0.00    +0.000 HD
ENDBRANCH  52  58
BRANCH  57  60
ATOM     60  O   UNK     1      86.372  61.669 108.617  0.00  0.00    +0.000 OA
ATOM     61  H   UNK     1      86.689  62.584 108.669  0.00  0.00    +0.000 HD
ENDBRANCH  57  60
BRANCH  56  62
ATOM     62  O   UNK     1      84.593  59.653 108.593  0.00  0.00    +0.000 OA
ATOM     63  H   UNK     1      84.424  60.126 109.424  0.00  0.00    +0.000 HD
ENDBRANCH  56  62
ENDBRANCH  50  54
ENDBRANCH  49  50
ENDBRANCH  39  49
ENDBRANCH  37  43
ENDBRANCH  36  37
ENDBRANCH  35  36
ENDBRANCH   1  35
BRANCH   4  64
ATOM     64  O   UNK     1      74.248  63.582 110.388  0.00  0.00    +0.000 OA
BRANCH  64  66
ATOM     65  O   UNK     1      73.287  62.146 109.108  0.00  0.00    +0.000 OA
ATOM     66  C   UNK     1      73.324  63.334 109.390  0.00  0.00    +0.000 C 
BRANCH  66  72
ATOM     67  C   UNK     1      71.600  63.861 107.751  0.00  0.00    +0.000 A 
ATOM     68  C   UNK     1      70.849  64.761 107.096  0.00  0.00    +0.000 A 
ATOM     69  C   UNK     1      70.938  66.060 107.426  0.00  0.00    +0.000 A 
ATOM     70  C   UNK     1      71.751  66.457 108.424  0.00  0.00    +0.000 A 
ATOM     71  C   UNK     1      72.464  65.500 109.052  0.00  0.00    +0.000 A 
ATOM     72  C   UNK     1      72.467  64.190 108.728  0.00  0.00    +0.000 A 
BRANCH  68  74
ATOM     73  H   UNK     1      69.782  65.081 105.482  0.00  0.00    +0.000 HD
ATOM     74  O   UNK     1      69.986  64.371 106.116  0.00  0.00    +0.000 OA
ENDBRANCH  68  74
BRANCH  69  76
ATOM     75  H   UNK     1      70.452  66.969 105.814  0.00  0.00    +0.000 HD
ATOM     76  O   UNK     1      70.179  66.963 106.746  0.00  0.00    +0.000 OA
ENDBRANCH  69  76
BRANCH  70  77
ATOM     77  O   UNK     1      71.836  67.798 108.725  0.00  0.00    +0.000 OA
BRANCH  77  79
ATOM     78  O   UNK     1      72.570  68.973 106.994  0.00  0.00    +0.000 OA
ATOM     79  C   UNK     1      72.816  68.555 108.112  0.00  0.00    +0.000 C 
BRANCH  79  85
ATOM     80  C   UNK     1      75.006  69.449 108.031  0.00  0.00    +0.000 A 
ATOM     81  C   UNK     1      76.208  69.675 108.582  0.00  0.00    +0.000 A 
ATOM     82  C   UNK     1      76.421  69.335 109.864  0.00  0.00    +0.000 A 
ATOM     83  C   UNK     1      75.438  68.773 110.584  0.00  0.00    +0.000 A 
ATOM     84  C   UNK     1      74.249  68.540 110.004  0.00  0.00    +0.000 A 
ATOM     85  C   UNK     1      74.009  68.857 108.717  0.00  0.00    +0.000 A 
BRANCH  83  87
ATOM     86  H   UNK     1      75.240  69.060 112.457  0.00  0.00    +0.000 HD
ATOM     87  O   UNK     1      75.682  68.419 111.875  0.00  0.00    +0.000 OA
ENDBRANCH  83  87
BRANCH  81  89
ATOM     88  H   UNK     1      76.873  70.823 107.191  0.00  0.00    +0.000 HD
ATOM     89  O   UNK     1      77.224  70.213 107.858  0.00  0.00    +0.000 OA
ENDBRANCH  81  89
BRANCH  82  91
ATOM     90  H   UNK     1      78.321  69.158 109.807  0.00  0.00    +0.000 HD
ATOM     91  O   UNK     1      77.651  69.524 110.410  0.00  0.00    +0.000 OA
ENDBRANCH  82  91
ENDBRANCH  79  85
ENDBRANCH  77  79
ENDBRANCH  70  77
ENDBRANCH  66  72
ENDBRANCH  64  66
ENDBRANCH   4  64
BRANCH   3  92
ATOM     92  O   UNK     1      76.662  63.738 108.678  0.00  0.00    +0.000 OA
BRANCH  92  94
ATOM     93  O   UNK     1      76.834  65.963 108.773  0.00  0.00    +0.000 OA
ATOM     94  C   UNK     1      76.362  64.998 108.203  0.00  0.00    +0.000 C 
BRANCH  94 100
ATOM     95  C   UNK     1      75.266  66.348 106.555  0.00  0.00    +0.000 A 
ATOM     96  C   UNK     1      74.570  66.426 105.406  0.00  0.00    +0.000 A 
ATOM     97  C   UNK     1      74.258  65.303 104.727  0.00  0.00    +0.000 A 
ATOM     98  C   UNK     1      74.603  64.091 105.204  0.00  0.00    +0.000 A 
ATOM     99  C   UNK     1      75.217  64.064 106.400  0.00  0.00    +0.000 A 
ATOM    100  C   UNK     1      75.597  65.157 107.078  0.00  0.00    +0.000 A 
BRANCH  96 102
ATOM    101  H   UNK     1      73.910  68.235 105.568  0.00  0.00    +0.000 HD
ATOM    102  O   UNK     1      74.252  67.640 104.882  0.00  0.00    +0.000 OA
ENDBRANCH  96 102
BRANCH  97 104
ATOM    103  H   UNK     1      72.783  64.931 103.569  0.00  0.00    +0.000 HD
ATOM    104  O   UNK     1      73.623  65.418 103.529  0.00  0.00    +0.000 OA
ENDBRANCH  97 104
BRANCH  98 105
ATOM    105  O   UNK     1      74.371  62.925 104.501  0.00  0.00    +0.000 OA
BRANCH 105 107
ATOM    106  O   UNK     1      72.151  63.005 104.325  0.00  0.00    +0.000 OA
ATOM    107  C   UNK     1      73.113  62.400 104.766  0.00  0.00    +0.000 C 
BRANCH 107 113
ATOM    108  C   UNK     1      71.731  60.610 105.447  0.00  0.00    +0.000 A 
ATOM    109  C   UNK     1      71.522  59.466 106.120  0.00  0.00    +0.000 A 
ATOM    110  C   UNK     1      72.542  58.898 106.785  0.00  0.00    +0.000 A 
ATOM    111  C   UNK     1      73.765  59.453 106.748  0.00  0.00    +0.000 A 
ATOM    112  C   UNK     1      73.952  60.586 106.048  0.00  0.00    +0.000 A 
ATOM    113  C   UNK     1      72.942  61.193 105.396  0.00  0.00    +0.000 A 
BRANCH 111 115
ATOM    114  H   UNK     1      75.302  58.325 106.891  0.00  0.00    +0.000 HD
ATOM    115  O   UNK     1      74.768  58.890 107.477  0.00  0.00    +0.000 OA
ENDBRANCH 111 115
BRANCH 109 117
ATOM    116  H   UNK     1      70.105  58.437 105.328  0.00  0.00    +0.000 HD
ATOM    117  O   UNK     1      70.288  58.896 106.163  0.00  0.00    +0.000 OA
ENDBRANCH 109 117
BRANCH 110 119
ATOM    118  H   UNK     1      72.603  57.907 108.414  0.00  0.00    +0.000 HD
ATOM    119  O   UNK     1      72.327  57.759 107.495  0.00  0.00    +0.000 OA
ENDBRANCH 110 119
ENDBRANCH 107 113
ENDBRANCH 105 107
ENDBRANCH  98 105
ENDBRANCH  94 100
ENDBRANCH  92  94
ENDBRANCH   3  92
BRANCH   6 120
ATOM    120  O   UNK     1      77.034  61.587 113.707  0.00  0.00    +0.000 OA
BRANCH 120 122
ATOM    121  O   UNK     1      78.719  60.127 113.532  0.00  0.00    +0.000 OA
ATOM    122  C   UNK     1      78.210  61.038 114.155  0.00  0.00    +0.000 C 
BRANCH 122 128
ATOM    123  C   UNK     1      79.572  60.758 116.102  0.00  0.00    +0.000 A 
ATOM    124  C   UNK     1      79.945  61.213 117.311  0.00  0.00    +0.000 A 
ATOM    125  C   UNK     1      79.420  62.353 117.802  0.00  0.00    +0.000 A 
ATOM    126  C   UNK     1      78.614  63.125 117.047  0.00  0.00    +0.000 A 
ATOM    127  C   UNK     1      78.296  62.642 115.836  0.00  0.00    +0.000 A 
ATOM    128  C   UNK     1      78.710  61.463 115.354  0.00  0.00    +0.000 A 
BRANCH 124 130
ATOM    129  H   UNK     1      80.307  60.247 118.937  0.00  0.00    +0.000 HD
ATOM    130  O   UNK     1      80.760  60.466 118.103  0.00  0.00    +0.000 OA
ENDBRANCH 124 130
BRANCH 125 132
ATOM    131  H   UNK     1      80.688  62.705 119.190  0.00  0.00    +0.000 HD
ATOM    132  O   UNK     1      79.723  62.705 119.079  0.00  0.00    +0.000 OA
ENDBRANCH 125 132
BRANCH 126 133
ATOM    133  O   UNK     1      78.082  64.318 117.482  0.00  0.00    +0.000 OA
BRANCH 133 135
ATOM    134  O   UNK     1      76.487  63.478 118.763  0.00  0.00    +0.000 OA
ATOM    135  C   UNK     1      76.746  64.231 117.840  0.00  0.00    +0.000 C 
BRANCH 135 141
ATOM    136  C   UNK     1      75.974  65.752 116.178  0.00  0.00    +0.000 A 
ATOM    137  C   UNK     1      75.022  66.550 115.659  0.00  0.00    +0.000 A 
ATOM    138  C   UNK     1      73.792  66.538 116.194  0.00  0.00    +0.000 A 
ATOM    139  C   UNK     1      73.512  65.721 117.222  0.00  0.00    +0.000 A 
ATOM    140  C   UNK     1      74.491  64.959 117.740  0.00  0.00    +0.000 A 
ATOM    141  C   UNK     1      75.747  64.968 117.251  0.00  0.00    +0.000 A 
BRANCH 139 143
ATOM    142  H   UNK     1      72.007  66.622 117.963  0.00  0.00    +0.000 HD
ATOM    143  O   UNK     1      72.253  65.710 117.737  0.00  0.00    +0.000 OA
ENDBRANCH 139 143
BRANCH 137 145
ATOM    144  H   UNK     1      74.702  68.154 114.651  0.00  0.00    +0.000 HD
ATOM    145  O   UNK     1      75.277  67.374 114.608  0.00  0.00    +0.000 OA
ENDBRANCH 137 145
BRANCH 138 147
ATOM    146  H   UNK     1      73.004  68.244 115.898  0.00  0.00    +0.000 HD
ATOM    147  O   UNK     1      72.823  67.322 115.654  0.00  0.00    +0.000 OA
ENDBRANCH 138 147
ENDBRANCH 135 141
ENDBRANCH 133 135
ENDBRANCH 126 133
ENDBRANCH 122 128
ENDBRANCH 120 122
ENDBRANCH   6 120
TORSDOF 56
ENDMDL
MODEL 10
REMARK VINA RESULT:      -8.2      2.982      8.952
REMARK  Name = ./3951.pdb
REMARK  56 active torsions:
REMARK  status: ('A' for Active; 'I' for Inactive)
REMARK    1  A    between atoms: O_1  and  C_2
REMARK    2  A    between atoms: C_4  and  C_10
REMARK    3  A    between atoms: C_6  and  O_9
REMARK    4  A    between atoms: C_7  and  O_8
REMARK    5  A    between atoms: C_10  and  O_12
REMARK    6  A    between atoms: O_12  and  C_13
REMARK    7  A    between atoms: C_14  and  O_15
REMARK    8  A    between atoms: C_16  and  O_78
REMARK    9  A    between atoms: C_18  and  C_20
REMARK   10  A    between atoms: C_20  and  O_22
REMARK   11  A    between atoms: O_22  and  C_23
REMARK   12  A    between atoms: C_23  and  C_24
REMARK   13  A    between atoms: O_79  and  C_85
REMARK   14  A    between atoms: O_80  and  C_82
REMARK   15  A    between atoms: O_83  and  C_84
REMARK   16  A    between atoms: C_87  and  C_89
REMARK   17  A    between atoms: C_89  and  O_90
REMARK   18  A    between atoms: O_90  and  C_96
REMARK   19  A    between atoms: O_91  and  C_93
REMARK   20  A    between atoms: O_94  and  C_95
REMARK   21  A    between atoms: C_98  and  C_100
REMARK   22  A    between atoms: C_100  and  O_101
REMARK   23  A    between atoms: O_101  and  C_102
REMARK   24  A    between atoms: O_103  and  C_109
REMARK   25  A    between atoms: O_104  and  C_106
REMARK   26  A    between atoms: O_107  and  C_108
REMARK   27  A    between atoms: C_111  and  C_113
REMARK   28  A    between atoms: C_113  and  O_114
REMARK   29  A    between atoms: O_114  and  C_120
REMARK   30  A    between atoms: O_115  and  C_117
REMARK   31  A    between atoms: O_118  and  C_119
REMARK   32  A    between atoms: C_122  and  C_124
REMARK   33  A    between atoms: C_124  and  O_125
REMARK   34  A    between atoms: O_125  and  C_126
REMARK   35  A    between atoms: O_127  and  C_133
REMARK   36  A    between atoms: O_128  and  C_130
REMARK   37  A    between atoms: O_131  and  C_132
REMARK   38  A    between atoms: C_135  and  C_137
REMARK   39  A    between atoms: C_137  and  O_138
REMARK   40  A    between atoms: O_138  and  C_144
REMARK   41  A    between atoms: O_139  and  C_141
REMARK   42  A    between atoms: O_142  and  C_143
REMARK   43  A    between atoms: C_146  and  C_148
REMARK   44  A    between atoms: C_148  and  O_149
REMARK   45  A    between atoms: O_149  and  C_150
REMARK   46  A    between atoms: O_151  and  C_157
REMARK   47  A    between atoms: O_152  and  C_154
REMARK   48  A    between atoms: O_155  and  C_156
REMARK   49  A    between atoms: C_159  and  C_161
REMARK   50  A    between atoms: C_161  and  O_162
REMARK   51  A    between atoms: O_162  and  C_168
REMARK   52  A    between atoms: O_163  and  C_165
REMARK   53  A    between atoms: O_166  and  C_167
REMARK   54  A    between atoms: C_170  and  C_172
REMARK   55  A    between atoms: C_172  and  O_173
REMARK   56  A    between atoms: O_173  and  C_174
REMARK                            x       y       z     vdW  Elec       q    Type
REMARK                         _______ _______ _______ _____ _____    ______ ____
ROOT
ATOM      1  C   UNK     1      76.465  65.031 101.613  0.00  0.00    +0.000 C 
ATOM      2  O   UNK     1      75.414  65.836 102.068  0.00  0.00    +0.000 OA
ATOM      3  C   UNK     1      76.822  63.962 102.654  0.00  0.00    +0.000 C 
ATOM      4  C   UNK     1      77.048  64.604 104.028  0.00  0.00    +0.000 C 
ATOM      5  C   UNK     1      75.762  65.353 104.386  0.00  0.00    +0.000 C 
ATOM      6  C   UNK     1      75.621  66.414 103.329  0.00  0.00    +0.000 C 
ENDROOT
BRANCH   5   7
ATOM      7  O   UNK     1      75.855  65.860 105.687  0.00  0.00    +0.000 OA
BRANCH   7   9
ATOM      8  O   UNK     1      73.969  64.811 106.158  0.00  0.00    +0.000 OA
ATOM      9  C   UNK     1      74.801  65.615 106.540  0.00  0.00    +0.000 C 
BRANCH   9  15
ATOM     10  C   UNK     1      74.681  65.639 108.904  0.00  0.00    +0.000 A 
ATOM     11  C   UNK     1      74.514  66.280 110.071  0.00  0.00    +0.000 A 
ATOM     12  C   UNK     1      74.296  67.607 110.070  0.00  0.00    +0.000 A 
ATOM     13  C   UNK     1      74.252  68.293 108.908  0.00  0.00    +0.000 A 
ATOM     14  C   UNK     1      74.438  67.614 107.760  0.00  0.00    +0.000 A 
ATOM     15  C   UNK     1      74.647  66.285 107.725  0.00  0.00    +0.000 A 
BRANCH  11  17
ATOM     16  H   UNK     1      73.773  65.000 111.319  0.00  0.00    +0.000 HD
ATOM     17  O   UNK     1      74.532  65.600 111.250  0.00  0.00    +0.000 OA
ENDBRANCH  11  17
BRANCH  12  19
ATOM     18  H   UNK     1      73.348  67.870 111.718  0.00  0.00    +0.000 HD
ATOM     19  O   UNK     1      74.124  68.236 111.264  0.00  0.00    +0.000 OA
ENDBRANCH  12  19
BRANCH  13  20
ATOM     20  O   UNK     1      74.028  69.646 108.869  0.00  0.00    +0.000 OA
BRANCH  20  22
ATOM     21  O   UNK     1      74.742  71.171 110.303  0.00  0.00    +0.000 OA
ATOM     22  C   UNK     1      75.035  70.441 109.374  0.00  0.00    +0.000 C 
BRANCH  22  28
ATOM     23  C   UNK     1      77.374  70.373 109.668  0.00  0.00    +0.000 A 
ATOM     24  C   UNK     1      78.627  70.361 109.184  0.00  0.00    +0.000 A 
ATOM     25  C   UNK     1      78.821  70.405 107.856  0.00  0.00    +0.000 A 
ATOM     26  C   UNK     1      77.769  70.459 107.021  0.00  0.00    +0.000 A 
ATOM     27  C   UNK     1      76.525  70.469 107.530  0.00  0.00    +0.000 A 
ATOM     28  C   UNK     1      76.302  70.426 108.857  0.00  0.00    +0.000 A 
BRANCH  26  30
ATOM     29  H   UNK     1      77.200  70.156 105.230  0.00  0.00    +0.000 HD
ATOM     30  O   UNK     1      77.989  70.502 105.678  0.00  0.00    +0.000 OA
ENDBRANCH  26  30
BRANCH  24  32
ATOM     31  H   UNK     1      79.589  70.958 110.735  0.00  0.00    +0.000 HD
ATOM     32  O   UNK     1      79.697  70.311 110.021  0.00  0.00    +0.000 OA
ENDBRANCH  24  32
BRANCH  25  34
ATOM     33  H   UNK     1      80.045  70.322 106.394  0.00  0.00    +0.000 HD
ATOM     34  O   UNK     1      80.087  70.395 107.362  0.00  0.00    +0.000 OA
ENDBRANCH  25  34
ENDBRANCH  22  28
ENDBRANCH  20  22
ENDBRANCH  13  20
ENDBRANCH   9  15
ENDBRANCH   7   9
ENDBRANCH   5   7
BRANCH   1  35
ATOM     35  C   UNK     1      75.983  64.406 100.300  0.00  0.00    +0.000 C 
BRANCH  35  36
ATOM     36  O   UNK     1      75.772  65.433  99.359  0.00  0.00    +0.000 OA
BRANCH  36  37
ATOM     37  C   UNK     1      76.801  65.851  98.544  0.00  0.00    +0.000 C 
ATOM     38  O   UNK     1      77.915  65.394  98.721  0.00  0.00    +0.000 OA
BRANCH  37  43
ATOM     39  C   UNK     1      75.390  68.534  96.564  0.00  0.00    +0.000 A 
ATOM     40  C   UNK     1      76.092  68.388  95.426  0.00  0.00    +0.000 A 
ATOM     41  C   UNK     1      77.057  67.458  95.332  0.00  0.00    +0.000 A 
ATOM     42  C   UNK     1      77.272  66.625  96.364  0.00  0.00    +0.000 A 
ATOM     43  C   UNK     1      76.563  66.712  97.504  0.00  0.00    +0.000 A 
ATOM     44  C   UNK     1      75.638  67.687  97.582  0.00  0.00    +0.000 A 
BRANCH  41  46
ATOM     45  H   UNK     1      77.529  68.109  93.591  0.00  0.00    +0.000 HD
ATOM     46  O   UNK     1      77.826  67.416  94.209  0.00  0.00    +0.000 OA
ENDBRANCH  41  46
BRANCH  40  47
ATOM     47  O   UNK     1      75.893  69.227  94.374  0.00  0.00    +0.000 OA
ATOM     48  H   UNK     1      76.347  70.063  94.579  0.00  0.00    +0.000 HD
ENDBRANCH  40  47
BRANCH  39  49
ATOM     49  O   UNK     1      74.460  69.536  96.658  0.00  0.00    +0.000 OA
BRANCH  49  50
ATOM     50  C   UNK     1      74.912  70.694  97.248  0.00  0.00    +0.000 C 
ATOM     51  O   UNK     1      76.076  70.980  97.032  0.00  0.00    +0.000 OA
BRANCH  50  54
ATOM     52  C   UNK     1      72.134  71.782  99.261  0.00  0.00    +0.000 A 
ATOM     53  C   UNK     1      72.929  71.033  98.479  0.00  0.00    +0.000 A 
ATOM     54  C   UNK     1      74.116  71.482  98.034  0.00  0.00    +0.000 A 
ATOM     55  C   UNK     1      74.487  72.724  98.396  0.00  0.00    +0.000 A 
ATOM     56  C   UNK     1      73.708  73.498  99.169  0.00  0.00    +0.000 A 
ATOM     57  C   UNK     1      72.523  73.026  99.593  0.00  0.00    +0.000 A 
BRANCH  52  58
ATOM     58  O   UNK     1      70.930  71.317  99.689  0.00  0.00    +0.000 OA
ATOM     59  H   UNK     1      70.760  71.656 100.584  0.00  0.00    +0.000 HD
ENDBRANCH  52  58
BRANCH  57  60
ATOM     60  O   UNK     1      71.732  73.792 100.391  0.00  0.00    +0.000 OA
ATOM     61  H   UNK     1      70.967  73.270 100.680  0.00  0.00    +0.000 HD
ENDBRANCH  57  60
BRANCH  56  62
ATOM     62  O   UNK     1      74.092  74.752  99.532  0.00  0.00    +0.000 OA
ATOM     63  H   UNK     1      73.507  75.393  99.096  0.00  0.00    +0.000 HD
ENDBRANCH  56  62
ENDBRANCH  50  54
ENDBRANCH  49  50
ENDBRANCH  39  49
ENDBRANCH  37  43
ENDBRANCH  36  37
ENDBRANCH  35  36
ENDBRANCH   1  35
BRANCH   4  64
ATOM     64  O   UNK     1      77.294  63.665 105.019  0.00  0.00    +0.000 OA
BRANCH  64  66
ATOM     65  O   UNK     1      79.437  63.488 105.047  0.00  0.00    +0.000 OA
ATOM     66  C   UNK     1      78.452  63.558 105.768  0.00  0.00    +0.000 C 
BRANCH  66  72
ATOM     67  C   UNK     1      79.820  63.512 107.782  0.00  0.00    +0.000 A 
ATOM     68  C   UNK     1      79.928  63.428 109.118  0.00  0.00    +0.000 A 
ATOM     69  C   UNK     1      78.814  63.394 109.869  0.00  0.00    +0.000 A 
ATOM     70  C   UNK     1      77.599  63.473 109.291  0.00  0.00    +0.000 A 
ATOM     71  C   UNK     1      77.564  63.573 107.947  0.00  0.00    +0.000 A 
ATOM     72  C   UNK     1      78.640  63.549 107.134  0.00  0.00    +0.000 A 
BRANCH  68  74
ATOM     73  H   UNK     1      81.871  63.693 109.141  0.00  0.00    +0.000 HD
ATOM     74  O   UNK     1      81.149  63.396 109.722  0.00  0.00    +0.000 OA
ENDBRANCH  68  74
BRANCH  69  76
ATOM     75  H   UNK     1      78.893  64.188 111.608  0.00  0.00    +0.000 HD
ATOM     76  O   UNK     1      78.936  63.298 111.221  0.00  0.00    +0.000 OA
ENDBRANCH  69  76
BRANCH  70  77
ATOM     77  O   UNK     1      76.476  63.415 110.087  0.00  0.00    +0.000 OA
BRANCH  77  79
ATOM     78  O   UNK     1      76.307  61.659 111.429  0.00  0.00    +0.000 OA
ATOM     79  C   UNK     1      75.940  62.178 110.389  0.00  0.00    +0.000 C 
BRANCH  79  85
ATOM     80  C   UNK     1      75.059  60.216 109.402  0.00  0.00    +0.000 A 
ATOM     81  C   UNK     1      74.221  59.594 108.557  0.00  0.00    +0.000 A 
ATOM     82  C   UNK     1      73.295  60.311 107.900  0.00  0.00    +0.000 A 
ATOM     83  C   UNK     1      73.211  61.638 108.089  0.00  0.00    +0.000 A 
ATOM     84  C   UNK     1      74.072  62.238 108.926  0.00  0.00    +0.000 A 
ATOM     85  C   UNK     1      75.021  61.549 109.589  0.00  0.00    +0.000 A 
BRANCH  83  87
ATOM     86  H   UNK     1      71.966  61.802 106.656  0.00  0.00    +0.000 HD
ATOM     87  O   UNK     1      72.276  62.347 107.398  0.00  0.00    +0.000 OA
ENDBRANCH  83  87
BRANCH  81  89
ATOM     88  H   UNK     1      74.797  57.828 109.053  0.00  0.00    +0.000 HD
ATOM     89  O   UNK     1      74.315  58.258 108.329  0.00  0.00    +0.000 OA
ENDBRANCH  81  89
BRANCH  82  91
ATOM     90  H   UNK     1      72.939  59.610 106.161  0.00  0.00    +0.000 HD
ATOM     91  O   UNK     1      72.475  59.691 107.012  0.00  0.00    +0.000 OA
ENDBRANCH  82  91
ENDBRANCH  79  85
ENDBRANCH  77  79
ENDBRANCH  70  77
ENDBRANCH  66  72
ENDBRANCH  64  66
ENDBRANCH   4  64
BRANCH   3  92
ATOM     92  O   UNK     1      77.854  63.145 102.157  0.00  0.00    +0.000 OA
BRANCH  92  94
ATOM     93  O   UNK     1      77.768  61.517 100.630  0.00  0.00    +0.000 OA
ATOM     94  C   UNK     1      77.586  61.843 101.788  0.00  0.00    +0.000 C 
BRANCH  94 100
ATOM     95  C   UNK     1      78.000  60.030 103.298  0.00  0.00    +0.000 A 
ATOM     96  C   UNK     1      77.545  59.200 104.255  0.00  0.00    +0.000 A 
ATOM     97  C   UNK     1      76.275  59.306 104.694  0.00  0.00    +0.000 A 
ATOM     98  C   UNK     1      75.433  60.212 104.158  0.00  0.00    +0.000 A 
ATOM     99  C   UNK     1      75.911  60.953 103.143  0.00  0.00    +0.000 A 
ATOM    100  C   UNK     1      77.182  60.922 102.717  0.00  0.00    +0.000 A 
BRANCH  96 102
ATOM    101  H   UNK     1      78.182  58.207 105.786  0.00  0.00    +0.000 HD
ATOM    102  O   UNK     1      78.389  58.310 104.843  0.00  0.00    +0.000 OA
ENDBRANCH  96 102
BRANCH  97 104
ATOM    103  H   UNK     1      74.975  58.777 105.993  0.00  0.00    +0.000 HD
ATOM    104  O   UNK     1      75.867  58.507 105.718  0.00  0.00    +0.000 OA
ENDBRANCH  97 104
BRANCH  98 105
ATOM    105  O   UNK     1      74.151  60.403 104.633  0.00  0.00    +0.000 OA
BRANCH 105 107
ATOM    106  O   UNK     1      73.200  58.862 103.335  0.00  0.00    +0.000 OA
ATOM    107  C   UNK     1      73.191  60.024 103.704  0.00  0.00    +0.000 C 
BRANCH 107 113
ATOM    108  C   UNK     1      71.406  61.492 104.192  0.00  0.00    +0.000 A 
ATOM    109  C   UNK     1      70.378  62.270 103.816  0.00  0.00    +0.000 A 
ATOM    110  C   UNK     1      70.106  62.415 102.509  0.00  0.00    +0.000 A 
ATOM    111  C   UNK     1      70.878  61.814 101.587  0.00  0.00    +0.000 A 
ATOM    112  C   UNK     1      71.916  61.060 101.990  0.00  0.00    +0.000 A 
ATOM    113  C   UNK     1      72.194  60.873 103.294  0.00  0.00    +0.000 A 
BRANCH 111 115
ATOM    114  H   UNK     1      71.202  62.501  99.832  0.00  0.00    +0.000 HD
ATOM    115  O   UNK     1      70.547  61.930 100.272  0.00  0.00    +0.000 OA
ENDBRANCH 111 115
BRANCH 109 117
ATOM    116  H   UNK     1      70.133  63.200 105.480  0.00  0.00    +0.000 HD
ATOM    117  O   UNK     1      69.591  62.883 104.741  0.00  0.00    +0.000 OA
ENDBRANCH 109 117
BRANCH 110 119
ATOM    118  H   UNK     1      68.893  63.860 102.794  0.00  0.00    +0.000 HD
ATOM    119  O   UNK     1      69.045  63.173 102.125  0.00  0.00    +0.000 OA
ENDBRANCH 110 119
ENDBRANCH 107 113
ENDBRANCH 105 107
ENDBRANCH  98 105
ENDBRANCH  94 100
ENDBRANCH  92  94
ENDBRANCH   3  92
BRANCH   6 120
ATOM    120  O   UNK     1      74.541  67.279 103.566  0.00  0.00    +0.000 OA
BRANCH 120 122
ATOM    121  O   UNK     1      75.805  69.039 104.122  0.00  0.00    +0.000 OA
ATOM    122  C   UNK     1      74.692  68.602 103.904  0.00  0.00    +0.000 C 
BRANCH 122 128
ATOM    123  C   UNK     1      72.984  70.089 103.132  0.00  0.00    +0.000 A 
ATOM    124  C   UNK     1      71.932  70.872 103.427  0.00  0.00    +0.000 A 
ATOM    125  C   UNK     1      71.485  70.966 104.695  0.00  0.00    +0.000 A 
ATOM    126  C   UNK     1      71.997  70.186 105.667  0.00  0.00    +0.000 A 
ATOM    127  C   UNK     1      73.026  69.399 105.316  0.00  0.00    +0.000 A 
ATOM    128  C   UNK     1      73.569  69.357 104.092  0.00  0.00    +0.000 A 
BRANCH 124 130
ATOM    129  H   UNK     1      71.265  72.574 102.821  0.00  0.00    +0.000 HD
ATOM    130  O   UNK     1      71.384  71.672 102.473  0.00  0.00    +0.000 OA
ENDBRANCH 124 130
BRANCH 125 132
ATOM    131  H   UNK     1      70.326  71.862 105.923  0.00  0.00    +0.000 HD
ATOM    132  O   UNK     1      70.508  71.867 104.969  0.00  0.00    +0.000 OA
ENDBRANCH 125 132
BRANCH 126 133
ATOM    133  O   UNK     1      71.553  70.210 106.971  0.00  0.00    +0.000 OA
BRANCH 133 135
ATOM    134  O   UNK     1      69.379  69.799 106.940  0.00  0.00    +0.000 OA
ATOM    135  C   UNK     1      70.484  69.358 107.206  0.00  0.00    +0.000 C 
BRANCH 135 141
ATOM    136  C   UNK     1      70.651  67.777 108.979  0.00  0.00    +0.000 A 
ATOM    137  C   UNK     1      70.882  66.530 109.431  0.00  0.00    +0.000 A 
ATOM    138  C   UNK     1      71.044  65.532 108.549  0.00  0.00    +0.000 A 
ATOM    139  C   UNK     1      70.955  65.776 107.231  0.00  0.00    +0.000 A 
ATOM    140  C   UNK     1      70.755  67.036 106.810  0.00  0.00    +0.000 A 
ATOM    141  C   UNK     1      70.620  68.070 107.664  0.00  0.00    +0.000 A 
BRANCH 139 143
ATOM    142  H   UNK     1      70.262  64.262 106.307  0.00  0.00    +0.000 HD
ATOM    143  O   UNK     1      71.103  64.746 106.355  0.00  0.00    +0.000 OA
ENDBRANCH 139 143
BRANCH 137 145
ATOM    144  H   UNK     1      70.997  67.083 111.267  0.00  0.00    +0.000 HD
ATOM    145  O   UNK     1      70.961  66.256 110.761  0.00  0.00    +0.000 OA
ENDBRANCH 137 145
BRANCH 138 147
ATOM    146  H   UNK     1      71.219  63.661 108.246  0.00  0.00    +0.000 HD
ATOM    147  O   UNK     1      71.250  64.268 109.003  0.00  0.00    +0.000 OA
ENDBRANCH 138 147
ENDBRANCH 135 141
ENDBRANCH 133 135
ENDBRANCH 126 133
ENDBRANCH 122 128
ENDBRANCH 120 122
ENDBRANCH   6 120
TORSDOF 56
ENDMDL
MODEL 11
REMARK VINA RESULT:      -8.2      2.296      8.769
REMARK  Name = ./3951.pdb
REMARK  56 active torsions:
REMARK  status: ('A' for Active; 'I' for Inactive)
REMARK    1  A    between atoms: O_1  and  C_2
REMARK    2  A    between atoms: C_4  and  C_10
REMARK    3  A    between atoms: C_6  and  O_9
REMARK    4  A    between atoms: C_7  and  O_8
REMARK    5  A    between atoms: C_10  and  O_12
REMARK    6  A    between atoms: O_12  and  C_13
REMARK    7  A    between atoms: C_14  and  O_15
REMARK    8  A    between atoms: C_16  and  O_78
REMARK    9  A    between atoms: C_18  and  C_20
REMARK   10  A    between atoms: C_20  and  O_22
REMARK   11  A    between atoms: O_22  and  C_23
REMARK   12  A    between atoms: C_23  and  C_24
REMARK   13  A    between atoms: O_79  and  C_85
REMARK   14  A    between atoms: O_80  and  C_82
REMARK   15  A    between atoms: O_83  and  C_84
REMARK   16  A    between atoms: C_87  and  C_89
REMARK   17  A    between atoms: C_89  and  O_90
REMARK   18  A    between atoms: O_90  and  C_96
REMARK   19  A    between atoms: O_91  and  C_93
REMARK   20  A    between atoms: O_94  and  C_95
REMARK   21  A    between atoms: C_98  and  C_100
REMARK   22  A    between atoms: C_100  and  O_101
REMARK   23  A    between atoms: O_101  and  C_102
REMARK   24  A    between atoms: O_103  and  C_109
REMARK   25  A    between atoms: O_104  and  C_106
REMARK   26  A    between atoms: O_107  and  C_108
REMARK   27  A    between atoms: C_111  and  C_113
REMARK   28  A    between atoms: C_113  and  O_114
REMARK   29  A    between atoms: O_114  and  C_120
REMARK   30  A    between atoms: O_115  and  C_117
REMARK   31  A    between atoms: O_118  and  C_119
REMARK   32  A    between atoms: C_122  and  C_124
REMARK   33  A    between atoms: C_124  and  O_125
REMARK   34  A    between atoms: O_125  and  C_126
REMARK   35  A    between atoms: O_127  and  C_133
REMARK   36  A    between atoms: O_128  and  C_130
REMARK   37  A    between atoms: O_131  and  C_132
REMARK   38  A    between atoms: C_135  and  C_137
REMARK   39  A    between atoms: C_137  and  O_138
REMARK   40  A    between atoms: O_138  and  C_144
REMARK   41  A    between atoms: O_139  and  C_141
REMARK   42  A    between atoms: O_142  and  C_143
REMARK   43  A    between atoms: C_146  and  C_148
REMARK   44  A    between atoms: C_148  and  O_149
REMARK   45  A    between atoms: O_149  and  C_150
REMARK   46  A    between atoms: O_151  and  C_157
REMARK   47  A    between atoms: O_152  and  C_154
REMARK   48  A    between atoms: O_155  and  C_156
REMARK   49  A    between atoms: C_159  and  C_161
REMARK   50  A    between atoms: C_161  and  O_162
REMARK   51  A    between atoms: O_162  and  C_168
REMARK   52  A    between atoms: O_163  and  C_165
REMARK   53  A    between atoms: O_166  and  C_167
REMARK   54  A    between atoms: C_170  and  C_172
REMARK   55  A    between atoms: C_172  and  O_173
REMARK   56  A    between atoms: O_173  and  C_174
REMARK                            x       y       z     vdW  Elec       q    Type
REMARK                         _______ _______ _______ _____ _____    ______ ____
ROOT
ATOM      1  C   UNK     1      72.595  62.252 105.870  0.00  0.00    +0.000 C 
ATOM      2  O   UNK     1      72.252  63.590 105.637  0.00  0.00    +0.000 OA
ATOM      3  C   UNK     1      72.564  61.935 107.371  0.00  0.00    +0.000 C 
ATOM      4  C   UNK     1      73.392  62.961 108.154  0.00  0.00    +0.000 C 
ATOM      5  C   UNK     1      72.805  64.339 107.842  0.00  0.00    +0.000 C 
ATOM      6  C   UNK     1      73.007  64.524 106.363  0.00  0.00    +0.000 C 
ENDROOT
BRANCH   5   7
ATOM      7  O   UNK     1      73.437  65.312 108.624  0.00  0.00    +0.000 OA
BRANCH   7   9
ATOM      8  O   UNK     1      71.578  65.587 109.786  0.00  0.00    +0.000 OA
ATOM      9  C   UNK     1      72.789  65.726 109.767  0.00  0.00    +0.000 C 
BRANCH   9  15
ATOM     10  C   UNK     1      74.437  67.215 110.586  0.00  0.00    +0.000 A 
ATOM     11  C   UNK     1      75.103  67.801 111.593  0.00  0.00    +0.000 A 
ATOM     12  C   UNK     1      74.784  67.492 112.863  0.00  0.00    +0.000 A 
ATOM     13  C   UNK     1      73.800  66.607 113.126  0.00  0.00    +0.000 A 
ATOM     14  C   UNK     1      73.147  66.052 112.087  0.00  0.00    +0.000 A 
ATOM     15  C   UNK     1      73.448  66.330 110.805  0.00  0.00    +0.000 A 
BRANCH  11  17
ATOM     16  H   UNK     1      76.565  68.931 112.166  0.00  0.00    +0.000 HD
ATOM     17  O   UNK     1      76.114  68.678 111.345  0.00  0.00    +0.000 OA
ENDBRANCH  11  17
BRANCH  12  19
ATOM     18  H   UNK     1      75.877  68.916 113.544  0.00  0.00    +0.000 HD
ATOM     19  O   UNK     1      75.475  68.093 113.869  0.00  0.00    +0.000 OA
ENDBRANCH  12  19
BRANCH  13  20
ATOM     20  O   UNK     1      73.451  66.266 114.408  0.00  0.00    +0.000 OA
BRANCH  20  22
ATOM     21  O   UNK     1      72.681  64.212 114.693  0.00  0.00    +0.000 OA
ATOM     22  C   UNK     1      73.649  64.948 114.761  0.00  0.00    +0.000 C 
BRANCH  22  28
ATOM     23  C   UNK     1      75.487  65.031 116.235  0.00  0.00    +0.000 A 
ATOM     24  C   UNK     1      76.683  64.592 116.661  0.00  0.00    +0.000 A 
ATOM     25  C   UNK     1      77.280  63.577 116.013  0.00  0.00    +0.000 A 
ATOM     26  C   UNK     1      76.684  63.008 114.952  0.00  0.00    +0.000 A 
ATOM     27  C   UNK     1      75.486  63.466 114.547  0.00  0.00    +0.000 A 
ATOM     28  C   UNK     1      74.866  64.481 115.177  0.00  0.00    +0.000 A 
BRANCH  26  30
ATOM     29  H   UNK     1      76.890  61.150 114.593  0.00  0.00    +0.000 HD
ATOM     30  O   UNK     1      77.307  61.981 114.311  0.00  0.00    +0.000 OA
ENDBRANCH  26  30
BRANCH  24  32
ATOM     31  H   UNK     1      78.137  65.563 117.455  0.00  0.00    +0.000 HD
ATOM     32  O   UNK     1      77.297  65.164 117.730  0.00  0.00    +0.000 OA
ENDBRANCH  24  32
BRANCH  25  34
ATOM     33  H   UNK     1      78.926  62.662 115.708  0.00  0.00    +0.000 HD
ATOM     34  O   UNK     1      78.492  63.131 116.439  0.00  0.00    +0.000 OA
ENDBRANCH  25  34
ENDBRANCH  22  28
ENDBRANCH  20  22
ENDBRANCH  13  20
ENDBRANCH   9  15
ENDBRANCH   7   9
ENDBRANCH   5   7
BRANCH   1  35
ATOM     35  C   UNK     1      71.578  61.412 105.090  0.00  0.00    +0.000 C 
BRANCH  35  36
ATOM     36  O   UNK     1      71.602  61.809 103.739  0.00  0.00    +0.000 OA
BRANCH  36  37
ATOM     37  C   UNK     1      70.426  62.069 103.070  0.00  0.00    +0.000 C 
ATOM     38  O   UNK     1      69.637  62.859 103.553  0.00  0.00    +0.000 OA
BRANCH  37  43
ATOM     39  C   UNK     1      70.883  60.240  99.980  0.00  0.00    +0.000 A 
ATOM     40  C   UNK     1      69.677  60.421  99.413  0.00  0.00    +0.000 A 
ATOM     41  C   UNK     1      68.708  61.085 100.063  0.00  0.00    +0.000 A 
ATOM     42  C   UNK     1      68.973  61.629 101.262  0.00  0.00    +0.000 A 
ATOM     43  C   UNK     1      70.179  61.505 101.846  0.00  0.00    +0.000 A 
ATOM     44  C   UNK     1      71.111  60.792 101.188  0.00  0.00    +0.000 A 
BRANCH  41  46
ATOM     45  H   UNK     1      66.833  60.677 100.085  0.00  0.00    +0.000 HD
ATOM     46  O   UNK     1      67.465  61.149  99.510  0.00  0.00    +0.000 OA
ENDBRANCH  41  46
BRANCH  40  47
ATOM     47  O   UNK     1      69.389  59.871  98.203  0.00  0.00    +0.000 OA
ATOM     48  H   UNK     1      69.027  58.982  98.366  0.00  0.00    +0.000 HD
ENDBRANCH  40  47
BRANCH  39  49
ATOM     49  O   UNK     1      71.831  59.498  99.325  0.00  0.00    +0.000 OA
BRANCH  49  50
ATOM     50  C   UNK     1      72.761  60.234  98.625  0.00  0.00    +0.000 C 
ATOM     51  O   UNK     1      72.463  60.512  97.478  0.00  0.00    +0.000 OA
BRANCH  50  54
ATOM     52  C   UNK     1      75.310  62.327 100.065  0.00  0.00    +0.000 A 
ATOM     53  C   UNK     1      74.155  61.914  99.518  0.00  0.00    +0.000 A 
ATOM     54  C   UNK     1      73.951  60.630  99.171  0.00  0.00    +0.000 A 
ATOM     55  C   UNK     1      74.956  59.760  99.386  0.00  0.00    +0.000 A 
ATOM     56  C   UNK     1      76.124  60.148  99.923  0.00  0.00    +0.000 A 
ATOM     57  C   UNK     1      76.302  61.439 100.253  0.00  0.00    +0.000 A 
BRANCH  52  58
ATOM     58  O   UNK     1      75.504  63.632 100.396  0.00  0.00    +0.000 OA
ATOM     59  H   UNK     1      76.291  63.962  99.932  0.00  0.00    +0.000 HD
ENDBRANCH  52  58
BRANCH  57  60
ATOM     60  O   UNK     1      77.473  61.842 100.815  0.00  0.00    +0.000 OA
ATOM     61  H   UNK     1      77.572  61.423 101.684  0.00  0.00    +0.000 HD
ENDBRANCH  57  60
BRANCH  56  62
ATOM     62  O   UNK     1      77.133  59.261 100.141  0.00  0.00    +0.000 OA
ATOM     63  H   UNK     1      76.919  58.432  99.683  0.00  0.00    +0.000 HD
ENDBRANCH  56  62
ENDBRANCH  50  54
ENDBRANCH  49  50
ENDBRANCH  39  49
ENDBRANCH  37  43
ENDBRANCH  36  37
ENDBRANCH  35  36
ENDBRANCH   1  35
BRANCH   4  64
ATOM     64  O   UNK     1      73.327  62.761 109.525  0.00  0.00    +0.000 OA
BRANCH  64  66
ATOM     65  O   UNK     1      73.967  63.059 111.557  0.00  0.00    +0.000 OA
ATOM     66  C   UNK     1      74.376  62.891 110.417  0.00  0.00    +0.000 C 
BRANCH  66  72
ATOM     67  C   UNK     1      76.623  62.093 110.912  0.00  0.00    +0.000 A 
ATOM     68  C   UNK     1      77.950  62.141 110.709  0.00  0.00    +0.000 A 
ATOM     69  C   UNK     1      78.442  62.947 109.754  0.00  0.00    +0.000 A 
ATOM     70  C   UNK     1      77.613  63.680 108.985  0.00  0.00    +0.000 A 
ATOM     71  C   UNK     1      76.292  63.571 109.231  0.00  0.00    +0.000 A 
ATOM     72  C   UNK     1      75.739  62.830 110.214  0.00  0.00    +0.000 A 
BRANCH  68  74
ATOM     73  H   UNK     1      79.643  61.193 110.994  0.00  0.00    +0.000 HD
ATOM     74  O   UNK     1      78.799  61.371 111.445  0.00  0.00    +0.000 OA
ENDBRANCH  68  74
BRANCH  69  76
ATOM     75  H   UNK     1      79.996  63.699 108.929  0.00  0.00    +0.000 HD
ATOM     76  O   UNK     1      79.789  62.995 109.566  0.00  0.00    +0.000 OA
ENDBRANCH  69  76
BRANCH  70  77
ATOM     77  O   UNK     1      78.150  64.512 108.028  0.00  0.00    +0.000 OA
BRANCH  77  79
ATOM     78  O   UNK     1      79.384  63.414 106.550  0.00  0.00    +0.000 OA
ATOM     79  C   UNK     1      78.345  64.018 106.753  0.00  0.00    +0.000 C 
BRANCH  79  85
ATOM     80  C   UNK     1      76.839  65.355 105.510  0.00  0.00    +0.000 A 
ATOM     81  C   UNK     1      75.874  65.499 104.589  0.00  0.00    +0.000 A 
ATOM     82  C   UNK     1      75.496  64.437 103.858  0.00  0.00    +0.000 A 
ATOM     83  C   UNK     1      76.080  63.244 104.050  0.00  0.00    +0.000 A 
ATOM     84  C   UNK     1      77.031  63.122 104.991  0.00  0.00    +0.000 A 
ATOM     85  C   UNK     1      77.422  64.165 105.749  0.00  0.00    +0.000 A 
BRANCH  83  87
ATOM     86  H   UNK     1      75.521  61.428 103.912  0.00  0.00    +0.000 HD
ATOM     87  O   UNK     1      75.668  62.178 103.311  0.00  0.00    +0.000 OA
ENDBRANCH  83  87
BRANCH  81  89
ATOM     88  H   UNK     1      74.761  66.940 105.204  0.00  0.00    +0.000 HD
ATOM     89  O   UNK     1      75.249  66.691 104.404  0.00  0.00    +0.000 OA
ENDBRANCH  81  89
BRANCH  82  91
ATOM     90  H   UNK     1      73.715  64.075 103.275  0.00  0.00    +0.000 HD
ATOM     91  O   UNK     1      74.488  64.571 102.956  0.00  0.00    +0.000 OA
ENDBRANCH  82  91
ENDBRANCH  79  85
ENDBRANCH  77  79
ENDBRANCH  70  77
ENDBRANCH  66  72
ENDBRANCH  64  66
ENDBRANCH   4  64
BRANCH   3  92
ATOM     92  O   UNK     1      72.876  60.578 107.574  0.00  0.00    +0.000 OA
BRANCH  92  94
ATOM     93  O   UNK     1      75.077  60.448 107.931  0.00  0.00    +0.000 OA
ATOM     94  C   UNK     1      74.130  60.103 107.250  0.00  0.00    +0.000 C 
BRANCH  94 100
ATOM     95  C   UNK     1      73.538  58.123 106.039  0.00  0.00    +0.000 A 
ATOM     96  C   UNK     1      73.717  57.332 104.966  0.00  0.00    +0.000 A 
ATOM     97  C   UNK     1      74.617  57.669 104.020  0.00  0.00    +0.000 A 
ATOM     98  C   UNK     1      75.375  58.776 104.152  0.00  0.00    +0.000 A 
ATOM     99  C   UNK     1      75.221  59.481 105.287  0.00  0.00    +0.000 A 
ATOM    100  C   UNK     1      74.297  59.214 106.222  0.00  0.00    +0.000 A 
BRANCH  96 102
ATOM    101  H   UNK     1      72.846  55.733 105.613  0.00  0.00    +0.000 HD
ATOM    102  O   UNK     1      72.932  56.236 104.787  0.00  0.00    +0.000 OA
ENDBRANCH  96 102
BRANCH  97 104
ATOM    103  H   UNK     1      75.571  57.072 102.474  0.00  0.00    +0.000 HD
ATOM    104  O   UNK     1      74.720  56.892 102.907  0.00  0.00    +0.000 OA
ENDBRANCH  97 104
BRANCH  98 105
ATOM    105  O   UNK     1      76.250  59.195 103.171  0.00  0.00    +0.000 OA
BRANCH 105 107
ATOM    106  O   UNK     1      77.483  57.413 102.648  0.00  0.00    +0.000 OA
ATOM    107  C   UNK     1      77.449  58.495 103.210  0.00  0.00    +0.000 C 
BRANCH 107 113
ATOM    108  C   UNK     1      79.374  58.298 104.565  0.00  0.00    +0.000 A 
ATOM    109  C   UNK     1      80.456  58.819 105.166  0.00  0.00    +0.000 A 
ATOM    110  C   UNK     1      80.754  60.115 104.975  0.00  0.00    +0.000 A 
ATOM    111  C   UNK     1      79.995  60.871 104.164  0.00  0.00    +0.000 A 
ATOM    112  C   UNK     1      78.931  60.318 103.556  0.00  0.00    +0.000 A 
ATOM    113  C   UNK     1      78.591  59.030 103.751  0.00  0.00    +0.000 A 
BRANCH 111 115
ATOM    114  H   UNK     1      81.161  62.365 104.423  0.00  0.00    +0.000 HD
ATOM    115  O   UNK     1      80.285  62.195 104.033  0.00  0.00    +0.000 OA
ENDBRANCH 111 115
BRANCH 109 117
ATOM    116  H   UNK     1      81.201  57.133 105.712  0.00  0.00    +0.000 HD
ATOM    117  O   UNK     1      81.231  58.063 105.989  0.00  0.00    +0.000 OA
ENDBRANCH 109 117
BRANCH 110 119
ATOM    118  H   UNK     1      82.247  61.302 105.018  0.00  0.00    +0.000 HD
ATOM    119  O   UNK     1      81.828  60.656 105.609  0.00  0.00    +0.000 OA
ENDBRANCH 110 119
ENDBRANCH 107 113
ENDBRANCH 105 107
ENDBRANCH  98 105
ENDBRANCH  94 100
ENDBRANCH  92  94
ENDBRANCH   3  92
BRANCH   6 120
ATOM    120  O   UNK     1      72.622  65.797 105.915  0.00  0.00    +0.000 OA
BRANCH 120 122
ATOM    121  O   UNK     1      70.526  65.838 106.694  0.00  0.00    +0.000 OA
ATOM    122  C   UNK     1      71.521  66.466 106.392  0.00  0.00    +0.000 C 
BRANCH 122 128
ATOM    123  C   UNK     1      70.499  68.601 106.738  0.00  0.00    +0.000 A 
ATOM    124  C   UNK     1      70.584  69.938 106.637  0.00  0.00    +0.000 A 
ATOM    125  C   UNK     1      71.701  70.517 106.155  0.00  0.00    +0.000 A 
ATOM    126  C   UNK     1      72.798  69.782 105.884  0.00  0.00    +0.000 A 
ATOM    127  C   UNK     1      72.672  68.454 106.030  0.00  0.00    +0.000 A 
ATOM    128  C   UNK     1      71.546  67.833 106.404  0.00  0.00    +0.000 A 
BRANCH 124 130
ATOM    129  H   UNK     1      69.780  71.541 107.341  0.00  0.00    +0.000 HD
ATOM    130  O   UNK     1      69.500  70.716 106.904  0.00  0.00    +0.000 OA
ENDBRANCH 124 130
BRANCH 125 132
ATOM    131  H   UNK     1      71.837  72.036 105.002  0.00  0.00    +0.000 HD
ATOM    132  O   UNK     1      71.695  71.859 105.946  0.00  0.00    +0.000 OA
ENDBRANCH 125 132
BRANCH 126 133
ATOM    133  O   UNK     1      73.980  70.323 105.428  0.00  0.00    +0.000 OA
BRANCH 133 135
ATOM    134  O   UNK     1      74.660  71.465 107.196  0.00  0.00    +0.000 OA
ATOM    135  C   UNK     1      74.909  70.547 106.432  0.00  0.00    +0.000 C 
BRANCH 135 141
ATOM    136  C   UNK     1      77.084  69.826 105.785  0.00  0.00    +0.000 A 
ATOM    137  C   UNK     1      78.141  69.003 105.912  0.00  0.00    +0.000 A 
ATOM    138  C   UNK     1      78.174  68.130 106.930  0.00  0.00    +0.000 A 
ATOM    139  C   UNK     1      77.170  68.096 107.822  0.00  0.00    +0.000 A 
ATOM    140  C   UNK     1      76.114  68.908 107.651  0.00  0.00    +0.000 A 
ATOM    141  C   UNK     1      76.030  69.776 106.623  0.00  0.00    +0.000 A 
BRANCH 139 143
ATOM    142  H   UNK     1      76.430  66.668 108.842  0.00  0.00    +0.000 HD
ATOM    143  O   UNK     1      77.233  67.216 108.858  0.00  0.00    +0.000 OA
ENDBRANCH 139 143
BRANCH 137 145
ATOM    144  H   UNK     1      79.630  68.172 105.028  0.00  0.00    +0.000 HD
ATOM    145  O   UNK     1      79.176  69.029 105.031  0.00  0.00    +0.000 OA
ENDBRANCH 137 145
BRANCH 138 147
ATOM    146  H   UNK     1      79.644  67.167 106.201  0.00  0.00    +0.000 HD
ATOM    147  O   UNK     1      79.252  67.316 107.076  0.00  0.00    +0.000 OA
ENDBRANCH 138 147
ENDBRANCH 135 141
ENDBRANCH 133 135
ENDBRANCH 126 133
ENDBRANCH 122 128
ENDBRANCH 120 122
ENDBRANCH   6 120
TORSDOF 56
ENDMDL
MODEL 12
REMARK VINA RESULT:      -8.2      3.194     10.238
REMARK  Name = ./3951.pdb
REMARK  56 active torsions:
REMARK  status: ('A' for Active; 'I' for Inactive)
REMARK    1  A    between atoms: O_1  and  C_2
REMARK    2  A    between atoms: C_4  and  C_10
REMARK    3  A    between atoms: C_6  and  O_9
REMARK    4  A    between atoms: C_7  and  O_8
REMARK    5  A    between atoms: C_10  and  O_12
REMARK    6  A    between atoms: O_12  and  C_13
REMARK    7  A    between atoms: C_14  and  O_15
REMARK    8  A    between atoms: C_16  and  O_78
REMARK    9  A    between atoms: C_18  and  C_20
REMARK   10  A    between atoms: C_20  and  O_22
REMARK   11  A    between atoms: O_22  and  C_23
REMARK   12  A    between atoms: C_23  and  C_24
REMARK   13  A    between atoms: O_79  and  C_85
REMARK   14  A    between atoms: O_80  and  C_82
REMARK   15  A    between atoms: O_83  and  C_84
REMARK   16  A    between atoms: C_87  and  C_89
REMARK   17  A    between atoms: C_89  and  O_90
REMARK   18  A    between atoms: O_90  and  C_96
REMARK   19  A    between atoms: O_91  and  C_93
REMARK   20  A    between atoms: O_94  and  C_95
REMARK   21  A    between atoms: C_98  and  C_100
REMARK   22  A    between atoms: C_100  and  O_101
REMARK   23  A    between atoms: O_101  and  C_102
REMARK   24  A    between atoms: O_103  and  C_109
REMARK   25  A    between atoms: O_104  and  C_106
REMARK   26  A    between atoms: O_107  and  C_108
REMARK   27  A    between atoms: C_111  and  C_113
REMARK   28  A    between atoms: C_113  and  O_114
REMARK   29  A    between atoms: O_114  and  C_120
REMARK   30  A    between atoms: O_115  and  C_117
REMARK   31  A    between atoms: O_118  and  C_119
REMARK   32  A    between atoms: C_122  and  C_124
REMARK   33  A    between atoms: C_124  and  O_125
REMARK   34  A    between atoms: O_125  and  C_126
REMARK   35  A    between atoms: O_127  and  C_133
REMARK   36  A    between atoms: O_128  and  C_130
REMARK   37  A    between atoms: O_131  and  C_132
REMARK   38  A    between atoms: C_135  and  C_137
REMARK   39  A    between atoms: C_137  and  O_138
REMARK   40  A    between atoms: O_138  and  C_144
REMARK   41  A    between atoms: O_139  and  C_141
REMARK   42  A    between atoms: O_142  and  C_143
REMARK   43  A    between atoms: C_146  and  C_148
REMARK   44  A    between atoms: C_148  and  O_149
REMARK   45  A    between atoms: O_149  and  C_150
REMARK   46  A    between atoms: O_151  and  C_157
REMARK   47  A    between atoms: O_152  and  C_154
REMARK   48  A    between atoms: O_155  and  C_156
REMARK   49  A    between atoms: C_159  and  C_161
REMARK   50  A    between atoms: C_161  and  O_162
REMARK   51  A    between atoms: O_162  and  C_168
REMARK   52  A    between atoms: O_163  and  C_165
REMARK   53  A    between atoms: O_166  and  C_167
REMARK   54  A    between atoms: C_170  and  C_172
REMARK   55  A    between atoms: C_172  and  O_173
REMARK   56  A    between atoms: O_173  and  C_174
REMARK                            x       y       z     vdW  Elec       q    Type
REMARK                         _______ _______ _______ _____ _____    ______ ____
ROOT
ATOM      1  C   UNK     1      75.486  65.065 104.399  0.00  0.00    +0.000 C 
ATOM      2  O   UNK     1      75.435  66.454 104.227  0.00  0.00    +0.000 OA
ATOM      3  C   UNK     1      75.427  64.699 105.888  0.00  0.00    +0.000 C 
ATOM      4  C   UNK     1      76.479  65.488 106.678  0.00  0.00    +0.000 C 
ATOM      5  C   UNK     1      76.195  66.972 106.436  0.00  0.00    +0.000 C 
ATOM      6  C   UNK     1      76.393  67.172 104.958  0.00  0.00    +0.000 C 
ENDROOT
BRANCH   5   7
ATOM      7  O   UNK     1      77.044  67.752 107.230  0.00  0.00    +0.000 OA
BRANCH   7   9
ATOM      8  O   UNK     1      76.733  68.187 109.373  0.00  0.00    +0.000 OA
ATOM      9  C   UNK     1      76.465  68.504 108.228  0.00  0.00    +0.000 C 
BRANCH   9  15
ATOM     10  C   UNK     1      75.848  70.789 108.289  0.00  0.00    +0.000 A 
ATOM     11  C   UNK     1      74.980  71.784 108.051  0.00  0.00    +0.000 A 
ATOM     12  C   UNK     1      73.796  71.504 107.477  0.00  0.00    +0.000 A 
ATOM     13  C   UNK     1      73.484  70.236 107.136  0.00  0.00    +0.000 A 
ATOM     14  C   UNK     1      74.389  69.269 107.379  0.00  0.00    +0.000 A 
ATOM     15  C   UNK     1      75.576  69.513 107.962  0.00  0.00    +0.000 A 
BRANCH  11  17
ATOM     16  H   UNK     1      74.961  73.694 107.739  0.00  0.00    +0.000 HD
ATOM     17  O   UNK     1      75.270  73.064 108.410  0.00  0.00    +0.000 OA
ENDBRANCH  11  17
BRANCH  12  19
ATOM     18  H   UNK     1      73.423  73.329 107.015  0.00  0.00    +0.000 HD
ATOM     19  O   UNK     1      72.929  72.527 107.249  0.00  0.00    +0.000 OA
ENDBRANCH  12  19
BRANCH  13  20
ATOM     20  O   UNK     1      72.285  69.914 106.552  0.00  0.00    +0.000 OA
BRANCH  20  22
ATOM     21  O   UNK     1      70.494  70.203 107.818  0.00  0.00    +0.000 OA
ATOM     22  C   UNK     1      71.316  69.411 107.393  0.00  0.00    +0.000 C 
BRANCH  22  28
ATOM     23  C   UNK     1      71.550  67.128 106.850  0.00  0.00    +0.000 A 
ATOM     24  C   UNK     1      71.514  65.825 107.175  0.00  0.00    +0.000 A 
ATOM     25  C   UNK     1      71.193  65.468 108.429  0.00  0.00    +0.000 A 
ATOM     26  C   UNK     1      70.914  66.407 109.349  0.00  0.00    +0.000 A 
ATOM     27  C   UNK     1      70.958  67.704 108.999  0.00  0.00    +0.000 A 
ATOM     28  C   UNK     1      71.276  68.090 107.749  0.00  0.00    +0.000 A 
BRANCH  26  30
ATOM     29  H   UNK     1      71.026  65.172 110.794  0.00  0.00    +0.000 HD
ATOM     30  O   UNK     1      70.592  66.022 110.615  0.00  0.00    +0.000 OA
ENDBRANCH  26  30
BRANCH  24  32
ATOM     31  H   UNK     1      71.030  64.273 106.153  0.00  0.00    +0.000 HD
ATOM     32  O   UNK     1      71.790  64.867 106.250  0.00  0.00    +0.000 OA
ENDBRANCH  24  32
BRANCH  25  34
ATOM     33  H   UNK     1      70.747  63.655 108.031  0.00  0.00    +0.000 HD
ATOM     34  O   UNK     1      71.153  64.150 108.762  0.00  0.00    +0.000 OA
ENDBRANCH  25  34
ENDBRANCH  22  28
ENDBRANCH  20  22
ENDBRANCH  13  20
ENDBRANCH   9  15
ENDBRANCH   7   9
ENDBRANCH   5   7
BRANCH   1  35
ATOM     35  C   UNK     1      74.291  64.497 103.627  0.00  0.00    +0.000 C 
BRANCH  35  36
ATOM     36  O   UNK     1      74.636  63.226 103.126  0.00  0.00    +0.000 OA
BRANCH  36  37
ATOM     37  C   UNK     1      75.838  63.036 102.481  0.00  0.00    +0.000 C 
ATOM     38  O   UNK     1      76.090  63.707 101.496  0.00  0.00    +0.000 OA
BRANCH  37  43
ATOM     39  C   UNK     1      79.006  61.598 103.480  0.00  0.00    +0.000 A 
ATOM     40  C   UNK     1      78.593  60.403 103.941  0.00  0.00    +0.000 A 
ATOM     41  C   UNK     1      77.285  60.098 103.976  0.00  0.00    +0.000 A 
ATOM     42  C   UNK     1      76.392  60.972 103.484  0.00  0.00    +0.000 A 
ATOM     43  C   UNK     1      76.768  62.161 102.977  0.00  0.00    +0.000 A 
ATOM     44  C   UNK     1      78.081  62.453 103.002  0.00  0.00    +0.000 A 
BRANCH  41  46
ATOM     45  H   UNK     1      76.708  59.087 105.501  0.00  0.00    +0.000 HD
ATOM     46  O   UNK     1      76.895  58.929 104.556  0.00  0.00    +0.000 OA
ENDBRANCH  41  46
BRANCH  40  47
ATOM     47  O   UNK     1      79.483  59.509 104.450  0.00  0.00    +0.000 OA
ATOM     48  H   UNK     1      80.376  59.842 104.251  0.00  0.00    +0.000 HD
ENDBRANCH  40  47
BRANCH  39  49
ATOM     49  O   UNK     1      80.339  61.910 103.519  0.00  0.00    +0.000 OA
BRANCH  49  50
ATOM     50  C   UNK     1      80.740  62.606 104.638  0.00  0.00    +0.000 C 
ATOM     51  O   UNK     1      80.972  61.933 105.626  0.00  0.00    +0.000 OA
BRANCH  50  54
ATOM     52  C   UNK     1      81.788  65.931 103.747  0.00  0.00    +0.000 A 
ATOM     53  C   UNK     1      81.653  64.595 103.759  0.00  0.00    +0.000 A 
ATOM     54  C   UNK     1      80.869  63.967 104.654  0.00  0.00    +0.000 A 
ATOM     55  C   UNK     1      80.219  64.729 105.554  0.00  0.00    +0.000 A 
ATOM     56  C   UNK     1      80.344  66.066 105.570  0.00  0.00    +0.000 A 
ATOM     57  C   UNK     1      81.140  66.665 104.668  0.00  0.00    +0.000 A 
BRANCH  52  58
ATOM     58  O   UNK     1      82.597  66.547 102.843  0.00  0.00    +0.000 OA
ATOM     59  H   UNK     1      83.363  65.977 102.665  0.00  0.00    +0.000 HD
ENDBRANCH  52  58
BRANCH  57  60
ATOM     60  O   UNK     1      81.261  68.020 104.661  0.00  0.00    +0.000 OA
ATOM     61  H   UNK     1      82.192  68.259 104.792  0.00  0.00    +0.000 HD
ENDBRANCH  57  60
BRANCH  56  62
ATOM     62  O   UNK     1      79.680  66.829 106.482  0.00  0.00    +0.000 OA
ATOM     63  H   UNK     1      80.245  66.934 107.265  0.00  0.00    +0.000 HD
ENDBRANCH  56  62
ENDBRANCH  50  54
ENDBRANCH  49  50
ENDBRANCH  39  49
ENDBRANCH  37  43
ENDBRANCH  36  37
ENDBRANCH  35  36
ENDBRANCH   1  35
BRANCH   4  64
ATOM     64  O   UNK     1      76.408  65.248 108.042  0.00  0.00    +0.000 OA
BRANCH  64  66
ATOM     65  O   UNK     1      78.438  64.622 108.379  0.00  0.00    +0.000 OA
ATOM     66  C   UNK     1      77.292  64.482 108.780  0.00  0.00    +0.000 C 
BRANCH  66  72
ATOM     67  C   UNK     1      77.924  62.729 110.348  0.00  0.00    +0.000 A 
ATOM     68  C   UNK     1      77.617  61.901 111.360  0.00  0.00    +0.000 A 
ATOM     69  C   UNK     1      76.409  61.992 111.942  0.00  0.00    +0.000 A 
ATOM     70  C   UNK     1      75.524  62.923 111.536  0.00  0.00    +0.000 A 
ATOM     71  C   UNK     1      75.904  63.733 110.528  0.00  0.00    +0.000 A 
ATOM     72  C   UNK     1      77.074  63.653 109.861  0.00  0.00    +0.000 A 
BRANCH  68  74
ATOM     73  H   UNK     1      78.100  60.222 112.250  0.00  0.00    +0.000 HD
ATOM     74  O   UNK     1      78.517  60.986 111.814  0.00  0.00    +0.000 OA
ENDBRANCH  68  74
BRANCH  69  76
ATOM     75  H   UNK     1      76.088  60.230 112.616  0.00  0.00    +0.000 HD
ATOM     76  O   UNK     1      76.105  61.139 112.959  0.00  0.00    +0.000 OA
ENDBRANCH  69  76
BRANCH  70  77
ATOM     77  O   UNK     1      74.287  62.976 112.139  0.00  0.00    +0.000 OA
BRANCH  77  79
ATOM     78  O   UNK     1      72.523  64.237 111.675  0.00  0.00    +0.000 OA
ATOM     79  C   UNK     1      73.626  64.188 112.192  0.00  0.00    +0.000 C 
BRANCH  79  85
ATOM     80  C   UNK     1      74.370  66.434 112.125  0.00  0.00    +0.000 A 
ATOM     81  C   UNK     1      74.959  67.499 112.691  0.00  0.00    +0.000 A 
ATOM     82  C   UNK     1      75.313  67.446 113.985  0.00  0.00    +0.000 A 
ATOM     83  C   UNK     1      75.077  66.337 114.704  0.00  0.00    +0.000 A 
ATOM     84  C   UNK     1      74.503  65.279 114.109  0.00  0.00    +0.000 A 
ATOM     85  C   UNK     1      74.150  65.295 112.810  0.00  0.00    +0.000 A 
BRANCH  83  87
ATOM     86  H   UNK     1      75.132  65.474 116.402  0.00  0.00    +0.000 HD
ATOM     87  O   UNK     1      75.461  66.300 116.009  0.00  0.00    +0.000 OA
ENDBRANCH  83  87
BRANCH  81  89
ATOM     88  H   UNK     1      74.667  68.657 111.185  0.00  0.00    +0.000 HD
ATOM     89  O   UNK     1      75.235  68.617 111.970  0.00  0.00    +0.000 OA
ENDBRANCH  81  89
BRANCH  82  91
ATOM     90  H   UNK     1      76.187  69.137 113.847  0.00  0.00    +0.000 HD
ATOM     91  O   UNK     1      75.949  68.507 114.549  0.00  0.00    +0.000 OA
ENDBRANCH  82  91
ENDBRANCH  79  85
ENDBRANCH  77  79
ENDBRANCH  70  77
ENDBRANCH  66  72
ENDBRANCH  64  66
ENDBRANCH   4  64
BRANCH   3  92
ATOM     92  O   UNK     1      75.443  63.299 106.031  0.00  0.00    +0.000 OA
BRANCH  92  94
ATOM     93  O   UNK     1      73.864  63.358 107.610  0.00  0.00    +0.000 OA
ATOM     94  C   UNK     1      74.510  62.678 106.835  0.00  0.00    +0.000 C 
BRANCH  94 100
ATOM     95  C   UNK     1      74.517  60.440 107.690  0.00  0.00    +0.000 A 
ATOM     96  C   UNK     1      74.192  59.144 107.530  0.00  0.00    +0.000 A 
ATOM     97  C   UNK     1      73.546  58.741 106.417  0.00  0.00    +0.000 A 
ATOM     98  C   UNK     1      73.252  59.617 105.435  0.00  0.00    +0.000 A 
ATOM     99  C   UNK     1      73.681  60.880 105.605  0.00  0.00    +0.000 A 
ATOM    100  C   UNK     1      74.272  61.334 106.720  0.00  0.00    +0.000 A 
BRANCH  96 102
ATOM    101  H   UNK     1      73.621  58.041 109.010  0.00  0.00    +0.000 HD
ATOM    102  O   UNK     1      74.436  58.252 108.527  0.00  0.00    +0.000 OA
ENDBRANCH  96 102
BRANCH  97 104
ATOM    103  H   UNK     1      72.368  57.304 106.866  0.00  0.00    +0.000 HD
ATOM    104  O   UNK     1      73.160  57.440 106.319  0.00  0.00    +0.000 OA
ENDBRANCH  97 104
BRANCH  98 105
ATOM    105  O   UNK     1      72.525  59.259 104.318  0.00  0.00    +0.000 OA
BRANCH 105 107
ATOM    106  O   UNK     1      74.060  58.091 103.201  0.00  0.00    +0.000 OA
ATOM    107  C   UNK     1      73.338  59.073 103.207  0.00  0.00    +0.000 C 
BRANCH 107 113
ATOM    108  C   UNK     1      74.121  59.729 101.077  0.00  0.00    +0.000 A 
ATOM    109  C   UNK     1      74.116  60.554 100.017  0.00  0.00    +0.000 A 
ATOM    110  C   UNK     1      73.250  61.581  99.987  0.00  0.00    +0.000 A 
ATOM    111  C   UNK     1      72.376  61.758 100.992  0.00  0.00    +0.000 A 
ATOM    112  C   UNK     1      72.386  60.903 102.030  0.00  0.00    +0.000 A 
ATOM    113  C   UNK     1      73.262  59.883 102.102  0.00  0.00    +0.000 A 
BRANCH 111 115
ATOM    114  H   UNK     1      70.723  62.614 101.432  0.00  0.00    +0.000 HD
ATOM    115  O   UNK     1      71.548  62.838 100.965  0.00  0.00    +0.000 OA
ENDBRANCH 111 115
BRANCH 109 117
ATOM    116  H   UNK     1      75.831  60.022  99.332  0.00  0.00    +0.000 HD
ATOM    117  O   UNK     1      74.996  60.384  98.994  0.00  0.00    +0.000 OA
ENDBRANCH 109 117
BRANCH 110 119
ATOM    118  H   UNK     1      73.240  63.349  99.270  0.00  0.00    +0.000 HD
ATOM    119  O   UNK     1      73.264  62.439  98.933  0.00  0.00    +0.000 OA
ENDBRANCH 110 119
ENDBRANCH 107 113
ENDBRANCH 105 107
ENDBRANCH  98 105
ENDBRANCH  94 100
ENDBRANCH  92  94
ENDBRANCH   3  92
BRANCH   6 120
ATOM    120  O   UNK     1      76.282  68.516 104.570  0.00  0.00    +0.000 OA
BRANCH 120 122
ATOM    121  O   UNK     1      78.469  68.967 104.466  0.00  0.00    +0.000 OA
ATOM    122  C   UNK     1      77.338  69.395 104.576  0.00  0.00    +0.000 C 
BRANCH 122 128
ATOM    123  C   UNK     1      75.978  71.356 104.413  0.00  0.00    +0.000 A 
ATOM    124  C   UNK     1      75.849  72.678 104.620  0.00  0.00    +0.000 A 
ATOM    125  C   UNK     1      76.846  73.379 105.195  0.00  0.00    +0.000 A 
ATOM    126  C   UNK     1      77.934  72.755 105.687  0.00  0.00    +0.000 A 
ATOM    127  C   UNK     1      78.002  71.431 105.482  0.00  0.00    +0.000 A 
ATOM    128  C   UNK     1      77.083  70.715 104.820  0.00  0.00    +0.000 A 
BRANCH 124 130
ATOM    129  H   UNK     1      74.341  73.851 104.858  0.00  0.00    +0.000 HD
ATOM    130  O   UNK     1      74.764  73.344 104.142  0.00  0.00    +0.000 OA
ENDBRANCH 124 130
BRANCH 125 132
ATOM    131  H   UNK     1      77.019  75.031 106.141  0.00  0.00    +0.000 HD
ATOM    132  O   UNK     1      76.728  74.730 105.265  0.00  0.00    +0.000 OA
ENDBRANCH 125 132
BRANCH 126 133
ATOM    133  O   UNK     1      78.965  73.414 106.321  0.00  0.00    +0.000 OA
BRANCH 133 135
ATOM    134  O   UNK     1      78.089  74.337 108.130  0.00  0.00    +0.000 OA
ATOM    135  C   UNK     1      78.824  73.465 107.699  0.00  0.00    +0.000 C 
BRANCH 135 141
ATOM    136  C   UNK     1      78.709  71.649 109.235  0.00  0.00    +0.000 A 
ATOM    137  C   UNK     1      79.272  70.842 110.153  0.00  0.00    +0.000 A 
ATOM    138  C   UNK     1      80.592  70.926 110.380  0.00  0.00    +0.000 A 
ATOM    139  C   UNK     1      81.341  71.794 109.680  0.00  0.00    +0.000 A 
ATOM    140  C   UNK     1      80.746  72.609 108.793  0.00  0.00    +0.000 A 
ATOM    141  C   UNK     1      79.419  72.576 108.561  0.00  0.00    +0.000 A 
BRANCH 139 143
ATOM    142  H   UNK     1      83.030  72.653 109.492  0.00  0.00    +0.000 HD
ATOM    143  O   UNK     1      82.681  71.850 109.912  0.00  0.00    +0.000 OA
ENDBRANCH 139 143
BRANCH 137 145
ATOM    144  H   UNK     1      77.615  69.959 110.558  0.00  0.00    +0.000 HD
ATOM    145  O   UNK     1      78.536  69.945 110.862  0.00  0.00    +0.000 OA
ENDBRANCH 137 145
BRANCH 138 147
ATOM    146  H   UNK     1      81.860  70.585 111.757  0.00  0.00    +0.000 HD
ATOM    147  O   UNK     1      81.167  70.094 111.286  0.00  0.00    +0.000 OA
ENDBRANCH 138 147
ENDBRANCH 135 141
ENDBRANCH 133 135
ENDBRANCH 126 133
ENDBRANCH 122 128
ENDBRANCH 120 122
ENDBRANCH   6 120
TORSDOF 56
ENDMDL
MODEL 13
REMARK VINA RESULT:      -8.2      2.546      8.661
REMARK  Name = ./3951.pdb
REMARK  56 active torsions:
REMARK  status: ('A' for Active; 'I' for Inactive)
REMARK    1  A    between atoms: O_1  and  C_2
REMARK    2  A    between atoms: C_4  and  C_10
REMARK    3  A    between atoms: C_6  and  O_9
REMARK    4  A    between atoms: C_7  and  O_8
REMARK    5  A    between atoms: C_10  and  O_12
REMARK    6  A    between atoms: O_12  and  C_13
REMARK    7  A    between atoms: C_14  and  O_15
REMARK    8  A    between atoms: C_16  and  O_78
REMARK    9  A    between atoms: C_18  and  C_20
REMARK   10  A    between atoms: C_20  and  O_22
REMARK   11  A    between atoms: O_22  and  C_23
REMARK   12  A    between atoms: C_23  and  C_24
REMARK   13  A    between atoms: O_79  and  C_85
REMARK   14  A    between atoms: O_80  and  C_82
REMARK   15  A    between atoms: O_83  and  C_84
REMARK   16  A    between atoms: C_87  and  C_89
REMARK   17  A    between atoms: C_89  and  O_90
REMARK   18  A    between atoms: O_90  and  C_96
REMARK   19  A    between atoms: O_91  and  C_93
REMARK   20  A    between atoms: O_94  and  C_95
REMARK   21  A    between atoms: C_98  and  C_100
REMARK   22  A    between atoms: C_100  and  O_101
REMARK   23  A    between atoms: O_101  and  C_102
REMARK   24  A    between atoms: O_103  and  C_109
REMARK   25  A    between atoms: O_104  and  C_106
REMARK   26  A    between atoms: O_107  and  C_108
REMARK   27  A    between atoms: C_111  and  C_113
REMARK   28  A    between atoms: C_113  and  O_114
REMARK   29  A    between atoms: O_114  and  C_120
REMARK   30  A    between atoms: O_115  and  C_117
REMARK   31  A    between atoms: O_118  and  C_119
REMARK   32  A    between atoms: C_122  and  C_124
REMARK   33  A    between atoms: C_124  and  O_125
REMARK   34  A    between atoms: O_125  and  C_126
REMARK   35  A    between atoms: O_127  and  C_133
REMARK   36  A    between atoms: O_128  and  C_130
REMARK   37  A    between atoms: O_131  and  C_132
REMARK   38  A    between atoms: C_135  and  C_137
REMARK   39  A    between atoms: C_137  and  O_138
REMARK   40  A    between atoms: O_138  and  C_144
REMARK   41  A    between atoms: O_139  and  C_141
REMARK   42  A    between atoms: O_142  and  C_143
REMARK   43  A    between atoms: C_146  and  C_148
REMARK   44  A    between atoms: C_148  and  O_149
REMARK   45  A    between atoms: O_149  and  C_150
REMARK   46  A    between atoms: O_151  and  C_157
REMARK   47  A    between atoms: O_152  and  C_154
REMARK   48  A    between atoms: O_155  and  C_156
REMARK   49  A    between atoms: C_159  and  C_161
REMARK   50  A    between atoms: C_161  and  O_162
REMARK   51  A    between atoms: O_162  and  C_168
REMARK   52  A    between atoms: O_163  and  C_165
REMARK   53  A    between atoms: O_166  and  C_167
REMARK   54  A    between atoms: C_170  and  C_172
REMARK   55  A    between atoms: C_172  and  O_173
REMARK   56  A    between atoms: O_173  and  C_174
REMARK                            x       y       z     vdW  Elec       q    Type
REMARK                         _______ _______ _______ _____ _____    ______ ____
ROOT
ATOM      1  C   UNK     1      73.004  59.921 103.384  0.00  0.00    +0.000 C 
ATOM      2  O   UNK     1      74.322  59.817 103.846  0.00  0.00    +0.000 OA
ATOM      3  C   UNK     1      72.491  61.361 103.520  0.00  0.00    +0.000 C 
ATOM      4  C   UNK     1      72.721  61.881 104.945  0.00  0.00    +0.000 C 
ATOM      5  C   UNK     1      74.223  61.774 105.221  0.00  0.00    +0.000 C 
ATOM      6  C   UNK     1      74.529  60.303 105.146  0.00  0.00    +0.000 C 
ENDROOT
BRANCH   5   7
ATOM      7  O   UNK     1      74.518  62.350 106.462  0.00  0.00    +0.000 OA
BRANCH   7   9
ATOM      8  O   UNK     1      76.358  63.007 107.494  0.00  0.00    +0.000 OA
ATOM      9  C   UNK     1      75.625  63.167 106.533  0.00  0.00    +0.000 C 
BRANCH   9  15
ATOM     10  C   UNK     1      76.504  63.904 104.462  0.00  0.00    +0.000 A 
ATOM     11  C   UNK     1      76.760  64.868 103.565  0.00  0.00    +0.000 A 
ATOM     12  C   UNK     1      76.377  66.130 103.825  0.00  0.00    +0.000 A 
ATOM     13  C   UNK     1      75.735  66.428 104.975  0.00  0.00    +0.000 A 
ATOM     14  C   UNK     1      75.485  65.429 105.842  0.00  0.00    +0.000 A 
ATOM     15  C   UNK     1      75.864  64.158 105.618  0.00  0.00    +0.000 A 
BRANCH  11  17
ATOM     16  H   UNK     1      78.099  63.903 102.554  0.00  0.00    +0.000 HD
ATOM     17  O   UNK     1      77.427  64.589 102.412  0.00  0.00    +0.000 OA
ENDBRANCH  11  17
BRANCH  12  19
ATOM     18  H   UNK     1      77.044  67.864 103.344  0.00  0.00    +0.000 HD
ATOM     19  O   UNK     1      76.651  67.093 102.904  0.00  0.00    +0.000 OA
ENDBRANCH  12  19
BRANCH  13  20
ATOM     20  O   UNK     1      75.333  67.705 105.274  0.00  0.00    +0.000 OA
BRANCH  20  22
ATOM     21  O   UNK     1      73.639  67.650 103.852  0.00  0.00    +0.000 OA
ATOM     22  C   UNK     1      74.034  68.026 104.941  0.00  0.00    +0.000 C 
BRANCH  22  28
ATOM     23  C   UNK     1      71.885  68.683 105.655  0.00  0.00    +0.000 A 
ATOM     24  C   UNK     1      71.068  69.377 106.465  0.00  0.00    +0.000 A 
ATOM     25  C   UNK     1      71.597  70.151 107.427  0.00  0.00    +0.000 A 
ATOM     26  C   UNK     1      72.930  70.227 107.577  0.00  0.00    +0.000 A 
ATOM     27  C   UNK     1      73.726  69.523 106.753  0.00  0.00    +0.000 A 
ATOM     28  C   UNK     1      73.223  68.739 105.781  0.00  0.00    +0.000 A 
BRANCH  26  30
ATOM     29  H   UNK     1      74.342  70.706 108.761  0.00  0.00    +0.000 HD
ATOM     30  O   UNK     1      73.445  71.017 108.559  0.00  0.00    +0.000 OA
ENDBRANCH  26  30
BRANCH  24  32
ATOM     31  H   UNK     1      69.477  69.477 105.395  0.00  0.00    +0.000 HD
ATOM     32  O   UNK     1      69.719  69.310 106.319  0.00  0.00    +0.000 OA
ENDBRANCH  24  32
BRANCH  25  34
ATOM     33  H   UNK     1      71.025  70.680 109.170  0.00  0.00    +0.000 HD
ATOM     34  O   UNK     1      70.774  70.857 108.248  0.00  0.00    +0.000 OA
ENDBRANCH  25  34
ENDBRANCH  22  28
ENDBRANCH  20  22
ENDBRANCH  13  20
ENDBRANCH   9  15
ENDBRANCH   7   9
ENDBRANCH   5   7
BRANCH   1  35
ATOM     35  C   UNK     1      73.028  59.462 101.923  0.00  0.00    +0.000 C 
BRANCH  35  36
ATOM     36  O   UNK     1      73.817  60.361 101.178  0.00  0.00    +0.000 OA
BRANCH  36  37
ATOM     37  C   UNK     1      74.185  60.058  99.886  0.00  0.00    +0.000 C 
ATOM     38  O   UNK     1      73.743  60.733  98.975  0.00  0.00    +0.000 OA
BRANCH  37  43
ATOM     39  C   UNK     1      76.194  57.071 100.265  0.00  0.00    +0.000 A 
ATOM     40  C   UNK     1      76.902  57.111  99.122  0.00  0.00    +0.000 A 
ATOM     41  C   UNK     1      76.680  58.074  98.213  0.00  0.00    +0.000 A 
ATOM     42  C   UNK     1      75.788  59.042  98.483  0.00  0.00    +0.000 A 
ATOM     43  C   UNK     1      75.089  59.060  99.632  0.00  0.00    +0.000 A 
ATOM     44  C   UNK     1      75.302  58.053 100.500  0.00  0.00    +0.000 A 
BRANCH  41  46
ATOM     45  H   UNK     1      76.677  58.052  96.295  0.00  0.00    +0.000 HD
ATOM     46  O   UNK     1      77.331  58.017  97.018  0.00  0.00    +0.000 OA
ENDBRANCH  41  46
BRANCH  40  47
ATOM     47  O   UNK     1      77.804  56.135  98.829  0.00  0.00    +0.000 OA
ATOM     48  H   UNK     1      78.401  56.052  99.593  0.00  0.00    +0.000 HD
ENDBRANCH  40  47
BRANCH  39  49
ATOM     49  O   UNK     1      76.391  56.038 101.144  0.00  0.00    +0.000 OA
BRANCH  49  50
ATOM     50  C   UNK     1      75.286  55.248 101.368  0.00  0.00    +0.000 C 
ATOM     51  O   UNK     1      75.170  54.279 100.640  0.00  0.00    +0.000 OA
BRANCH  50  54
ATOM     52  C   UNK     1      73.842  56.457 104.435  0.00  0.00    +0.000 A 
ATOM     53  C   UNK     1      74.728  56.164 103.469  0.00  0.00    +0.000 A 
ATOM     54  C   UNK     1      74.366  55.525 102.342  0.00  0.00    +0.000 A 
ATOM     55  C   UNK     1      73.072  55.176 102.212  0.00  0.00    +0.000 A 
ATOM     56  C   UNK     1      72.168  55.449 103.167  0.00  0.00    +0.000 A 
ATOM     57  C   UNK     1      72.560  56.082 104.285  0.00  0.00    +0.000 A 
BRANCH  52  58
ATOM     58  O   UNK     1      74.229  57.091 105.575  0.00  0.00    +0.000 OA
ATOM     59  H   UNK     1      75.008  56.639 105.939  0.00  0.00    +0.000 HD
ENDBRANCH  52  58
BRANCH  57  60
ATOM     60  O   UNK     1      71.651  56.381 105.252  0.00  0.00    +0.000 OA
ATOM     61  H   UNK     1      70.994  55.668 105.305  0.00  0.00    +0.000 HD
ENDBRANCH  57  60
BRANCH  56  62
ATOM     62  O   UNK     1      70.861  55.096 103.026  0.00  0.00    +0.000 OA
ATOM     63  H   UNK     1      70.695  54.892 102.091  0.00  0.00    +0.000 HD
ENDBRANCH  56  62
ENDBRANCH  50  54
ENDBRANCH  49  50
ENDBRANCH  39  49
ENDBRANCH  37  43
ENDBRANCH  36  37
ENDBRANCH  35  36
ENDBRANCH   1  35
BRANCH   4  64
ATOM     64  O   UNK     1      72.346  63.209 105.092  0.00  0.00    +0.000 OA
BRANCH  64  66
ATOM     65  O   UNK     1      70.203  63.357 105.191  0.00  0.00    +0.000 OA
ATOM     66  C   UNK     1      71.232  63.669 105.771  0.00  0.00    +0.000 C 
BRANCH  66  72
ATOM     67  C   UNK     1      70.438  65.502 107.164  0.00  0.00    +0.000 A 
ATOM     68  C   UNK     1      70.442  66.169 108.330  0.00  0.00    +0.000 A 
ATOM     69  C   UNK     1      71.153  65.687 109.362  0.00  0.00    +0.000 A 
ATOM     70  C   UNK     1      71.833  64.529 109.243  0.00  0.00    +0.000 A 
ATOM     71  C   UNK     1      71.771  63.903 108.051  0.00  0.00    +0.000 A 
ATOM     72  C   UNK     1      71.129  64.365 106.958  0.00  0.00    +0.000 A 
BRANCH  68  74
ATOM     73  H   UNK     1      69.172  67.528 107.709  0.00  0.00    +0.000 HD
ATOM     74  O   UNK     1      69.722  67.315 108.483  0.00  0.00    +0.000 OA
ENDBRANCH  68  74
BRANCH  69  76
ATOM     75  H   UNK     1      71.606  67.230 110.399  0.00  0.00    +0.000 HD
ATOM     76  O   UNK     1      71.158  66.378 110.535  0.00  0.00    +0.000 OA
ENDBRANCH  69  76
BRANCH  70  77
ATOM     77  O   UNK     1      72.568  64.072 110.314  0.00  0.00    +0.000 OA
BRANCH  77  79
ATOM     78  O   UNK     1      74.594  63.185 110.158  0.00  0.00    +0.000 OA
ATOM     79  C   UNK     1      73.943  64.208 110.281  0.00  0.00    +0.000 C 
BRANCH  79  85
ATOM     80  C   UNK     1      74.582  66.129 111.507  0.00  0.00    +0.000 A 
ATOM     81  C   UNK     1      75.119  67.357 111.579  0.00  0.00    +0.000 A 
ATOM     82  C   UNK     1      75.694  67.891 110.489  0.00  0.00    +0.000 A 
ATOM     83  C   UNK     1      75.729  67.201 109.339  0.00  0.00    +0.000 A 
ATOM     84  C   UNK     1      75.168  65.981 109.287  0.00  0.00    +0.000 A 
ATOM     85  C   UNK     1      74.572  65.424 110.359  0.00  0.00    +0.000 A 
BRANCH  83  87
ATOM     86  H   UNK     1      77.204  68.041 108.474  0.00  0.00    +0.000 HD
ATOM     87  O   UNK     1      76.300  67.770 108.242  0.00  0.00    +0.000 OA
ENDBRANCH  83  87
BRANCH  81  89
ATOM     88  H   UNK     1      75.336  67.537 113.481  0.00  0.00    +0.000 HD
ATOM     89  O   UNK     1      75.064  68.083 112.727  0.00  0.00    +0.000 OA
ENDBRANCH  81  89
BRANCH  82  91
ATOM     90  H   UNK     1      77.096  69.111 110.924  0.00  0.00    +0.000 HD
ATOM     91  O   UNK     1      76.199  69.151 110.550  0.00  0.00    +0.000 OA
ENDBRANCH  82  91
ENDBRANCH  79  85
ENDBRANCH  77  79
ENDBRANCH  70  77
ENDBRANCH  66  72
ENDBRANCH  64  66
ENDBRANCH   4  64
BRANCH   3  92
ATOM     92  O   UNK     1      71.180  61.446 103.017  0.00  0.00    +0.000 OA
BRANCH  92  94
ATOM     93  O   UNK     1      71.463  63.271 101.761  0.00  0.00    +0.000 OA
ATOM     94  C   UNK     1      70.924  62.187 101.883  0.00  0.00    +0.000 C 
BRANCH  94 100
ATOM     95  C   UNK     1      68.831  61.384 101.038  0.00  0.00    +0.000 A 
ATOM     96  C   UNK     1      68.094  60.963  99.994  0.00  0.00    +0.000 A 
ATOM     97  C   UNK     1      68.638  60.911  98.761  0.00  0.00    +0.000 A 
ATOM     98  C   UNK     1      69.930  61.240  98.562  0.00  0.00    +0.000 A 
ATOM     99  C   UNK     1      70.645  61.565  99.654  0.00  0.00    +0.000 A 
ATOM    100  C   UNK     1      70.129  61.688 100.886  0.00  0.00    +0.000 A 
BRANCH  96 102
ATOM    101  H   UNK     1      66.665  59.815 100.604  0.00  0.00    +0.000 HD
ATOM    102  O   UNK     1      66.777  60.671 100.161  0.00  0.00    +0.000 OA
ENDBRANCH  96 102
BRANCH  97 104
ATOM    103  H   UNK     1      67.056  60.106  98.050  0.00  0.00    +0.000 HD
ATOM    104  O   UNK     1      67.847  60.557  97.711  0.00  0.00    +0.000 OA
ENDBRANCH  97 104
BRANCH  98 105
ATOM    105  O   UNK     1      70.501  61.273  97.305  0.00  0.00    +0.000 OA
BRANCH 105 107
ATOM    106  O   UNK     1      69.686  59.878  95.771  0.00  0.00    +0.000 OA
ATOM    107  C   UNK     1      70.473  60.029  96.689  0.00  0.00    +0.000 C 
BRANCH 107 113
ATOM    108  C   UNK     1      72.447  58.811  96.237  0.00  0.00    +0.000 A 
ATOM    109  C   UNK     1      73.295  57.800  96.484  0.00  0.00    +0.000 A 
ATOM    110  C   UNK     1      73.047  56.968  97.509  0.00  0.00    +0.000 A 
ATOM    111  C   UNK     1      71.979  57.169  98.299  0.00  0.00    +0.000 A 
ATOM    112  C   UNK     1      71.159  58.203  98.045  0.00  0.00    +0.000 A 
ATOM    113  C   UNK     1      71.366  59.036  97.007  0.00  0.00    +0.000 A 
BRANCH 111 115
ATOM    114  H   UNK     1      71.486  55.421  98.898  0.00  0.00    +0.000 HD
ATOM    115  O   UNK     1      71.718  56.279  99.296  0.00  0.00    +0.000 OA
ENDBRANCH 111 115
BRANCH 109 117
ATOM    116  H   UNK     1      74.713  56.686  95.818  0.00  0.00    +0.000 HD
ATOM    117  O   UNK     1      74.379  57.588  95.690  0.00  0.00    +0.000 OA
ENDBRANCH 109 117
BRANCH 110 119
ATOM    118  H   UNK     1      73.394  55.227  98.209  0.00  0.00    +0.000 HD
ATOM    119  O   UNK     1      73.884  55.922  97.741  0.00  0.00    +0.000 OA
ENDBRANCH 110 119
ENDBRANCH 107 113
ENDBRANCH 105 107
ENDBRANCH  98 105
ENDBRANCH  94 100
ENDBRANCH  92  94
ENDBRANCH   3  92
BRANCH   6 120
ATOM    120  O   UNK     1      75.857  60.004 105.488  0.00  0.00    +0.000 OA
BRANCH 120 122
ATOM    121  O   UNK     1      76.981  58.257 104.660  0.00  0.00    +0.000 OA
ATOM    122  C   UNK     1      76.757  59.450 104.611  0.00  0.00    +0.000 C 
BRANCH 122 128
ATOM    123  C   UNK     1      77.017  60.702 102.589  0.00  0.00    +0.000 A 
ATOM    124  C   UNK     1      77.808  61.452 101.803  0.00  0.00    +0.000 A 
ATOM    125  C   UNK     1      79.065  61.750 102.185  0.00  0.00    +0.000 A 
ATOM    126  C   UNK     1      79.512  61.414 103.412  0.00  0.00    +0.000 A 
ATOM    127  C   UNK     1      78.673  60.693 104.171  0.00  0.00    +0.000 A 
ATOM    128  C   UNK     1      77.457  60.285 103.785  0.00  0.00    +0.000 A 
BRANCH 124 130
ATOM    129  H   UNK     1      77.929  61.362  99.883  0.00  0.00    +0.000 HD
ATOM    130  O   UNK     1      77.393  61.814 100.559  0.00  0.00    +0.000 OA
ENDBRANCH 124 130
BRANCH 125 132
ATOM    131  H   UNK     1      79.954  63.327 101.568  0.00  0.00    +0.000 HD
ATOM    132  O   UNK     1      79.872  62.396 101.304  0.00  0.00    +0.000 OA
ENDBRANCH 125 132
BRANCH 126 133
ATOM    133  O   UNK     1      80.771  61.728 103.872  0.00  0.00    +0.000 OA
BRANCH 133 135
ATOM    134  O   UNK     1      81.678  63.602 103.126  0.00  0.00    +0.000 OA
ATOM    135  C   UNK     1      80.992  63.091 103.994  0.00  0.00    +0.000 C 
BRANCH 135 141
ATOM    136  C   UNK     1      80.154  63.369 106.206  0.00  0.00    +0.000 A 
ATOM    137  C   UNK     1      79.531  64.099 107.149  0.00  0.00    +0.000 A 
ATOM    138  C   UNK     1      79.230  65.381 106.893  0.00  0.00    +0.000 A 
ATOM    139  C   UNK     1      79.566  65.930 105.715  0.00  0.00    +0.000 A 
ATOM    140  C   UNK     1      80.158  65.167 104.781  0.00  0.00    +0.000 A 
ATOM    141  C   UNK     1      80.448  63.868 104.989  0.00  0.00    +0.000 A 
BRANCH 139 143
ATOM    142  H   UNK     1      79.881  67.576 104.810  0.00  0.00    +0.000 HD
ATOM    143  O   UNK     1      79.267  67.237 105.483  0.00  0.00    +0.000 OA
ENDBRANCH 139 143
BRANCH 137 145
ATOM    144  H   UNK     1      78.267  63.291 108.348  0.00  0.00    +0.000 HD
ATOM    145  O   UNK     1      79.196  63.570 108.356  0.00  0.00    +0.000 OA
ENDBRANCH 137 145
BRANCH 138 147
ATOM    146  H   UNK     1      79.068  66.992 107.894  0.00  0.00    +0.000 HD
ATOM    147  O   UNK     1      78.626  66.128 107.854  0.00  0.00    +0.000 OA
ENDBRANCH 138 147
ENDBRANCH 135 141
ENDBRANCH 133 135
ENDBRANCH 126 133
ENDBRANCH 122 128
ENDBRANCH 120 122
ENDBRANCH   6 120
TORSDOF 56
ENDMDL
MODEL 14
REMARK VINA RESULT:      -8.2      3.157      9.792
REMARK  Name = ./3951.pdb
REMARK  56 active torsions:
REMARK  status: ('A' for Active; 'I' for Inactive)
REMARK    1  A    between atoms: O_1  and  C_2
REMARK    2  A    between atoms: C_4  and  C_10
REMARK    3  A    between atoms: C_6  and  O_9
REMARK    4  A    between atoms: C_7  and  O_8
REMARK    5  A    between atoms: C_10  and  O_12
REMARK    6  A    between atoms: O_12  and  C_13
REMARK    7  A    between atoms: C_14  and  O_15
REMARK    8  A    between atoms: C_16  and  O_78
REMARK    9  A    between atoms: C_18  and  C_20
REMARK   10  A    between atoms: C_20  and  O_22
REMARK   11  A    between atoms: O_22  and  C_23
REMARK   12  A    between atoms: C_23  and  C_24
REMARK   13  A    between atoms: O_79  and  C_85
REMARK   14  A    between atoms: O_80  and  C_82
REMARK   15  A    between atoms: O_83  and  C_84
REMARK   16  A    between atoms: C_87  and  C_89
REMARK   17  A    between atoms: C_89  and  O_90
REMARK   18  A    between atoms: O_90  and  C_96
REMARK   19  A    between atoms: O_91  and  C_93
REMARK   20  A    between atoms: O_94  and  C_95
REMARK   21  A    between atoms: C_98  and  C_100
REMARK   22  A    between atoms: C_100  and  O_101
REMARK   23  A    between atoms: O_101  and  C_102
REMARK   24  A    between atoms: O_103  and  C_109
REMARK   25  A    between atoms: O_104  and  C_106
REMARK   26  A    between atoms: O_107  and  C_108
REMARK   27  A    between atoms: C_111  and  C_113
REMARK   28  A    between atoms: C_113  and  O_114
REMARK   29  A    between atoms: O_114  and  C_120
REMARK   30  A    between atoms: O_115  and  C_117
REMARK   31  A    between atoms: O_118  and  C_119
REMARK   32  A    between atoms: C_122  and  C_124
REMARK   33  A    between atoms: C_124  and  O_125
REMARK   34  A    between atoms: O_125  and  C_126
REMARK   35  A    between atoms: O_127  and  C_133
REMARK   36  A    between atoms: O_128  and  C_130
REMARK   37  A    between atoms: O_131  and  C_132
REMARK   38  A    between atoms: C_135  and  C_137
REMARK   39  A    between atoms: C_137  and  O_138
REMARK   40  A    between atoms: O_138  and  C_144
REMARK   41  A    between atoms: O_139  and  C_141
REMARK   42  A    between atoms: O_142  and  C_143
REMARK   43  A    between atoms: C_146  and  C_148
REMARK   44  A    between atoms: C_148  and  O_149
REMARK   45  A    between atoms: O_149  and  C_150
REMARK   46  A    between atoms: O_151  and  C_157
REMARK   47  A    between atoms: O_152  and  C_154
REMARK   48  A    between atoms: O_155  and  C_156
REMARK   49  A    between atoms: C_159  and  C_161
REMARK   50  A    between atoms: C_161  and  O_162
REMARK   51  A    between atoms: O_162  and  C_168
REMARK   52  A    between atoms: O_163  and  C_165
REMARK   53  A    between atoms: O_166  and  C_167
REMARK   54  A    between atoms: C_170  and  C_172
REMARK   55  A    between atoms: C_172  and  O_173
REMARK   56  A    between atoms: O_173  and  C_174
REMARK                            x       y       z     vdW  Elec       q    Type
REMARK                         _______ _______ _______ _____ _____    ______ ____
ROOT
ATOM      1  C   UNK     1      75.999  62.382 103.539  0.00  0.00    +0.000 C 
ATOM      2  O   UNK     1      75.317  61.620 102.582  0.00  0.00    +0.000 OA
ATOM      3  C   UNK     1      75.020  62.980 104.557  0.00  0.00    +0.000 C 
ATOM      4  C   UNK     1      73.879  63.713 103.840  0.00  0.00    +0.000 C 
ATOM      5  C   UNK     1      73.204  62.693 102.920  0.00  0.00    +0.000 C 
ATOM      6  C   UNK     1      74.268  62.291 101.935  0.00  0.00    +0.000 C 
ENDROOT
BRANCH   5   7
ATOM      7  O   UNK     1      72.073  63.265 102.327  0.00  0.00    +0.000 OA
BRANCH   7   9
ATOM      8  O   UNK     1      70.446  62.445 103.576  0.00  0.00    +0.000 OA
ATOM      9  C   UNK     1      70.882  62.584 102.446  0.00  0.00    +0.000 C 
BRANCH   9  15
ATOM     10  C   UNK     1      69.131  61.287 101.518  0.00  0.00    +0.000 A 
ATOM     11  C   UNK     1      68.510  60.719 100.474  0.00  0.00    +0.000 A 
ATOM     12  C   UNK     1      69.014  60.879  99.238  0.00  0.00    +0.000 A 
ATOM     13  C   UNK     1      70.133  61.610  99.045  0.00  0.00    +0.000 A 
ATOM     14  C   UNK     1      70.719  62.174 100.118  0.00  0.00    +0.000 A 
ATOM     15  C   UNK     1      70.247  62.024 101.369  0.00  0.00    +0.000 A 
BRANCH  11  17
ATOM     16  H   UNK     1      66.761  60.093  99.932  0.00  0.00    +0.000 HD
ATOM     17  O   UNK     1      67.394  59.960 100.654  0.00  0.00    +0.000 OA
ENDBRANCH  11  17
BRANCH  12  19
ATOM     18  H   UNK     1      68.402  60.874  97.419  0.00  0.00    +0.000 HD
ATOM     19  O   UNK     1      68.371  60.290  98.194  0.00  0.00    +0.000 OA
ENDBRANCH  12  19
BRANCH  13  20
ATOM     20  O   UNK     1      70.677  61.791  97.799  0.00  0.00    +0.000 OA
BRANCH  20  22
ATOM     21  O   UNK     1      72.852  61.401  97.918  0.00  0.00    +0.000 OA
ATOM     22  C   UNK     1      71.776  61.014  97.498  0.00  0.00    +0.000 C 
BRANCH  22  28
ATOM     23  C   UNK     1      72.720  59.029  96.645  0.00  0.00    +0.000 A 
ATOM     24  C   UNK     1      72.647  57.900  95.921  0.00  0.00    +0.000 A 
ATOM     25  C   UNK     1      71.502  57.598  95.286  0.00  0.00    +0.000 A 
ATOM     26  C   UNK     1      70.442  58.418  95.379  0.00  0.00    +0.000 A 
ATOM     27  C   UNK     1      70.540  59.542  96.111  0.00  0.00    +0.000 A 
ATOM     28  C   UNK     1      71.676  59.868  96.756  0.00  0.00    +0.000 A 
BRANCH  26  30
ATOM     29  H   UNK     1      68.548  58.226  95.338  0.00  0.00    +0.000 HD
ATOM     30  O   UNK     1      69.291  58.092  94.728  0.00  0.00    +0.000 OA
ENDBRANCH  26  30
BRANCH  24  32
ATOM     31  H   UNK     1      74.527  57.537  96.064  0.00  0.00    +0.000 HD
ATOM     32  O   UNK     1      73.716  57.066  95.818  0.00  0.00    +0.000 OA
ENDBRANCH  24  32
BRANCH  25  34
ATOM     33  H   UNK     1      71.507  55.695  95.145  0.00  0.00    +0.000 HD
ATOM     34  O   UNK     1      71.424  56.458  94.550  0.00  0.00    +0.000 OA
ENDBRANCH  25  34
ENDBRANCH  22  28
ENDBRANCH  20  22
ENDBRANCH  13  20
ENDBRANCH   9  15
ENDBRANCH   7   9
ENDBRANCH   5   7
BRANCH   1  35
ATOM     35  C   UNK     1      77.000  61.431 104.203  0.00  0.00    +0.000 C 
BRANCH  35  36
ATOM     36  O   UNK     1      77.036  60.227 103.473  0.00  0.00    +0.000 OA
BRANCH  36  37
ATOM     37  C   UNK     1      77.433  59.057 104.082  0.00  0.00    +0.000 C 
ATOM     38  O   UNK     1      78.512  59.022 104.644  0.00  0.00    +0.000 OA
BRANCH  37  43
ATOM     39  C   UNK     1      74.436  57.028 104.007  0.00  0.00    +0.000 A 
ATOM     40  C   UNK     1      74.964  55.810 104.222  0.00  0.00    +0.000 A 
ATOM     41  C   UNK     1      76.293  55.650 104.331  0.00  0.00    +0.000 A 
ATOM     42  C   UNK     1      77.092  56.730 104.291  0.00  0.00    +0.000 A 
ATOM     43  C   UNK     1      76.599  57.970 104.119  0.00  0.00    +0.000 A 
ATOM     44  C   UNK     1      75.267  58.087 103.964  0.00  0.00    +0.000 A 
BRANCH  41  46
ATOM     45  H   UNK     1      76.913  54.163 105.373  0.00  0.00    +0.000 HD
ATOM     46  O   UNK     1      76.801  54.391 104.431  0.00  0.00    +0.000 OA
ENDBRANCH  41  46
BRANCH  40  47
ATOM     47  O   UNK     1      74.172  54.705 104.257  0.00  0.00    +0.000 OA
ATOM     48  H   UNK     1      74.353  54.244 105.095  0.00  0.00    +0.000 HD
ENDBRANCH  40  47
BRANCH  39  49
ATOM     49  O   UNK     1      73.083  57.153 103.829  0.00  0.00    +0.000 OA
BRANCH  49  50
ATOM     50  C   UNK     1      72.345  57.183 104.991  0.00  0.00    +0.000 C 
ATOM     51  O   UNK     1      71.580  56.250 105.158  0.00  0.00    +0.000 OA
BRANCH  50  54
ATOM     52  C   UNK     1      72.269  60.472 106.448  0.00  0.00    +0.000 A 
ATOM     53  C   UNK     1      72.182  59.465 105.565  0.00  0.00    +0.000 A 
ATOM     54  C   UNK     1      72.452  58.192 105.908  0.00  0.00    +0.000 A 
ATOM     55  C   UNK     1      72.822  57.956 107.181  0.00  0.00    +0.000 A 
ATOM     56  C   UNK     1      72.925  58.946 108.082  0.00  0.00    +0.000 A 
ATOM     57  C   UNK     1      72.657  60.209 107.708  0.00  0.00    +0.000 A 
BRANCH  52  58
ATOM     58  O   UNK     1      72.007  61.755 106.079  0.00  0.00    +0.000 OA
ATOM     59  H   UNK     1      71.241  62.079 106.582  0.00  0.00    +0.000 HD
ENDBRANCH  52  58
BRANCH  57  60
ATOM     60  O   UNK     1      72.740  61.219 108.615  0.00  0.00    +0.000 OA
ATOM     61  H   UNK     1      71.958  61.787 108.535  0.00  0.00    +0.000 HD
ENDBRANCH  57  60
BRANCH  56  62
ATOM     62  O   UNK     1      73.297  58.698 109.368  0.00  0.00    +0.000 OA
ATOM     63  H   UNK     1      73.494  59.545 109.801  0.00  0.00    +0.000 HD
ENDBRANCH  56  62
ENDBRANCH  50  54
ENDBRANCH  49  50
ENDBRANCH  39  49
ENDBRANCH  37  43
ENDBRANCH  36  37
ENDBRANCH  35  36
ENDBRANCH   1  35
BRANCH   4  64
ATOM     64  O   UNK     1      72.925  64.201 104.721  0.00  0.00    +0.000 OA
BRANCH  64  66
ATOM     65  O   UNK     1      73.667  66.220 104.690  0.00  0.00    +0.000 OA
ATOM     66  C   UNK     1      72.906  65.467 105.279  0.00  0.00    +0.000 C 
BRANCH  66  72
ATOM     67  C   UNK     1      71.382  67.065 106.305  0.00  0.00    +0.000 A 
ATOM     68  C   UNK     1      70.750  67.546 107.388  0.00  0.00    +0.000 A 
ATOM     69  C   UNK     1      70.884  66.912 108.565  0.00  0.00    +0.000 A 
ATOM     70  C   UNK     1      71.620  65.787 108.655  0.00  0.00    +0.000 A 
ATOM     71  C   UNK     1      72.212  65.350 107.525  0.00  0.00    +0.000 A 
ATOM     72  C   UNK     1      72.169  65.973 106.329  0.00  0.00    +0.000 A 
BRANCH  68  74
ATOM     73  H   UNK     1      69.067  68.516 107.657  0.00  0.00    +0.000 HD
ATOM     74  O   UNK     1      69.964  68.655 107.305  0.00  0.00    +0.000 OA
ENDBRANCH  68  74
BRANCH  69  76
ATOM     75  H   UNK     1      70.909  67.783 110.268  0.00  0.00    +0.000 HD
ATOM     76  O   UNK     1      70.248  67.417 109.658  0.00  0.00    +0.000 OA
ENDBRANCH  69  76
BRANCH  70  77
ATOM     77  O   UNK     1      71.754  65.172 109.880  0.00  0.00    +0.000 OA
BRANCH  77  79
ATOM     78  O   UNK     1      73.222  66.706 110.518  0.00  0.00    +0.000 OA
ATOM     79  C   UNK     1      72.753  65.602 110.732  0.00  0.00    +0.000 C 
BRANCH  79  85
ATOM     80  C   UNK     1      72.694  65.026 113.027  0.00  0.00    +0.000 A 
ATOM     81  C   UNK     1      73.178  64.363 114.089  0.00  0.00    +0.000 A 
ATOM     82  C   UNK     1      74.172  63.477 113.918  0.00  0.00    +0.000 A 
ATOM     83  C   UNK     1      74.676  63.259 112.693  0.00  0.00    +0.000 A 
ATOM     84  C   UNK     1      74.188  63.948 111.649  0.00  0.00    +0.000 A 
ATOM     85  C   UNK     1      73.201  64.853 111.791  0.00  0.00    +0.000 A 
BRANCH  83  87
ATOM     86  H   UNK     1      75.342  61.473 112.672  0.00  0.00    +0.000 HD
ATOM     87  O   UNK     1      75.696  62.370 112.546  0.00  0.00    +0.000 OA
ENDBRANCH  83  87
BRANCH  81  89
ATOM     88  H   UNK     1      73.380  65.028 115.882  0.00  0.00    +0.000 HD
ATOM     89  O   UNK     1      72.701  64.596 115.341  0.00  0.00    +0.000 OA
ENDBRANCH  81  89
BRANCH  82  91
ATOM     90  H   UNK     1      74.345  61.929 115.020  0.00  0.00    +0.000 HD
ATOM     91  O   UNK     1      74.692  62.837 114.998  0.00  0.00    +0.000 OA
ENDBRANCH  82  91
ENDBRANCH  79  85
ENDBRANCH  77  79
ENDBRANCH  70  77
ENDBRANCH  66  72
ENDBRANCH  64  66
ENDBRANCH   4  64
BRANCH   3  92
ATOM     92  O   UNK     1      75.733  63.710 105.526  0.00  0.00    +0.000 OA
BRANCH  92  94
ATOM     93  O   UNK     1      74.608  62.883 107.269  0.00  0.00    +0.000 OA
ATOM     94  C   UNK     1      75.651  63.353 106.856  0.00  0.00    +0.000 C 
BRANCH  94 100
ATOM     95  C   UNK     1      76.763  63.059 108.957  0.00  0.00    +0.000 A 
ATOM     96  C   UNK     1      77.892  63.140 109.685  0.00  0.00    +0.000 A 
ATOM     97  C   UNK     1      79.036  63.567 109.114  0.00  0.00    +0.000 A 
ATOM     98  C   UNK     1      79.059  63.955 107.823  0.00  0.00    +0.000 A 
ATOM     99  C   UNK     1      77.885  63.940 107.167  0.00  0.00    +0.000 A 
ATOM    100  C   UNK     1      76.739  63.467 107.679  0.00  0.00    +0.000 A 
BRANCH  96 102
ATOM    101  H   UNK     1      77.958  63.460 111.590  0.00  0.00    +0.000 HD
ATOM    102  O   UNK     1      77.903  62.710 110.976  0.00  0.00    +0.000 OA
ENDBRANCH  96 102
BRANCH  97 104
ATOM    103  H   UNK     1      80.158  62.807 110.462  0.00  0.00    +0.000 HD
ATOM    104  O   UNK     1      80.178  63.564 109.853  0.00  0.00    +0.000 OA
ENDBRANCH  97 104
BRANCH  98 105
ATOM    105  O   UNK     1      80.224  64.324 107.182  0.00  0.00    +0.000 OA
BRANCH 105 107
ATOM    106  O   UNK     1      80.226  64.015 104.975  0.00  0.00    +0.000 OA
ATOM    107  C   UNK     1      80.477  63.535 106.068  0.00  0.00    +0.000 C 
BRANCH 107 113
ATOM    108  C   UNK     1      81.929  62.039 107.179  0.00  0.00    +0.000 A 
ATOM    109  C   UNK     1      82.599  60.877 107.254  0.00  0.00    +0.000 A 
ATOM    110  C   UNK     1      82.453  59.969 106.276  0.00  0.00    +0.000 A 
ATOM    111  C   UNK     1      81.618  60.208 105.250  0.00  0.00    +0.000 A 
ATOM    112  C   UNK     1      80.942  61.370 105.211  0.00  0.00    +0.000 A 
ATOM    113  C   UNK     1      81.091  62.311 106.162  0.00  0.00    +0.000 A 
BRANCH 111 115
ATOM    114  H   UNK     1      80.704  59.448 103.752  0.00  0.00    +0.000 HD
ATOM    115  O   UNK     1      81.532  59.297 104.242  0.00  0.00    +0.000 OA
ENDBRANCH 111 115
BRANCH 109 117
ATOM    116  H   UNK     1      84.263  60.222 107.957  0.00  0.00    +0.000 HD
ATOM    117  O   UNK     1      83.446  60.625 108.288  0.00  0.00    +0.000 OA
ENDBRANCH 109 117
BRANCH 110 119
ATOM    118  H   UNK     1      83.068  58.348 105.479  0.00  0.00    +0.000 HD
ATOM    119  O   UNK     1      83.155  58.806 106.330  0.00  0.00    +0.000 OA
ENDBRANCH 110 119
ENDBRANCH 107 113
ENDBRANCH 105 107
ENDBRANCH  98 105
ENDBRANCH  94 100
ENDBRANCH  92  94
ENDBRANCH   3  92
BRANCH   6 120
ATOM    120  O   UNK     1      73.789  61.433 100.934  0.00  0.00    +0.000 OA
BRANCH 120 122
ATOM    121  O   UNK     1      72.795  59.769 102.049  0.00  0.00    +0.000 OA
ATOM    122  C   UNK     1      73.530  60.100 101.140  0.00  0.00    +0.000 C 
BRANCH 122 128
ATOM    123  C   UNK     1      75.225  59.482  99.570  0.00  0.00    +0.000 A 
ATOM    124  C   UNK     1      75.772  58.531  98.794  0.00  0.00    +0.000 A 
ATOM    125  C   UNK     1      75.268  57.281  98.788  0.00  0.00    +0.000 A 
ATOM    126  C   UNK     1      74.293  56.926  99.648  0.00  0.00    +0.000 A 
ATOM    127  C   UNK     1      73.802  57.904 100.424  0.00  0.00    +0.000 A 
ATOM    128  C   UNK     1      74.202  59.182 100.383  0.00  0.00    +0.000 A 
BRANCH 124 130
ATOM    129  H   UNK     1      77.261  59.619  98.237  0.00  0.00    +0.000 HD
ATOM    130  O   UNK     1      76.760  58.848  97.914  0.00  0.00    +0.000 OA
ENDBRANCH 124 130
BRANCH 125 132
ATOM    131  H   UNK     1      76.322  56.857  97.250  0.00  0.00    +0.000 HD
ATOM    132  O   UNK     1      75.765  56.389  97.893  0.00  0.00    +0.000 OA
ENDBRANCH 125 132
BRANCH 126 133
ATOM    133  O   UNK     1      73.768  55.655  99.716  0.00  0.00    +0.000 OA
BRANCH 133 135
ATOM    134  O   UNK     1      72.830  55.006  97.820  0.00  0.00    +0.000 OA
ATOM    135  C   UNK     1      72.641  55.479  98.928  0.00  0.00    +0.000 C 
BRANCH 135 141
ATOM    136  C   UNK     1      70.868  55.276 100.505  0.00  0.00    +0.000 A 
ATOM    137  C   UNK     1      69.587  55.468 100.872  0.00  0.00    +0.000 A 
ATOM    138  C   UNK     1      68.782  56.202 100.088  0.00  0.00    +0.000 A 
ATOM    139  C   UNK     1      69.260  56.754  98.961  0.00  0.00    +0.000 A 
ATOM    140  C   UNK     1      70.534  56.518  98.604  0.00  0.00    +0.000 A 
ATOM    141  C   UNK     1      71.363  55.761  99.348  0.00  0.00    +0.000 A 
BRANCH 139 143
ATOM    142  H   UNK     1      67.631  56.993  98.004  0.00  0.00    +0.000 HD
ATOM    143  O   UNK     1      68.432  57.510  98.190  0.00  0.00    +0.000 OA
ENDBRANCH 139 143
BRANCH 137 145
ATOM    144  H   UNK     1      68.158  55.194 102.125  0.00  0.00    +0.000 HD
ATOM    145  O   UNK     1      69.085  54.932 102.016  0.00  0.00    +0.000 OA
ENDBRANCH 137 145
BRANCH 138 147
ATOM    146  H   UNK     1      66.934  55.752 100.046  0.00  0.00    +0.000 HD
ATOM    147  O   UNK     1      67.497  56.419 100.470  0.00  0.00    +0.000 OA
ENDBRANCH 138 147
ENDBRANCH 135 141
ENDBRANCH 133 135
ENDBRANCH 126 133
ENDBRANCH 122 128
ENDBRANCH 120 122
ENDBRANCH   6 120
TORSDOF 56
ENDMDL
MODEL 15
REMARK VINA RESULT:      -8.2      3.378     10.023
REMARK  Name = ./3951.pdb
REMARK  56 active torsions:
REMARK  status: ('A' for Active; 'I' for Inactive)
REMARK    1  A    between atoms: O_1  and  C_2
REMARK    2  A    between atoms: C_4  and  C_10
REMARK    3  A    between atoms: C_6  and  O_9
REMARK    4  A    between atoms: C_7  and  O_8
REMARK    5  A    between atoms: C_10  and  O_12
REMARK    6  A    between atoms: O_12  and  C_13
REMARK    7  A    between atoms: C_14  and  O_15
REMARK    8  A    between atoms: C_16  and  O_78
REMARK    9  A    between atoms: C_18  and  C_20
REMARK   10  A    between atoms: C_20  and  O_22
REMARK   11  A    between atoms: O_22  and  C_23
REMARK   12  A    between atoms: C_23  and  C_24
REMARK   13  A    between atoms: O_79  and  C_85
REMARK   14  A    between atoms: O_80  and  C_82
REMARK   15  A    between atoms: O_83  and  C_84
REMARK   16  A    between atoms: C_87  and  C_89
REMARK   17  A    between atoms: C_89  and  O_90
REMARK   18  A    between atoms: O_90  and  C_96
REMARK   19  A    between atoms: O_91  and  C_93
REMARK   20  A    between atoms: O_94  and  C_95
REMARK   21  A    between atoms: C_98  and  C_100
REMARK   22  A    between atoms: C_100  and  O_101
REMARK   23  A    between atoms: O_101  and  C_102
REMARK   24  A    between atoms: O_103  and  C_109
REMARK   25  A    between atoms: O_104  and  C_106
REMARK   26  A    between atoms: O_107  and  C_108
REMARK   27  A    between atoms: C_111  and  C_113
REMARK   28  A    between atoms: C_113  and  O_114
REMARK   29  A    between atoms: O_114  and  C_120
REMARK   30  A    between atoms: O_115  and  C_117
REMARK   31  A    between atoms: O_118  and  C_119
REMARK   32  A    between atoms: C_122  and  C_124
REMARK   33  A    between atoms: C_124  and  O_125
REMARK   34  A    between atoms: O_125  and  C_126
REMARK   35  A    between atoms: O_127  and  C_133
REMARK   36  A    between atoms: O_128  and  C_130
REMARK   37  A    between atoms: O_131  and  C_132
REMARK   38  A    between atoms: C_135  and  C_137
REMARK   39  A    between atoms: C_137  and  O_138
REMARK   40  A    between atoms: O_138  and  C_144
REMARK   41  A    between atoms: O_139  and  C_141
REMARK   42  A    between atoms: O_142  and  C_143
REMARK   43  A    between atoms: C_146  and  C_148
REMARK   44  A    between atoms: C_148  and  O_149
REMARK   45  A    between atoms: O_149  and  C_150
REMARK   46  A    between atoms: O_151  and  C_157
REMARK   47  A    between atoms: O_152  and  C_154
REMARK   48  A    between atoms: O_155  and  C_156
REMARK   49  A    between atoms: C_159  and  C_161
REMARK   50  A    between atoms: C_161  and  O_162
REMARK   51  A    between atoms: O_162  and  C_168
REMARK   52  A    between atoms: O_163  and  C_165
REMARK   53  A    between atoms: O_166  and  C_167
REMARK   54  A    between atoms: C_170  and  C_172
REMARK   55  A    between atoms: C_172  and  O_173
REMARK   56  A    between atoms: O_173  and  C_174
REMARK                            x       y       z     vdW  Elec       q    Type
REMARK                         _______ _______ _______ _____ _____    ______ ____
ROOT
ATOM      1  C   UNK     1      77.030  66.601 106.228  0.00  0.00    +0.000 C 
ATOM      2  O   UNK     1      77.412  65.329 106.669  0.00  0.00    +0.000 OA
ATOM      3  C   UNK     1      77.708  66.942 104.894  0.00  0.00    +0.000 C 
ATOM      4  C   UNK     1      79.222  66.717 104.988  0.00  0.00    +0.000 C 
ATOM      5  C   UNK     1      79.431  65.253 105.386  0.00  0.00    +0.000 C 
ATOM      6  C   UNK     1      78.798  65.125 106.745  0.00  0.00    +0.000 C 
ENDROOT
BRANCH   5   7
ATOM      7  O   UNK     1      80.796  64.948 105.368  0.00  0.00    +0.000 OA
BRANCH   7   9
ATOM      8  O   UNK     1      81.507  64.219 103.407  0.00  0.00    +0.000 OA
ATOM      9  C   UNK     1      81.204  63.918 104.548  0.00  0.00    +0.000 C 
BRANCH   9  15
ATOM     10  C   UNK     1      81.810  62.238 106.102  0.00  0.00    +0.000 A 
ATOM     11  C   UNK     1      81.834  60.959 106.507  0.00  0.00    +0.000 A 
ATOM     12  C   UNK     1      81.246  60.015 105.751  0.00  0.00    +0.000 A 
ATOM     13  C   UNK     1      80.630  60.348 104.597  0.00  0.00    +0.000 A 
ATOM     14  C   UNK     1      80.617  61.644 104.233  0.00  0.00    +0.000 A 
ATOM     15  C   UNK     1      81.205  62.612 104.960  0.00  0.00    +0.000 A 
BRANCH  11  17
ATOM     16  H   UNK     1      83.298  60.134 107.467  0.00  0.00    +0.000 HD
ATOM     17  O   UNK     1      82.471  60.603 107.657  0.00  0.00    +0.000 OA
ENDBRANCH  11  17
BRANCH  12  19
ATOM     18  H   UNK     1      80.564  58.564 106.807  0.00  0.00    +0.000 HD
ATOM     19  O   UNK     1      81.287  58.724 106.179  0.00  0.00    +0.000 OA
ENDBRANCH  12  19
BRANCH  13  20
ATOM     20  O   UNK     1      80.023  59.411 103.800  0.00  0.00    +0.000 OA
BRANCH  20  22
ATOM     21  O   UNK     1      78.501  58.266 104.924  0.00  0.00    +0.000 OA
ATOM     22  C   UNK     1      78.705  59.130 104.090  0.00  0.00    +0.000 C 
BRANCH  22  28
ATOM     23  C   UNK     1      77.201  59.347 102.287  0.00  0.00    +0.000 A 
ATOM     24  C   UNK     1      76.188  59.968 101.660  0.00  0.00    +0.000 A 
ATOM     25  C   UNK     1      75.626  61.049 102.226  0.00  0.00    +0.000 A 
ATOM     26  C   UNK     1      76.075  61.502 103.409  0.00  0.00    +0.000 A 
ATOM     27  C   UNK     1      77.089  60.863 104.016  0.00  0.00    +0.000 A 
ATOM     28  C   UNK     1      77.670  59.777 103.472  0.00  0.00    +0.000 A 
BRANCH  26  30
ATOM     29  H   UNK     1      76.116  63.340 103.905  0.00  0.00    +0.000 HD
ATOM     30  O   UNK     1      75.491  62.599 103.964  0.00  0.00    +0.000 OA
ENDBRANCH  26  30
BRANCH  24  32
ATOM     31  H   UNK     1      76.332  59.797  99.752  0.00  0.00    +0.000 HD
ATOM     32  O   UNK     1      75.730  59.519 100.461  0.00  0.00    +0.000 OA
ENDBRANCH  24  32
BRANCH  25  34
ATOM     33  H   UNK     1      74.929  62.524 101.237  0.00  0.00    +0.000 HD
ATOM     34  O   UNK     1      74.603  61.681 101.593  0.00  0.00    +0.000 OA
ENDBRANCH  25  34
ENDBRANCH  22  28
ENDBRANCH  20  22
ENDBRANCH  13  20
ENDBRANCH   9  15
ENDBRANCH   7   9
ENDBRANCH   5   7
BRANCH   1  35
ATOM     35  C   UNK     1      75.504  66.565 106.097  0.00  0.00    +0.000 C 
BRANCH  35  36
ATOM     36  O   UNK     1      74.943  67.379 107.101  0.00  0.00    +0.000 OA
BRANCH  36  37
ATOM     37  C   UNK     1      75.030  67.010 108.425  0.00  0.00    +0.000 C 
ATOM     38  O   UNK     1      76.032  67.301 109.052  0.00  0.00    +0.000 OA
BRANCH  37  43
ATOM     39  C   UNK     1      72.139  64.909 109.003  0.00  0.00    +0.000 A 
ATOM     40  C   UNK     1      71.891  65.192 110.295  0.00  0.00    +0.000 A 
ATOM     41  C   UNK     1      72.698  66.017 110.982  0.00  0.00    +0.000 A 
ATOM     42  C   UNK     1      73.722  66.614 110.350  0.00  0.00    +0.000 A 
ATOM     43  C   UNK     1      73.980  66.389 109.048  0.00  0.00    +0.000 A 
ATOM     44  C   UNK     1      73.180  65.519 108.403  0.00  0.00    +0.000 A 
BRANCH  41  46
ATOM     45  H   UNK     1      72.493  67.143 112.522  0.00  0.00    +0.000 HD
ATOM     46  O   UNK     1      72.485  66.189 112.316  0.00  0.00    +0.000 OA
ENDBRANCH  41  46
BRANCH  40  47
ATOM     47  O   UNK     1      70.863  64.591 110.953  0.00  0.00    +0.000 OA
ATOM     48  H   UNK     1      70.035  64.913 110.555  0.00  0.00    +0.000 HD
ENDBRANCH  40  47
BRANCH  39  49
ATOM     49  O   UNK     1      71.341  64.010 108.345  0.00  0.00    +0.000 OA
BRANCH  49  50
ATOM     50  C   UNK     1      71.009  64.364 107.057  0.00  0.00    +0.000 C 
ATOM     51  O   UNK     1      70.459  65.443 106.928  0.00  0.00    +0.000 OA
BRANCH  50  54
ATOM     52  C   UNK     1      72.225  63.263 103.854  0.00  0.00    +0.000 A 
ATOM     53  C   UNK     1      71.948  64.033 104.919  0.00  0.00    +0.000 A 
ATOM     54  C   UNK     1      71.269  63.561 105.980  0.00  0.00    +0.000 A 
ATOM     55  C   UNK     1      70.867  62.277 105.941  0.00  0.00    +0.000 A 
ATOM     56  C   UNK     1      71.124  61.488 104.885  0.00  0.00    +0.000 A 
ATOM     57  C   UNK     1      71.797  61.989 103.835  0.00  0.00    +0.000 A 
BRANCH  52  58
ATOM     58  O   UNK     1      72.900  63.762 102.783  0.00  0.00    +0.000 OA
ATOM     59  H   UNK     1      72.452  64.567 102.475  0.00  0.00    +0.000 HD
ENDBRANCH  52  58
BRANCH  57  60
ATOM     60  O   UNK     1      72.079  61.196 102.768  0.00  0.00    +0.000 OA
ATOM     61  H   UNK     1      71.987  61.712 101.952  0.00  0.00    +0.000 HD
ENDBRANCH  57  60
BRANCH  56  62
ATOM     62  O   UNK     1      70.716  60.190 104.855  0.00  0.00    +0.000 OA
ATOM     63  H   UNK     1      69.747  60.172 104.790  0.00  0.00    +0.000 HD
ENDBRANCH  56  62
ENDBRANCH  50  54
ENDBRANCH  49  50
ENDBRANCH  39  49
ENDBRANCH  37  43
ENDBRANCH  36  37
ENDBRANCH  35  36
ENDBRANCH   1  35
BRANCH   4  64
ATOM     64  O   UNK     1      79.867  66.935 103.779  0.00  0.00    +0.000 OA
BRANCH  64  66
ATOM     65  O   UNK     1      79.470  68.059 101.990  0.00  0.00    +0.000 OA
ATOM     66  C   UNK     1      79.267  66.984 102.535  0.00  0.00    +0.000 C 
BRANCH  66  72
ATOM     67  C   UNK     1      77.229  65.759 102.007  0.00  0.00    +0.000 A 
ATOM     68  C   UNK     1      76.599  64.765 101.361  0.00  0.00    +0.000 A 
ATOM     69  C   UNK     1      77.286  64.000 100.497  0.00  0.00    +0.000 A 
ATOM     70  C   UNK     1      78.590  64.244 100.257  0.00  0.00    +0.000 A 
ATOM     71  C   UNK     1      79.155  65.269 100.926  0.00  0.00    +0.000 A 
ATOM     72  C   UNK     1      78.538  66.033 101.851  0.00  0.00    +0.000 A 
BRANCH  68  74
ATOM     73  H   UNK     1      74.816  65.268 102.006  0.00  0.00    +0.000 HD
ATOM     74  O   UNK     1      75.270  64.534 101.556  0.00  0.00    +0.000 OA
ENDBRANCH  68  74
BRANCH  69  76
ATOM     75  H   UNK     1      75.684  63.077 100.009  0.00  0.00    +0.000 HD
ATOM     76  O   UNK     1      76.639  62.988  99.857  0.00  0.00    +0.000 OA
ENDBRANCH  69  76
BRANCH  70  77
ATOM     77  O   UNK     1      79.272  63.429  99.381  0.00  0.00    +0.000 OA
BRANCH  77  79
ATOM     78  O   UNK     1      81.479  63.252  99.271  0.00  0.00    +0.000 OA
ATOM     79  C   UNK     1      80.491  63.855  98.890  0.00  0.00    +0.000 C 
BRANCH  79  85
ATOM     80  C   UNK     1      79.787  64.995  96.939  0.00  0.00    +0.000 A 
ATOM     81  C   UNK     1      79.944  65.951  96.010  0.00  0.00    +0.000 A 
ATOM     82  C   UNK     1      80.930  66.852  96.151  0.00  0.00    +0.000 A 
ATOM     83  C   UNK     1      81.750  66.793  97.211  0.00  0.00    +0.000 A 
ATOM     84  C   UNK     1      81.584  65.816  98.118  0.00  0.00    +0.000 A 
ATOM     85  C   UNK     1      80.613  64.890  97.998  0.00  0.00    +0.000 A 
BRANCH  83  87
ATOM     86  H   UNK     1      82.981  68.022  96.433  0.00  0.00    +0.000 HD
ATOM     87  O   UNK     1      82.754  67.705  97.323  0.00  0.00    +0.000 OA
ENDBRANCH  83  87
BRANCH  81  89
ATOM     88  H   UNK     1      79.193  66.884  94.506  0.00  0.00    +0.000 HD
ATOM     89  O   UNK     1      79.143  66.005  94.914  0.00  0.00    +0.000 OA
ENDBRANCH  81  89
BRANCH  82  91
ATOM     90  H   UNK     1      81.341  68.638  95.618  0.00  0.00    +0.000 HD
ATOM     91  O   UNK     1      81.117  67.794  95.189  0.00  0.00    +0.000 OA
ENDBRANCH  82  91
ENDBRANCH  79  85
ENDBRANCH  77  79
ENDBRANCH  70  77
ENDBRANCH  66  72
ENDBRANCH  64  66
ENDBRANCH   4  64
BRANCH   3  92
ATOM     92  O   UNK     1      77.280  68.208 104.456  0.00  0.00    +0.000 OA
BRANCH  92  94
ATOM     93  O   UNK     1      78.538  70.043 104.260  0.00  0.00    +0.000 OA
ATOM     94  C   UNK     1      77.849  69.349 104.983  0.00  0.00    +0.000 C 
BRANCH  94 100
ATOM     95  C   UNK     1      78.507  69.704 107.259  0.00  0.00    +0.000 A 
ATOM     96  C   UNK     1      78.203  70.154 108.490  0.00  0.00    +0.000 A 
ATOM     97  C   UNK     1      76.995  70.702 108.730  0.00  0.00    +0.000 A 
ATOM     98  C   UNK     1      76.063  70.770 107.758  0.00  0.00    +0.000 A 
ATOM     99  C   UNK     1      76.386  70.223 106.573  0.00  0.00    +0.000 A 
ATOM    100  C   UNK     1      77.595  69.724 106.275  0.00  0.00    +0.000 A 
BRANCH  96 102
ATOM    101  H   UNK     1      79.910  69.605 109.212  0.00  0.00    +0.000 HD
ATOM    102  O   UNK     1      79.142  70.139 109.473  0.00  0.00    +0.000 OA
ENDBRANCH  96 102
BRANCH  97 104
ATOM    103  H   UNK     1      77.267  70.735 110.622  0.00  0.00    +0.000 HD
ATOM    104  O   UNK     1      76.744  71.221 109.963  0.00  0.00    +0.000 OA
ENDBRANCH  97 104
BRANCH  98 105
ATOM    105  O   UNK     1      74.844  71.392 107.943  0.00  0.00    +0.000 OA
BRANCH 105 107
ATOM    106  O   UNK     1      74.132  70.069 109.588  0.00  0.00    +0.000 OA
ATOM    107  C   UNK     1      73.899  70.531 108.484  0.00  0.00    +0.000 C 
BRANCH 107 113
ATOM    108  C   UNK     1      72.153  71.196 107.038  0.00  0.00    +0.000 A 
ATOM    109  C   UNK     1      70.943  71.016 106.484  0.00  0.00    +0.000 A 
ATOM    110  C   UNK     1      70.236  69.915 106.790  0.00  0.00    +0.000 A 
ATOM    111  C   UNK     1      70.752  68.988 107.615  0.00  0.00    +0.000 A 
ATOM    112  C   UNK     1      71.976  69.181 108.137  0.00  0.00    +0.000 A 
ATOM    113  C   UNK     1      72.695  70.289 107.872  0.00  0.00    +0.000 A 
BRANCH 111 115
ATOM    114  H   UNK     1      70.478  67.099 107.719  0.00  0.00    +0.000 HD
ATOM    115  O   UNK     1      69.993  67.910 107.955  0.00  0.00    +0.000 OA
ENDBRANCH 111 115
BRANCH 109 117
ATOM    116  H   UNK     1      69.469  71.768 105.507  0.00  0.00    +0.000 HD
ATOM    117  O   UNK     1      70.412  71.947 105.648  0.00  0.00    +0.000 OA
ENDBRANCH 109 117
BRANCH 110 119
ATOM    118  H   UNK     1      69.007  68.963 105.685  0.00  0.00    +0.000 HD
ATOM    119  O   UNK     1      68.997  69.745 106.259  0.00  0.00    +0.000 OA
ENDBRANCH 110 119
ENDBRANCH 107 113
ENDBRANCH 105 107
ENDBRANCH  98 105
ENDBRANCH  94 100
ENDBRANCH  92  94
ENDBRANCH   3  92
BRANCH   6 120
ATOM    120  O   UNK     1      78.995  63.860 107.320  0.00  0.00    +0.000 OA
BRANCH 120 122
ATOM    121  O   UNK     1      80.383  63.807 109.072  0.00  0.00    +0.000 OA
ATOM    122  C   UNK     1      79.250  63.668 108.656  0.00  0.00    +0.000 C 
BRANCH 122 128
ATOM    123  C   UNK     1      78.417  62.673 110.666  0.00  0.00    +0.000 A 
ATOM    124  C   UNK     1      77.371  62.173 111.345  0.00  0.00    +0.000 A 
ATOM    125  C   UNK     1      76.140  62.169 110.795  0.00  0.00    +0.000 A 
ATOM    126  C   UNK     1      75.908  62.776 109.615  0.00  0.00    +0.000 A 
ATOM    127  C   UNK     1      76.981  63.286 108.990  0.00  0.00    +0.000 A 
ATOM    128  C   UNK     1      78.236  63.215 109.453  0.00  0.00    +0.000 A 
BRANCH 124 130
ATOM    129  H   UNK     1      78.072  60.735 112.417  0.00  0.00    +0.000 HD
ATOM    130  O   UNK     1      77.562  61.556 112.542  0.00  0.00    +0.000 OA
ENDBRANCH 124 130
BRANCH 125 132
ATOM    131  H   UNK     1      74.573  61.074 110.821  0.00  0.00    +0.000 HD
ATOM    132  O   UNK     1      75.139  61.536 111.460  0.00  0.00    +0.000 OA
ENDBRANCH 125 132
BRANCH 126 133
ATOM    133  O   UNK     1      74.665  62.838 109.026  0.00  0.00    +0.000 OA
BRANCH 133 135
ATOM    134  O   UNK     1      74.978  63.044 106.845  0.00  0.00    +0.000 OA
ATOM    135  C   UNK     1      74.632  62.301 107.748  0.00  0.00    +0.000 C 
BRANCH 135 141
ATOM    136  C   UNK     1      75.134  60.143 106.874  0.00  0.00    +0.000 A 
ATOM    137  C   UNK     1      74.765  58.900 106.516  0.00  0.00    +0.000 A 
ATOM    138  C   UNK     1      73.525  58.475 106.803  0.00  0.00    +0.000 A 
ATOM    139  C   UNK     1      72.672  59.279 107.458  0.00  0.00    +0.000 A 
ATOM    140  C   UNK     1      73.058  60.527 107.774  0.00  0.00    +0.000 A 
ATOM    141  C   UNK     1      74.284  61.000 107.474  0.00  0.00    +0.000 A 
BRANCH 139 143
ATOM    142  H   UNK     1      71.515  57.995 108.257  0.00  0.00    +0.000 HD
ATOM    143  O   UNK     1      71.426  58.822 107.756  0.00  0.00    +0.000 OA
ENDBRANCH 139 143
BRANCH 137 145
ATOM    144  H   UNK     1      76.467  58.503 105.720  0.00  0.00    +0.000 HD
ATOM    145  O   UNK     1      75.616  58.062 105.866  0.00  0.00    +0.000 OA
ENDBRANCH 137 145
BRANCH 138 147
ATOM    146  H   UNK     1      73.551  56.597 107.109  0.00  0.00    +0.000 HD
ATOM    147  O   UNK     1      73.159  57.211 106.467  0.00  0.00    +0.000 OA
ENDBRANCH 138 147
ENDBRANCH 135 141
ENDBRANCH 133 135
ENDBRANCH 126 133
ENDBRANCH 122 128
ENDBRANCH 120 122
ENDBRANCH   6 120
TORSDOF 56
ENDMDL
MODEL 16
REMARK VINA RESULT:      -8.2      2.315     10.040
REMARK  Name = ./3951.pdb
REMARK  56 active torsions:
REMARK  status: ('A' for Active; 'I' for Inactive)
REMARK    1  A    between atoms: O_1  and  C_2
REMARK    2  A    between atoms: C_4  and  C_10
REMARK    3  A    between atoms: C_6  and  O_9
REMARK    4  A    between atoms: C_7  and  O_8
REMARK    5  A    between atoms: C_10  and  O_12
REMARK    6  A    between atoms: O_12  and  C_13
REMARK    7  A    between atoms: C_14  and  O_15
REMARK    8  A    between atoms: C_16  and  O_78
REMARK    9  A    between atoms: C_18  and  C_20
REMARK   10  A    between atoms: C_20  and  O_22
REMARK   11  A    between atoms: O_22  and  C_23
REMARK   12  A    between atoms: C_23  and  C_24
REMARK   13  A    between atoms: O_79  and  C_85
REMARK   14  A    between atoms: O_80  and  C_82
REMARK   15  A    between atoms: O_83  and  C_84
REMARK   16  A    between atoms: C_87  and  C_89
REMARK   17  A    between atoms: C_89  and  O_90
REMARK   18  A    between atoms: O_90  and  C_96
REMARK   19  A    between atoms: O_91  and  C_93
REMARK   20  A    between atoms: O_94  and  C_95
REMARK   21  A    between atoms: C_98  and  C_100
REMARK   22  A    between atoms: C_100  and  O_101
REMARK   23  A    between atoms: O_101  and  C_102
REMARK   24  A    between atoms: O_103  and  C_109
REMARK   25  A    between atoms: O_104  and  C_106
REMARK   26  A    between atoms: O_107  and  C_108
REMARK   27  A    between atoms: C_111  and  C_113
REMARK   28  A    between atoms: C_113  and  O_114
REMARK   29  A    between atoms: O_114  and  C_120
REMARK   30  A    between atoms: O_115  and  C_117
REMARK   31  A    between atoms: O_118  and  C_119
REMARK   32  A    between atoms: C_122  and  C_124
REMARK   33  A    between atoms: C_124  and  O_125
REMARK   34  A    between atoms: O_125  and  C_126
REMARK   35  A    between atoms: O_127  and  C_133
REMARK   36  A    between atoms: O_128  and  C_130
REMARK   37  A    between atoms: O_131  and  C_132
REMARK   38  A    between atoms: C_135  and  C_137
REMARK   39  A    between atoms: C_137  and  O_138
REMARK   40  A    between atoms: O_138  and  C_144
REMARK   41  A    between atoms: O_139  and  C_141
REMARK   42  A    between atoms: O_142  and  C_143
REMARK   43  A    between atoms: C_146  and  C_148
REMARK   44  A    between atoms: C_148  and  O_149
REMARK   45  A    between atoms: O_149  and  C_150
REMARK   46  A    between atoms: O_151  and  C_157
REMARK   47  A    between atoms: O_152  and  C_154
REMARK   48  A    between atoms: O_155  and  C_156
REMARK   49  A    between atoms: C_159  and  C_161
REMARK   50  A    between atoms: C_161  and  O_162
REMARK   51  A    between atoms: O_162  and  C_168
REMARK   52  A    between atoms: O_163  and  C_165
REMARK   53  A    between atoms: O_166  and  C_167
REMARK   54  A    between atoms: C_170  and  C_172
REMARK   55  A    between atoms: C_172  and  O_173
REMARK   56  A    between atoms: O_173  and  C_174
REMARK                            x       y       z     vdW  Elec       q    Type
REMARK                         _______ _______ _______ _____ _____    ______ ____
ROOT
ATOM      1  C   UNK     1      74.265  61.808 102.405  0.00  0.00    +0.000 C 
ATOM      2  O   UNK     1      75.385  62.583 102.730  0.00  0.00    +0.000 OA
ATOM      3  C   UNK     1      72.969  62.568 102.716  0.00  0.00    +0.000 C 
ATOM      4  C   UNK     1      72.991  63.105 104.152  0.00  0.00    +0.000 C 
ATOM      5  C   UNK     1      74.228  63.998 104.275  0.00  0.00    +0.000 C 
ATOM      6  C   UNK     1      75.396  63.079 104.042  0.00  0.00    +0.000 C 
ENDROOT
BRANCH   5   7
ATOM      7  O   UNK     1      74.240  64.621 105.528  0.00  0.00    +0.000 OA
BRANCH   7   9
ATOM      8  O   UNK     1      73.483  66.568 104.810  0.00  0.00    +0.000 OA
ATOM      9  C   UNK     1      74.265  65.998 105.551  0.00  0.00    +0.000 C 
BRANCH   9  15
ATOM     10  C   UNK     1      76.026  67.569 105.745  0.00  0.00    +0.000 A 
ATOM     11  C   UNK     1      76.924  68.251 106.471  0.00  0.00    +0.000 A 
ATOM     12  C   UNK     1      76.977  68.063 107.802  0.00  0.00    +0.000 A 
ATOM     13  C   UNK     1      76.132  67.200 108.405  0.00  0.00    +0.000 A 
ATOM     14  C   UNK     1      75.237  66.546 107.642  0.00  0.00    +0.000 A 
ATOM     15  C   UNK     1      75.165  66.702 106.307  0.00  0.00    +0.000 A 
BRANCH  11  17
ATOM     16  H   UNK     1      77.835  68.958 104.917  0.00  0.00    +0.000 HD
ATOM     17  O   UNK     1      77.799  69.107 105.875  0.00  0.00    +0.000 OA
ENDBRANCH  11  17
BRANCH  12  19
ATOM     18  H   UNK     1      77.460  69.479 109.004  0.00  0.00    +0.000 HD
ATOM     19  O   UNK     1      77.898  68.761 108.519  0.00  0.00    +0.000 OA
ENDBRANCH  12  19
BRANCH  13  20
ATOM     20  O   UNK     1      76.160  66.981 109.759  0.00  0.00    +0.000 OA
BRANCH  20  22
ATOM     21  O   UNK     1      75.149  68.920 110.094  0.00  0.00    +0.000 OA
ATOM     22  C   UNK     1      75.354  67.798 110.523  0.00  0.00    +0.000 C 
BRANCH  22  28
ATOM     23  C   UNK     1      75.427  67.653 112.875  0.00  0.00    +0.000 A 
ATOM     24  C   UNK     1      74.917  67.253 114.052  0.00  0.00    +0.000 A 
ATOM     25  C   UNK     1      73.764  66.565 114.071  0.00  0.00    +0.000 A 
ATOM     26  C   UNK     1      73.128  66.280 112.921  0.00  0.00    +0.000 A 
ATOM     27  C   UNK     1      73.659  66.692 111.756  0.00  0.00    +0.000 A 
ATOM     28  C   UNK     1      74.813  67.384 111.709  0.00  0.00    +0.000 A 
BRANCH  26  30
ATOM     29  H   UNK     1      72.017  64.855 112.321  0.00  0.00    +0.000 HD
ATOM     30  O   UNK     1      71.960  65.582 112.963  0.00  0.00    +0.000 OA
ENDBRANCH  26  30
BRANCH  24  32
ATOM     31  H   UNK     1      75.974  68.405 115.167  0.00  0.00    +0.000 HD
ATOM     32  O   UNK     1      75.555  67.532 115.220  0.00  0.00    +0.000 OA
ENDBRANCH  24  32
BRANCH  25  34
ATOM     33  H   UNK     1      73.705  65.348 115.539  0.00  0.00    +0.000 HD
ATOM     34  O   UNK     1      73.245  66.156 115.259  0.00  0.00    +0.000 OA
ENDBRANCH  25  34
ENDBRANCH  22  28
ENDBRANCH  20  22
ENDBRANCH  13  20
ENDBRANCH   9  15
ENDBRANCH   7   9
ENDBRANCH   5   7
BRANCH   1  35
ATOM     35  C   UNK     1      74.390  61.484 100.914  0.00  0.00    +0.000 C 
BRANCH  35  36
ATOM     36  O   UNK     1      74.026  60.138 100.710  0.00  0.00    +0.000 OA
BRANCH  36  37
ATOM     37  C   UNK     1      74.841  59.122 101.157  0.00  0.00    +0.000 C 
ATOM     38  O   UNK     1      76.045  59.225 101.009  0.00  0.00    +0.000 OA
BRANCH  37  43
ATOM     39  C   UNK     1      73.466  57.052 103.789  0.00  0.00    +0.000 A 
ATOM     40  C   UNK     1      73.302  55.894 103.123  0.00  0.00    +0.000 A 
ATOM     41  C   UNK     1      73.584  55.812 101.813  0.00  0.00    +0.000 A 
ATOM     42  C   UNK     1      74.098  56.881 101.182  0.00  0.00    +0.000 A 
ATOM     43  C   UNK     1      74.316  58.045 101.821  0.00  0.00    +0.000 A 
ATOM     44  C   UNK     1      73.976  58.106 103.122  0.00  0.00    +0.000 A 
BRANCH  41  46
ATOM     45  H   UNK     1      73.510  53.898 101.715  0.00  0.00    +0.000 HD
ATOM     46  O   UNK     1      73.296  54.660 101.146  0.00  0.00    +0.000 OA
ENDBRANCH  41  46
BRANCH  40  47
ATOM     47  O   UNK     1      72.776  54.805 103.744  0.00  0.00    +0.000 OA
ATOM     48  H   UNK     1      72.666  55.030 104.685  0.00  0.00    +0.000 HD
ENDBRANCH  40  47
BRANCH  39  49
ATOM     49  O   UNK     1      73.105  57.127 105.108  0.00  0.00    +0.000 OA
BRANCH  49  50
ATOM     50  C   UNK     1      74.120  57.484 105.968  0.00  0.00    +0.000 C 
ATOM     51  O   UNK     1      75.143  56.829 105.882  0.00  0.00    +0.000 OA
BRANCH  50  54
ATOM     52  C   UNK     1      74.147  60.795 107.378  0.00  0.00    +0.000 A 
ATOM     53  C   UNK     1      74.268  59.773 106.515  0.00  0.00    +0.000 A 
ATOM     54  C   UNK     1      73.998  58.505 106.871  0.00  0.00    +0.000 A 
ATOM     55  C   UNK     1      73.602  58.285 108.138  0.00  0.00    +0.000 A 
ATOM     56  C   UNK     1      73.480  59.287 109.024  0.00  0.00    +0.000 A 
ATOM     57  C   UNK     1      73.764  60.544 108.642  0.00  0.00    +0.000 A 
BRANCH  52  58
ATOM     58  O   UNK     1      74.439  62.070 107.005  0.00  0.00    +0.000 OA
ATOM     59  H   UNK     1      74.346  62.146 106.040  0.00  0.00    +0.000 HD
ENDBRANCH  52  58
BRANCH  57  60
ATOM     60  O   UNK     1      73.628  61.570 109.525  0.00  0.00    +0.000 OA
ATOM     61  H   UNK     1      72.693  61.665 109.764  0.00  0.00    +0.000 HD
ENDBRANCH  57  60
BRANCH  56  62
ATOM     62  O   UNK     1      73.076  59.056 110.303  0.00  0.00    +0.000 OA
ATOM     63  H   UNK     1      73.255  58.127 110.521  0.00  0.00    +0.000 HD
ENDBRANCH  56  62
ENDBRANCH  50  54
ENDBRANCH  49  50
ENDBRANCH  39  49
ENDBRANCH  37  43
ENDBRANCH  36  37
ENDBRANCH  35  36
ENDBRANCH   1  35
BRANCH   4  64
ATOM     64  O   UNK     1      71.872  63.870 104.451  0.00  0.00    +0.000 OA
BRANCH  64  66
ATOM     65  O   UNK     1      70.230  62.845 105.388  0.00  0.00    +0.000 OA
ATOM     66  C   UNK     1      71.061  63.724 105.561  0.00  0.00    +0.000 C 
BRANCH  66  72
ATOM     67  C   UNK     1      71.606  63.917 107.927  0.00  0.00    +0.000 A 
ATOM     68  C   UNK     1      71.520  64.574 109.095  0.00  0.00    +0.000 A 
ATOM     69  C   UNK     1      70.893  65.761 109.139  0.00  0.00    +0.000 A 
ATOM     70  C   UNK     1      70.379  66.304 108.017  0.00  0.00    +0.000 A 
ATOM     71  C   UNK     1      70.516  65.599 106.877  0.00  0.00    +0.000 A 
ATOM     72  C   UNK     1      71.078  64.376 106.777  0.00  0.00    +0.000 A 
BRANCH  68  74
ATOM     73  H   UNK     1      72.857  63.509 110.056  0.00  0.00    +0.000 HD
ATOM     74  O   UNK     1      72.075  64.062 110.229  0.00  0.00    +0.000 OA
ENDBRANCH  68  74
BRANCH  69  76
ATOM     75  H   UNK     1      69.898  66.321 110.674  0.00  0.00    +0.000 HD
ATOM     76  O   UNK     1      70.802  66.412 110.331  0.00  0.00    +0.000 OA
ENDBRANCH  69  76
BRANCH  70  77
ATOM     77  O   UNK     1      69.724  67.513 108.099  0.00  0.00    +0.000 OA
BRANCH  77  79
ATOM     78  O   UNK     1      71.049  69.194 108.675  0.00  0.00    +0.000 OA
ATOM     79  C   UNK     1      70.415  68.665 107.779  0.00  0.00    +0.000 C 
BRANCH  79  85
ATOM     80  C   UNK     1      71.478  69.026 105.695  0.00  0.00    +0.000 A 
ATOM     81  C   UNK     1      71.541  69.612 104.489  0.00  0.00    +0.000 A 
ATOM     82  C   UNK     1      70.514  70.367 104.068  0.00  0.00    +0.000 A 
ATOM     83  C   UNK     1      69.435  70.534 104.849  0.00  0.00    +0.000 A 
ATOM     84  C   UNK     1      69.404  69.952 106.060  0.00  0.00    +0.000 A 
ATOM     85  C   UNK     1      70.424  69.200 106.516  0.00  0.00    +0.000 A 
BRANCH  83  87
ATOM     86  H   UNK     1      68.596  71.570 103.488  0.00  0.00    +0.000 HD
ATOM     87  O   UNK     1      68.414  71.319 104.410  0.00  0.00    +0.000 OA
ENDBRANCH  83  87
BRANCH  81  89
ATOM     88  H   UNK     1      72.961  70.353 103.426  0.00  0.00    +0.000 HD
ATOM     89  O   UNK     1      72.639  69.480 103.700  0.00  0.00    +0.000 OA
ENDBRANCH  81  89
BRANCH  82  91
ATOM     90  H   UNK     1      70.593  71.957 103.015  0.00  0.00    +0.000 HD
ATOM     91  O   UNK     1      70.595  70.996 102.866  0.00  0.00    +0.000 OA
ENDBRANCH  82  91
ENDBRANCH  79  85
ENDBRANCH  77  79
ENDBRANCH  70  77
ENDBRANCH  66  72
ENDBRANCH  64  66
ENDBRANCH   4  64
BRANCH   3  92
ATOM     92  O   UNK     1      71.861  61.783 102.348  0.00  0.00    +0.000 OA
BRANCH  92  94
ATOM     93  O   UNK     1      70.861  63.490 101.310  0.00  0.00    +0.000 OA
ATOM     94  C   UNK     1      70.920  62.285 101.473  0.00  0.00    +0.000 C 
BRANCH  94 100
ATOM     95  C   UNK     1      68.792  61.307 100.968  0.00  0.00    +0.000 A 
ATOM     96  C   UNK     1      68.048  60.512 100.178  0.00  0.00    +0.000 A 
ATOM     97  C   UNK     1      68.608  59.898  99.116  0.00  0.00    +0.000 A 
ATOM     98  C   UNK     1      69.923  60.038  98.853  0.00  0.00    +0.000 A 
ATOM     99  C   UNK     1      70.638  60.769  99.726  0.00  0.00    +0.000 A 
ATOM    100  C   UNK     1      70.111  61.444 100.758  0.00  0.00    +0.000 A 
BRANCH  96 102
ATOM    101  H   UNK     1      66.508  59.574 100.874  0.00  0.00    +0.000 HD
ATOM    102  O   UNK     1      66.711  60.394 100.396  0.00  0.00    +0.000 OA
ENDBRANCH  96 102
BRANCH  97 104
ATOM    103  H   UNK     1      67.870  58.229  98.547  0.00  0.00    +0.000 HD
ATOM    104  O   UNK     1      67.814  59.164  98.290  0.00  0.00    +0.000 OA
ENDBRANCH  97 104
BRANCH  98 105
ATOM    105  O   UNK     1      70.516  59.489  97.734  0.00  0.00    +0.000 OA
BRANCH 105 107
ATOM    106  O   UNK     1      70.791  61.416  96.649  0.00  0.00    +0.000 OA
ATOM    107  C   UNK     1      70.339  60.284  96.609  0.00  0.00    +0.000 C 
BRANCH 107 113
ATOM    108  C   UNK     1      70.559  59.226  94.509  0.00  0.00    +0.000 A 
ATOM    109  C   UNK     1      70.055  58.810  93.335  0.00  0.00    +0.000 A 
ATOM    110  C   UNK     1      68.750  58.996  93.077  0.00  0.00    +0.000 A 
ATOM    111  C   UNK     1      67.952  59.561  93.999  0.00  0.00    +0.000 A 
ATOM    112  C   UNK     1      68.477  59.946  95.175  0.00  0.00    +0.000 A 
ATOM    113  C   UNK     1      69.787  59.800  95.450  0.00  0.00    +0.000 A 
BRANCH 111 115
ATOM    114  H   UNK     1      66.496  59.549  92.759  0.00  0.00    +0.000 HD
ATOM    115  O   UNK     1      66.646  59.791  93.690  0.00  0.00    +0.000 OA
ENDBRANCH 111 115
BRANCH 109 117
ATOM    116  H   UNK     1      70.324  57.676  91.807  0.00  0.00    +0.000 HD
ATOM    117  O   UNK     1      70.854  58.237  92.396  0.00  0.00    +0.000 OA
ENDBRANCH 109 117
BRANCH 110 119
ATOM    118  H   UNK     1      68.704  59.090  91.172  0.00  0.00    +0.000 HD
ATOM    119  O   UNK     1      68.242  58.609  91.877  0.00  0.00    +0.000 OA
ENDBRANCH 110 119
ENDBRANCH 107 113
ENDBRANCH 105 107
ENDBRANCH  98 105
ENDBRANCH  94 100
ENDBRANCH  92  94
ENDBRANCH   3  92
BRANCH   6 120
ATOM    120  O   UNK     1      76.634  63.714 104.229  0.00  0.00    +0.000 OA
BRANCH 120 122
ATOM    121  O   UNK     1      78.115  62.219 103.473  0.00  0.00    +0.000 OA
ATOM    122  C   UNK     1      77.825  63.036 104.324  0.00  0.00    +0.000 C 
BRANCH 122 128
ATOM    123  C   UNK     1      79.866  62.819 105.553  0.00  0.00    +0.000 A 
ATOM    124  C   UNK     1      80.520  62.967 106.718  0.00  0.00    +0.000 A 
ATOM    125  C   UNK     1      79.889  63.477 107.794  0.00  0.00    +0.000 A 
ATOM    126  C   UNK     1      78.637  63.966 107.695  0.00  0.00    +0.000 A 
ATOM    127  C   UNK     1      78.039  63.822 106.502  0.00  0.00    +0.000 A 
ATOM    128  C   UNK     1      78.593  63.224 105.439  0.00  0.00    +0.000 A 
BRANCH 124 130
ATOM    129  H   UNK     1      82.377  62.915 106.212  0.00  0.00    +0.000 HD
ATOM    130  O   UNK     1      81.786  62.490 106.859  0.00  0.00    +0.000 OA
ENDBRANCH 124 130
BRANCH 125 132
ATOM    131  H   UNK     1      79.901  63.411 109.705  0.00  0.00    +0.000 HD
ATOM    132  O   UNK     1      80.546  63.485 108.983  0.00  0.00    +0.000 OA
ENDBRANCH 125 132
BRANCH 126 133
ATOM    133  O   UNK     1      77.959  64.535 108.749  0.00  0.00    +0.000 OA
BRANCH 133 135
ATOM    134  O   UNK     1      76.048  63.422 108.688  0.00  0.00    +0.000 OA
ATOM    135  C   UNK     1      77.043  63.681 109.343  0.00  0.00    +0.000 C 
BRANCH 135 141
ATOM    136  C   UNK     1      77.965  61.979 110.732  0.00  0.00    +0.000 A 
ATOM    137  C   UNK     1      78.068  61.350 111.917  0.00  0.00    +0.000 A 
ATOM    138  C   UNK     1      77.458  61.872 112.992  0.00  0.00    +0.000 A 
ATOM    139  C   UNK     1      76.769  63.020 112.885  0.00  0.00    +0.000 A 
ATOM    140  C   UNK     1      76.657  63.608 111.682  0.00  0.00    +0.000 A 
ATOM    141  C   UNK     1      77.229  63.097 110.574  0.00  0.00    +0.000 A 
BRANCH 139 143
ATOM    142  H   UNK     1      75.817  64.416 113.763  0.00  0.00    +0.000 HD
ATOM    143  O   UNK     1      76.174  63.542 113.992  0.00  0.00    +0.000 OA
ENDBRANCH 139 143
BRANCH 137 145
ATOM    144  H   UNK     1      78.801  59.933 112.986  0.00  0.00    +0.000 HD
ATOM    145  O   UNK     1      78.772  60.195 112.053  0.00  0.00    +0.000 OA
ENDBRANCH 137 145
BRANCH 138 147
ATOM    146  H   UNK     1      78.528  61.140 114.385  0.00  0.00    +0.000 HD
ATOM    147  O   UNK     1      77.583  61.253 114.195  0.00  0.00    +0.000 OA
ENDBRANCH 138 147
ENDBRANCH 135 141
ENDBRANCH 133 135
ENDBRANCH 126 133
ENDBRANCH 122 128
ENDBRANCH 120 122
ENDBRANCH   6 120
TORSDOF 56
ENDMDL
MODEL 17
REMARK VINA RESULT:      -8.1      2.280     10.682
REMARK  Name = ./3951.pdb
REMARK  56 active torsions:
REMARK  status: ('A' for Active; 'I' for Inactive)
REMARK    1  A    between atoms: O_1  and  C_2
REMARK    2  A    between atoms: C_4  and  C_10
REMARK    3  A    between atoms: C_6  and  O_9
REMARK    4  A    between atoms: C_7  and  O_8
REMARK    5  A    between atoms: C_10  and  O_12
REMARK    6  A    between atoms: O_12  and  C_13
REMARK    7  A    between atoms: C_14  and  O_15
REMARK    8  A    between atoms: C_16  and  O_78
REMARK    9  A    between atoms: C_18  and  C_20
REMARK   10  A    between atoms: C_20  and  O_22
REMARK   11  A    between atoms: O_22  and  C_23
REMARK   12  A    between atoms: C_23  and  C_24
REMARK   13  A    between atoms: O_79  and  C_85
REMARK   14  A    between atoms: O_80  and  C_82
REMARK   15  A    between atoms: O_83  and  C_84
REMARK   16  A    between atoms: C_87  and  C_89
REMARK   17  A    between atoms: C_89  and  O_90
REMARK   18  A    between atoms: O_90  and  C_96
REMARK   19  A    between atoms: O_91  and  C_93
REMARK   20  A    between atoms: O_94  and  C_95
REMARK   21  A    between atoms: C_98  and  C_100
REMARK   22  A    between atoms: C_100  and  O_101
REMARK   23  A    between atoms: O_101  and  C_102
REMARK   24  A    between atoms: O_103  and  C_109
REMARK   25  A    between atoms: O_104  and  C_106
REMARK   26  A    between atoms: O_107  and  C_108
REMARK   27  A    between atoms: C_111  and  C_113
REMARK   28  A    between atoms: C_113  and  O_114
REMARK   29  A    between atoms: O_114  and  C_120
REMARK   30  A    between atoms: O_115  and  C_117
REMARK   31  A    between atoms: O_118  and  C_119
REMARK   32  A    between atoms: C_122  and  C_124
REMARK   33  A    between atoms: C_124  and  O_125
REMARK   34  A    between atoms: O_125  and  C_126
REMARK   35  A    between atoms: O_127  and  C_133
REMARK   36  A    between atoms: O_128  and  C_130
REMARK   37  A    between atoms: O_131  and  C_132
REMARK   38  A    between atoms: C_135  and  C_137
REMARK   39  A    between atoms: C_137  and  O_138
REMARK   40  A    between atoms: O_138  and  C_144
REMARK   41  A    between atoms: O_139  and  C_141
REMARK   42  A    between atoms: O_142  and  C_143
REMARK   43  A    between atoms: C_146  and  C_148
REMARK   44  A    between atoms: C_148  and  O_149
REMARK   45  A    between atoms: O_149  and  C_150
REMARK   46  A    between atoms: O_151  and  C_157
REMARK   47  A    between atoms: O_152  and  C_154
REMARK   48  A    between atoms: O_155  and  C_156
REMARK   49  A    between atoms: C_159  and  C_161
REMARK   50  A    between atoms: C_161  and  O_162
REMARK   51  A    between atoms: O_162  and  C_168
REMARK   52  A    between atoms: O_163  and  C_165
REMARK   53  A    between atoms: O_166  and  C_167
REMARK   54  A    between atoms: C_170  and  C_172
REMARK   55  A    between atoms: C_172  and  O_173
REMARK   56  A    between atoms: O_173  and  C_174
REMARK                            x       y       z     vdW  Elec       q    Type
REMARK                         _______ _______ _______ _____ _____    ______ ____
ROOT
ATOM      1  C   UNK     1      77.739  64.733 106.793  0.00  0.00    +0.000 C 
ATOM      2  O   UNK     1      77.929  63.452 106.260  0.00  0.00    +0.000 OA
ATOM      3  C   UNK     1      76.249  65.099 106.813  0.00  0.00    +0.000 C 
ATOM      4  C   UNK     1      75.622  64.874 105.431  0.00  0.00    +0.000 C 
ATOM      5  C   UNK     1      75.851  63.404 105.073  0.00  0.00    +0.000 C 
ATOM      6  C   UNK     1      77.345  63.248 105.001  0.00  0.00    +0.000 C 
ENDROOT
BRANCH   5   7
ATOM      7  O   UNK     1      75.192  63.100 103.876  0.00  0.00    +0.000 OA
BRANCH   7   9
ATOM      8  O   UNK     1      74.677  61.060 104.551  0.00  0.00    +0.000 OA
ATOM      9  C   UNK     1      74.959  61.770 103.602  0.00  0.00    +0.000 C 
BRANCH   9  15
ATOM     10  C   UNK     1      75.994  60.270 102.090  0.00  0.00    +0.000 A 
ATOM     11  C   UNK     1      76.158  59.760 100.860  0.00  0.00    +0.000 A 
ATOM     12  C   UNK     1      75.420  60.238  99.843  0.00  0.00    +0.000 A 
ATOM     13  C   UNK     1      74.516  61.218 100.055  0.00  0.00    +0.000 A 
ATOM     14  C   UNK     1      74.373  61.693 101.307  0.00  0.00    +0.000 A 
ATOM     15  C   UNK     1      75.103  61.246 102.344  0.00  0.00    +0.000 A 
BRANCH  11  17
ATOM     16  H   UNK     1      77.967  59.168 100.509  0.00  0.00    +0.000 HD
ATOM     17  O   UNK     1      77.082  58.788 100.625  0.00  0.00    +0.000 OA
ENDBRANCH  11  17
BRANCH  12  19
ATOM     18  H   UNK     1      74.748  59.463  98.221  0.00  0.00    +0.000 HD
ATOM     19  O   UNK     1      75.606  59.710  98.603  0.00  0.00    +0.000 OA
ENDBRANCH  12  19
BRANCH  13  20
ATOM     20  O   UNK     1      73.748  61.732  99.041  0.00  0.00    +0.000 OA
BRANCH  20  22
ATOM     21  O   UNK     1      73.010  60.119  97.719  0.00  0.00    +0.000 OA
ATOM     22  C   UNK     1      72.726  60.926  98.586  0.00  0.00    +0.000 C 
BRANCH  22  28
ATOM     23  C   UNK     1      71.159  61.879 100.068  0.00  0.00    +0.000 A 
ATOM     24  C   UNK     1      69.915  61.992 100.563  0.00  0.00    +0.000 A 
ATOM     25  C   UNK     1      68.932  61.233 100.052  0.00  0.00    +0.000 A 
ATOM     26  C   UNK     1      69.193  60.370  99.055  0.00  0.00    +0.000 A 
ATOM     27  C   UNK     1      70.447  60.277  98.577  0.00  0.00    +0.000 A 
ATOM     28  C   UNK     1      71.450  61.026  99.071  0.00  0.00    +0.000 A 
BRANCH  26  30
ATOM     29  H   UNK     1      67.894  60.005  97.712  0.00  0.00    +0.000 HD
ATOM     30  O   UNK     1      68.182  59.611  98.551  0.00  0.00    +0.000 OA
ENDBRANCH  26  30
BRANCH  24  32
ATOM     31  H   UNK     1      69.672  63.770 101.245  0.00  0.00    +0.000 HD
ATOM     32  O   UNK     1      69.642  62.858 101.574  0.00  0.00    +0.000 OA
ENDBRANCH  24  32
BRANCH  25  34
ATOM     33  H   UNK     1      67.540  60.651 101.221  0.00  0.00    +0.000 HD
ATOM     34  O   UNK     1      67.672  61.342 100.551  0.00  0.00    +0.000 OA
ENDBRANCH  25  34
ENDBRANCH  22  28
ENDBRANCH  20  22
ENDBRANCH  13  20
ENDBRANCH   9  15
ENDBRANCH   7   9
ENDBRANCH   5   7
BRANCH   1  35
ATOM     35  C   UNK     1      78.334  64.698 108.204  0.00  0.00    +0.000 C 
BRANCH  35  36
ATOM     36  O   UNK     1      77.775  63.611 108.906  0.00  0.00    +0.000 OA
BRANCH  36  37
ATOM     37  C   UNK     1      78.347  63.174 110.080  0.00  0.00    +0.000 C 
ATOM     38  O   UNK     1      79.555  63.250 110.211  0.00  0.00    +0.000 OA
BRANCH  37  43
ATOM     39  C   UNK     1      75.492  62.637 112.239  0.00  0.00    +0.000 A 
ATOM     40  C   UNK     1      76.046  61.852 113.181  0.00  0.00    +0.000 A 
ATOM     41  C   UNK     1      77.326  61.457 113.075  0.00  0.00    +0.000 A 
ATOM     42  C   UNK     1      78.072  61.908 112.054  0.00  0.00    +0.000 A 
ATOM     43  C   UNK     1      77.566  62.727 111.113  0.00  0.00    +0.000 A 
ATOM     44  C   UNK     1      76.267  63.063 111.223  0.00  0.00    +0.000 A 
BRANCH  41  46
ATOM     45  H   UNK     1      77.316  60.648 114.815  0.00  0.00    +0.000 HD
ATOM     46  O   UNK     1      77.820  60.570 113.983  0.00  0.00    +0.000 OA
ENDBRANCH  41  46
BRANCH  40  47
ATOM     47  O   UNK     1      75.303  61.381 114.218  0.00  0.00    +0.000 OA
ATOM     48  H   UNK     1      75.543  60.446 114.346  0.00  0.00    +0.000 HD
ENDBRANCH  40  47
BRANCH  39  49
ATOM     49  O   UNK     1      74.165  62.968 112.334  0.00  0.00    +0.000 OA
BRANCH  49  50
ATOM     50  C   UNK     1      73.823  63.675 113.465  0.00  0.00    +0.000 C 
ATOM     51  O   UNK     1      72.979  63.161 114.176  0.00  0.00    +0.000 OA
BRANCH  50  54
ATOM     52  C   UNK     1      75.017  67.054 113.147  0.00  0.00    +0.000 A 
ATOM     53  C   UNK     1      74.480  65.857 112.860  0.00  0.00    +0.000 A 
ATOM     54  C   UNK     1      74.385  64.881 113.780  0.00  0.00    +0.000 A 
ATOM     55  C   UNK     1      74.857  65.141 115.014  0.00  0.00    +0.000 A 
ATOM     56  C   UNK     1      75.408  66.326 115.325  0.00  0.00    +0.000 A 
ATOM     57  C   UNK     1      75.496  67.280 114.383  0.00  0.00    +0.000 A 
BRANCH  52  58
ATOM     58  O   UNK     1      75.118  68.025 112.199  0.00  0.00    +0.000 OA
ATOM     59  H   UNK     1      75.275  68.878 112.635  0.00  0.00    +0.000 HD
ENDBRANCH  52  58
BRANCH  57  60
ATOM     60  O   UNK     1      76.034  68.491 114.689  0.00  0.00    +0.000 OA
ATOM     61  H   UNK     1      76.238  68.520 115.637  0.00  0.00    +0.000 HD
ENDBRANCH  57  60
BRANCH  56  62
ATOM     62  O   UNK     1      75.879  66.581 116.576  0.00  0.00    +0.000 OA
ATOM     63  H   UNK     1      75.790  65.775 117.110  0.00  0.00    +0.000 HD
ENDBRANCH  56  62
ENDBRANCH  50  54
ENDBRANCH  49  50
ENDBRANCH  39  49
ENDBRANCH  37  43
ENDBRANCH  36  37
ENDBRANCH  35  36
ENDBRANCH   1  35
BRANCH   4  64
ATOM     64  O   UNK     1      74.256  65.116 105.423  0.00  0.00    +0.000 OA
BRANCH  64  66
ATOM     65  O   UNK     1      73.740  66.452 103.818  0.00  0.00    +0.000 OA
ATOM     66  C   UNK     1      73.640  66.289 105.025  0.00  0.00    +0.000 C 
BRANCH  66  72
ATOM     67  C   UNK     1      71.735  67.070 106.325  0.00  0.00    +0.000 A 
ATOM     68  C   UNK     1      71.080  68.055 106.960  0.00  0.00    +0.000 A 
ATOM     69  C   UNK     1      71.649  69.268 107.059  0.00  0.00    +0.000 A 
ATOM     70  C   UNK     1      72.879  69.489 106.552  0.00  0.00    +0.000 A 
ATOM     71  C   UNK     1      73.486  68.451 105.943  0.00  0.00    +0.000 A 
ATOM     72  C   UNK     1      72.944  67.229 105.756  0.00  0.00    +0.000 A 
BRANCH  68  74
ATOM     73  H   UNK     1      69.905  67.375 108.375  0.00  0.00    +0.000 HD
ATOM     74  O   UNK     1      69.857  67.837 107.520  0.00  0.00    +0.000 OA
ENDBRANCH  68  74
BRANCH  69  76
ATOM     75  H   UNK     1      71.534  70.633 108.395  0.00  0.00    +0.000 HD
ATOM     76  O   UNK     1      70.971  70.262 107.695  0.00  0.00    +0.000 OA
ENDBRANCH  69  76
BRANCH  70  77
ATOM     77  O   UNK     1      73.426  70.749 106.651  0.00  0.00    +0.000 OA
BRANCH  77  79
ATOM     78  O   UNK     1      74.724  71.502 105.020  0.00  0.00    +0.000 OA
ATOM     79  C   UNK     1      74.680  70.972 106.116  0.00  0.00    +0.000 C 
BRANCH  79  85
ATOM     80  C   UNK     1      75.850  70.453 108.107  0.00  0.00    +0.000 A 
ATOM     81  C   UNK     1      76.988  70.215 108.778  0.00  0.00    +0.000 A 
ATOM     82  C   UNK     1      78.146  70.129 108.104  0.00  0.00    +0.000 A 
ATOM     83  C   UNK     1      78.163  70.282 106.770  0.00  0.00    +0.000 A 
ATOM     84  C   UNK     1      77.014  70.538 106.124  0.00  0.00    +0.000 A 
ATOM     85  C   UNK     1      75.838  70.643 106.773  0.00  0.00    +0.000 A 
BRANCH  83  87
ATOM     86  H   UNK     1      79.967  70.841 106.518  0.00  0.00    +0.000 HD
ATOM     87  O   UNK     1      79.351  70.209 106.110  0.00  0.00    +0.000 OA
ENDBRANCH  83  87
BRANCH  81  89
ATOM     88  H   UNK     1      76.345  70.694 110.525  0.00  0.00    +0.000 HD
ATOM     89  O   UNK     1      76.994  70.091 110.131  0.00  0.00    +0.000 OA
ENDBRANCH  81  89
BRANCH  82  91
ATOM     90  H   UNK     1      79.800  69.211 108.360  0.00  0.00    +0.000 HD
ATOM     91  O   UNK     1      79.305  69.931 108.786  0.00  0.00    +0.000 OA
ENDBRANCH  82  91
ENDBRANCH  79  85
ENDBRANCH  77  79
ENDBRANCH  70  77
ENDBRANCH  66  72
ENDBRANCH  64  66
ENDBRANCH   4  64
BRANCH   3  92
ATOM     92  O   UNK     1      76.084  66.374 107.385  0.00  0.00    +0.000 OA
BRANCH  92  94
ATOM     93  O   UNK     1      76.439  67.104 109.466  0.00  0.00    +0.000 OA
ATOM     94  C   UNK     1      75.711  66.492 108.708  0.00  0.00    +0.000 C 
BRANCH  94 100
ATOM     95  C   UNK     1      73.454  66.737 109.475  0.00  0.00    +0.000 A 
ATOM     96  C   UNK     1      72.290  66.165 109.831  0.00  0.00    +0.000 A 
ATOM     97  C   UNK     1      72.155  64.824 109.790  0.00  0.00    +0.000 A 
ATOM     98  C   UNK     1      73.189  64.037 109.433  0.00  0.00    +0.000 A 
ATOM     99  C   UNK     1      74.356  64.654 109.176  0.00  0.00    +0.000 A 
ATOM    100  C   UNK     1      74.516  65.985 109.146  0.00  0.00    +0.000 A 
BRANCH  96 102
ATOM    101  H   UNK     1      71.504  67.803 110.491  0.00  0.00    +0.000 HD
ATOM    102  O   UNK     1      71.218  66.940 110.149  0.00  0.00    +0.000 OA
ENDBRANCH  96 102
BRANCH  97 104
ATOM    103  H   UNK     1      71.064  63.345 110.317  0.00  0.00    +0.000 HD
ATOM    104  O   UNK     1      70.942  64.279 110.080  0.00  0.00    +0.000 OA
ENDBRANCH  97 104
BRANCH  98 105
ATOM    105  O   UNK     1      73.068  62.668 109.305  0.00  0.00    +0.000 OA
BRANCH 105 107
ATOM    106  O   UNK     1      74.650  61.944 107.913  0.00  0.00    +0.000 OA
ATOM    107  C   UNK     1      73.472  62.225 108.053  0.00  0.00    +0.000 C 
BRANCH 107 113
ATOM    108  C   UNK     1      71.950  60.811 106.929  0.00  0.00    +0.000 A 
ATOM    109  C   UNK     1      71.129  60.534 105.902  0.00  0.00    +0.000 A 
ATOM    110  C   UNK     1      70.951  61.451 104.936  0.00  0.00    +0.000 A 
ATOM    111  C   UNK     1      71.562  62.645 105.017  0.00  0.00    +0.000 A 
ATOM    112  C   UNK     1      72.360  62.906 106.068  0.00  0.00    +0.000 A 
ATOM    113  C   UNK     1      72.580  61.995 107.035  0.00  0.00    +0.000 A 
BRANCH 111 115
ATOM    114  H   UNK     1      70.631  64.090 104.178  0.00  0.00    +0.000 HD
ATOM    115  O   UNK     1      71.411  63.535 103.997  0.00  0.00    +0.000 OA
ENDBRANCH 111 115
BRANCH 109 117
ATOM    116  H   UNK     1      70.629  58.957 104.924  0.00  0.00    +0.000 HD
ATOM    117  O   UNK     1      70.505  59.329 105.811  0.00  0.00    +0.000 OA
ENDBRANCH 109 117
BRANCH 110 119
ATOM    118  H   UNK     1      70.545  60.433 103.374  0.00  0.00    +0.000 HD
ATOM    119  O   UNK     1      70.149  61.163 103.878  0.00  0.00    +0.000 OA
ENDBRANCH 110 119
ENDBRANCH 107 113
ENDBRANCH 105 107
ENDBRANCH  98 105
ENDBRANCH  94 100
ENDBRANCH  92  94
ENDBRANCH   3  92
BRANCH   6 120
ATOM    120  O   UNK     1      77.740  61.972 104.568  0.00  0.00    +0.000 OA
BRANCH 120 122
ATOM    121  O   UNK     1      79.309  62.505 103.066  0.00  0.00    +0.000 OA
ATOM    122  C   UNK     1      78.925  61.727 103.917  0.00  0.00    +0.000 C 
BRANCH 122 128
ATOM    123  C   UNK     1      80.910  60.425 104.212  0.00  0.00    +0.000 A 
ATOM    124  C   UNK     1      81.467  59.215 104.383  0.00  0.00    +0.000 A 
ATOM    125  C   UNK     1      80.695  58.113 104.467  0.00  0.00    +0.000 A 
ATOM    126  C   UNK     1      79.352  58.213 104.510  0.00  0.00    +0.000 A 
ATOM    127  C   UNK     1      78.844  59.447 104.366  0.00  0.00    +0.000 A 
ATOM    128  C   UNK     1      79.576  60.553 104.172  0.00  0.00    +0.000 A 
BRANCH 124 130
ATOM    129  H   UNK     1      83.138  58.705 105.193  0.00  0.00    +0.000 HD
ATOM    130  O   UNK     1      82.820  59.072 104.349  0.00  0.00    +0.000 OA
ENDBRANCH 124 130
BRANCH 125 132
ATOM    131  H   UNK     1      82.210  57.007 104.836  0.00  0.00    +0.000 HD
ATOM    132  O   UNK     1      81.303  56.900 104.506  0.00  0.00    +0.000 OA
ENDBRANCH 125 132
BRANCH 126 133
ATOM    133  O   UNK     1      78.514  57.127 104.636  0.00  0.00    +0.000 OA
BRANCH 133 135
ATOM    134  O   UNK     1      77.747  57.019 102.564  0.00  0.00    +0.000 OA
ATOM    135  C   UNK     1      77.455  57.139 103.742  0.00  0.00    +0.000 C 
BRANCH 135 141
ATOM    136  C   UNK     1      75.772  57.595 105.364  0.00  0.00    +0.000 A 
ATOM    137  C   UNK     1      74.488  57.587 105.767  0.00  0.00    +0.000 A 
ATOM    138  C   UNK     1      73.528  57.247 104.893  0.00  0.00    +0.000 A 
ATOM    139  C   UNK     1      73.849  56.938 103.626  0.00  0.00    +0.000 A 
ATOM    140  C   UNK     1      75.143  56.923 103.262  0.00  0.00    +0.000 A 
ATOM    141  C   UNK     1      76.137  57.227 104.120  0.00  0.00    +0.000 A 
BRANCH 139 143
ATOM    142  H   UNK     1      72.364  55.862 103.114  0.00  0.00    +0.000 HD
ATOM    143  O   UNK     1      72.859  56.615 102.751  0.00  0.00    +0.000 OA
ENDBRANCH 139 143
BRANCH 137 145
ATOM    144  H   UNK     1      73.306  57.472 107.276  0.00  0.00    +0.000 HD
ATOM    145  O   UNK     1      74.137  57.912 107.040  0.00  0.00    +0.000 OA
ENDBRANCH 137 145
BRANCH 138 147
ATOM    146  H   UNK     1      71.736  56.620 104.756  0.00  0.00    +0.000 HD
ATOM    147  O   UNK     1      72.229  57.265 105.289  0.00  0.00    +0.000 OA
ENDBRANCH 138 147
ENDBRANCH 135 141
ENDBRANCH 133 135
ENDBRANCH 126 133
ENDBRANCH 122 128
ENDBRANCH 120 122
ENDBRANCH   6 120
TORSDOF 56
ENDMDL
MODEL 18
REMARK VINA RESULT:      -8.1      2.297      8.973
REMARK  Name = ./3951.pdb
REMARK  56 active torsions:
REMARK  status: ('A' for Active; 'I' for Inactive)
REMARK    1  A    between atoms: O_1  and  C_2
REMARK    2  A    between atoms: C_4  and  C_10
REMARK    3  A    between atoms: C_6  and  O_9
REMARK    4  A    between atoms: C_7  and  O_8
REMARK    5  A    between atoms: C_10  and  O_12
REMARK    6  A    between atoms: O_12  and  C_13
REMARK    7  A    between atoms: C_14  and  O_15
REMARK    8  A    between atoms: C_16  and  O_78
REMARK    9  A    between atoms: C_18  and  C_20
REMARK   10  A    between atoms: C_20  and  O_22
REMARK   11  A    between atoms: O_22  and  C_23
REMARK   12  A    between atoms: C_23  and  C_24
REMARK   13  A    between atoms: O_79  and  C_85
REMARK   14  A    between atoms: O_80  and  C_82
REMARK   15  A    between atoms: O_83  and  C_84
REMARK   16  A    between atoms: C_87  and  C_89
REMARK   17  A    between atoms: C_89  and  O_90
REMARK   18  A    between atoms: O_90  and  C_96
REMARK   19  A    between atoms: O_91  and  C_93
REMARK   20  A    between atoms: O_94  and  C_95
REMARK   21  A    between atoms: C_98  and  C_100
REMARK   22  A    between atoms: C_100  and  O_101
REMARK   23  A    between atoms: O_101  and  C_102
REMARK   24  A    between atoms: O_103  and  C_109
REMARK   25  A    between atoms: O_104  and  C_106
REMARK   26  A    between atoms: O_107  and  C_108
REMARK   27  A    between atoms: C_111  and  C_113
REMARK   28  A    between atoms: C_113  and  O_114
REMARK   29  A    between atoms: O_114  and  C_120
REMARK   30  A    between atoms: O_115  and  C_117
REMARK   31  A    between atoms: O_118  and  C_119
REMARK   32  A    between atoms: C_122  and  C_124
REMARK   33  A    between atoms: C_124  and  O_125
REMARK   34  A    between atoms: O_125  and  C_126
REMARK   35  A    between atoms: O_127  and  C_133
REMARK   36  A    between atoms: O_128  and  C_130
REMARK   37  A    between atoms: O_131  and  C_132
REMARK   38  A    between atoms: C_135  and  C_137
REMARK   39  A    between atoms: C_137  and  O_138
REMARK   40  A    between atoms: O_138  and  C_144
REMARK   41  A    between atoms: O_139  and  C_141
REMARK   42  A    between atoms: O_142  and  C_143
REMARK   43  A    between atoms: C_146  and  C_148
REMARK   44  A    between atoms: C_148  and  O_149
REMARK   45  A    between atoms: O_149  and  C_150
REMARK   46  A    between atoms: O_151  and  C_157
REMARK   47  A    between atoms: O_152  and  C_154
REMARK   48  A    between atoms: O_155  and  C_156
REMARK   49  A    between atoms: C_159  and  C_161
REMARK   50  A    between atoms: C_161  and  O_162
REMARK   51  A    between atoms: O_162  and  C_168
REMARK   52  A    between atoms: O_163  and  C_165
REMARK   53  A    between atoms: O_166  and  C_167
REMARK   54  A    between atoms: C_170  and  C_172
REMARK   55  A    between atoms: C_172  and  O_173
REMARK   56  A    between atoms: O_173  and  C_174
REMARK                            x       y       z     vdW  Elec       q    Type
REMARK                         _______ _______ _______ _____ _____    ______ ____
ROOT
ATOM      1  C   UNK     1      75.191  63.052 102.228  0.00  0.00    +0.000 C 
ATOM      2  O   UNK     1      75.952  64.209 102.435  0.00  0.00    +0.000 OA
ATOM      3  C   UNK     1      73.753  63.250 102.725  0.00  0.00    +0.000 C 
ATOM      4  C   UNK     1      73.750  63.778 104.165  0.00  0.00    +0.000 C 
ATOM      5  C   UNK     1      74.545  65.086 104.161  0.00  0.00    +0.000 C 
ATOM      6  C   UNK     1      75.938  64.693 103.751  0.00  0.00    +0.000 C 
ENDROOT
BRANCH   5   7
ATOM      7  O   UNK     1      74.476  65.686 105.424  0.00  0.00    +0.000 OA
BRANCH   7   9
ATOM      8  O   UNK     1      73.543  67.449 104.474  0.00  0.00    +0.000 OA
ATOM      9  C   UNK     1      74.068  67.001 105.478  0.00  0.00    +0.000 C 
BRANCH   9  15
ATOM     10  C   UNK     1      75.328  67.557 107.403  0.00  0.00    +0.000 A 
ATOM     11  C   UNK     1      75.555  68.315 108.487  0.00  0.00    +0.000 A 
ATOM     12  C   UNK     1      74.728  69.340 108.761  0.00  0.00    +0.000 A 
ATOM     13  C   UNK     1      73.681  69.609 107.953  0.00  0.00    +0.000 A 
ATOM     14  C   UNK     1      73.496  68.833 106.868  0.00  0.00    +0.000 A 
ATOM     15  C   UNK     1      74.298  67.794 106.571  0.00  0.00    +0.000 A 
BRANCH  11  17
ATOM     16  H   UNK     1      76.302  67.497 110.074  0.00  0.00    +0.000 HD
ATOM     17  O   UNK     1      76.592  68.042 109.325  0.00  0.00    +0.000 OA
ENDBRANCH  11  17
BRANCH  12  19
ATOM     18  H   UNK     1      74.171  70.578 110.118  0.00  0.00    +0.000 HD
ATOM     19  O   UNK     1      74.973  70.092 109.868  0.00  0.00    +0.000 OA
ENDBRANCH  12  19
BRANCH  13  20
ATOM     20  O   UNK     1      72.815  70.643 108.204  0.00  0.00    +0.000 OA
BRANCH  20  22
ATOM     21  O   UNK     1      73.571  72.341 107.004  0.00  0.00    +0.000 OA
ATOM     22  C   UNK     1      72.654  71.560 107.187  0.00  0.00    +0.000 C 
BRANCH  22  28
ATOM     23  C   UNK     1      70.457  70.842 106.723  0.00  0.00    +0.000 A 
ATOM     24  C   UNK     1      69.335  70.867 105.984  0.00  0.00    +0.000 A 
ATOM     25  C   UNK     1      69.270  71.674 104.912  0.00  0.00    +0.000 A 
ATOM     26  C   UNK     1      70.319  72.449 104.586  0.00  0.00    +0.000 A 
ATOM     27  C   UNK     1      71.430  72.406 105.342  0.00  0.00    +0.000 A 
ATOM     28  C   UNK     1      71.521  71.606 106.421  0.00  0.00    +0.000 A 
BRANCH  26  30
ATOM     29  H   UNK     1      70.184  74.180 103.804  0.00  0.00    +0.000 HD
ATOM     30  O   UNK     1      70.231  73.260 103.496  0.00  0.00    +0.000 OA
ENDBRANCH  26  30
BRANCH  24  32
ATOM     31  H   UNK     1      67.448  70.589 106.210  0.00  0.00    +0.000 HD
ATOM     32  O   UNK     1      68.271  70.083 106.303  0.00  0.00    +0.000 OA
ENDBRANCH  24  32
BRANCH  25  34
ATOM     33  H   UNK     1      67.969  72.617 103.883  0.00  0.00    +0.000 HD
ATOM     34  O   UNK     1      68.138  71.701 104.160  0.00  0.00    +0.000 OA
ENDBRANCH  25  34
ENDBRANCH  22  28
ENDBRANCH  20  22
ENDBRANCH  13  20
ENDBRANCH   9  15
ENDBRANCH   7   9
ENDBRANCH   5   7
BRANCH   1  35
ATOM     35  C   UNK     1      75.239  62.776 100.722  0.00  0.00    +0.000 C 
BRANCH  35  36
ATOM     36  O   UNK     1      75.822  61.511 100.511  0.00  0.00    +0.000 OA
BRANCH  36  37
ATOM     37  C   UNK     1      77.159  61.309 100.774  0.00  0.00    +0.000 C 
ATOM     38  O   UNK     1      77.985  61.931 100.133  0.00  0.00    +0.000 OA
BRANCH  37  43
ATOM     39  C   UNK     1      77.352  58.454 102.991  0.00  0.00    +0.000 A 
ATOM     40  C   UNK     1      78.332  58.858 103.819  0.00  0.00    +0.000 A 
ATOM     41  C   UNK     1      78.961  60.027 103.615  0.00  0.00    +0.000 A 
ATOM     42  C   UNK     1      78.557  60.826 102.614  0.00  0.00    +0.000 A 
ATOM     43  C   UNK     1      77.553  60.477 101.789  0.00  0.00    +0.000 A 
ATOM     44  C   UNK     1      76.978  59.277 101.992  0.00  0.00    +0.000 A 
BRANCH  41  46
ATOM     45  H   UNK     1      79.718  60.892 105.152  0.00  0.00    +0.000 HD
ATOM     46  O   UNK     1      80.026  60.350 104.401  0.00  0.00    +0.000 OA
ENDBRANCH  41  46
BRANCH  40  47
ATOM     47  O   UNK     1      78.759  58.058 104.833  0.00  0.00    +0.000 OA
ATOM     48  H   UNK     1      78.704  57.138 104.521  0.00  0.00    +0.000 HD
ENDBRANCH  40  47
BRANCH  39  49
ATOM     49  O   UNK     1      76.775  57.225 103.180  0.00  0.00    +0.000 OA
BRANCH  49  50
ATOM     50  C   UNK     1      75.398  57.224 103.173  0.00  0.00    +0.000 C 
ATOM     51  O   UNK     1      74.873  56.640 102.242  0.00  0.00    +0.000 OA
BRANCH  50  54
ATOM     52  C   UNK     1      74.204  58.231 106.415  0.00  0.00    +0.000 A 
ATOM     53  C   UNK     1      74.913  57.631 105.445  0.00  0.00    +0.000 A 
ATOM     54  C   UNK     1      74.654  57.839 104.142  0.00  0.00    +0.000 A 
ATOM     55  C   UNK     1      73.644  58.674 103.834  0.00  0.00    +0.000 A 
ATOM     56  C   UNK     1      72.913  59.280 104.784  0.00  0.00    +0.000 A 
ATOM     57  C   UNK     1      73.191  59.047 106.079  0.00  0.00    +0.000 A 
BRANCH  52  58
ATOM     58  O   UNK     1      74.472  57.996 107.728  0.00  0.00    +0.000 OA
ATOM     59  H   UNK     1      75.230  57.393 107.794  0.00  0.00    +0.000 HD
ENDBRANCH  52  58
BRANCH  57  60
ATOM     60  O   UNK     1      72.471  59.669 107.051  0.00  0.00    +0.000 OA
ATOM     61  H   UNK     1      71.596  59.900 106.703  0.00  0.00    +0.000 HD
ENDBRANCH  57  60
BRANCH  56  62
ATOM     62  O   UNK     1      71.896  60.126 104.464  0.00  0.00    +0.000 OA
ATOM     63  H   UNK     1      71.083  59.605 104.360  0.00  0.00    +0.000 HD
ENDBRANCH  56  62
ENDBRANCH  50  54
ENDBRANCH  49  50
ENDBRANCH  39  49
ENDBRANCH  37  43
ENDBRANCH  36  37
ENDBRANCH  35  36
ENDBRANCH   1  35
BRANCH   4  64
ATOM     64  O   UNK     1      72.470  64.049 104.628  0.00  0.00    +0.000 OA
BRANCH  64  66
ATOM     65  O   UNK     1      71.994  62.497 106.039  0.00  0.00    +0.000 OA
ATOM     66  C   UNK     1      71.965  63.707 105.870  0.00  0.00    +0.000 C 
BRANCH  66  72
ATOM     67  C   UNK     1      70.868  65.687 106.769  0.00  0.00    +0.000 A 
ATOM     68  C   UNK     1      70.498  66.442 107.815  0.00  0.00    +0.000 A 
ATOM     69  C   UNK     1      70.735  66.003 109.062  0.00  0.00    +0.000 A 
ATOM     70  C   UNK     1      71.313  64.802 109.265  0.00  0.00    +0.000 A 
ATOM     71  C   UNK     1      71.643  64.088 108.170  0.00  0.00    +0.000 A 
ATOM     72  C   UNK     1      71.490  64.499 106.894  0.00  0.00    +0.000 A 
BRANCH  68  74
ATOM     73  H   UNK     1      68.903  67.581 107.731  0.00  0.00    +0.000 HD
ATOM     74  O   UNK     1      69.870  67.637 107.630  0.00  0.00    +0.000 OA
ENDBRANCH  68  74
BRANCH  69  76
ATOM     75  H   UNK     1      69.426  67.017 110.022  0.00  0.00    +0.000 HD
ATOM     76  O   UNK     1      70.365  66.783 110.115  0.00  0.00    +0.000 OA
ENDBRANCH  69  76
BRANCH  70  77
ATOM     77  O   UNK     1      71.561  64.389 110.555  0.00  0.00    +0.000 OA
BRANCH  77  79
ATOM     78  O   UNK     1      73.638  63.616 110.599  0.00  0.00    +0.000 OA
ATOM     79  C   UNK     1      72.856  64.444 111.032  0.00  0.00    +0.000 C 
BRANCH  79  85
ATOM     80  C   UNK     1      74.090  66.395 111.556  0.00  0.00    +0.000 A 
ATOM     81  C   UNK     1      74.580  67.279 112.439  0.00  0.00    +0.000 A 
ATOM     82  C   UNK     1      74.229  67.183 113.732  0.00  0.00    +0.000 A 
ATOM     83  C   UNK     1      73.395  66.211 114.134  0.00  0.00    +0.000 A 
ATOM     84  C   UNK     1      72.933  65.327 113.234  0.00  0.00    +0.000 A 
ATOM     85  C   UNK     1      73.277  65.389 111.933  0.00  0.00    +0.000 A 
BRANCH  83  87
ATOM     86  H   UNK     1      73.564  66.803 115.937  0.00  0.00    +0.000 HD
ATOM     87  O   UNK     1      73.068  66.122 115.452  0.00  0.00    +0.000 OA
ENDBRANCH  83  87
BRANCH  81  89
ATOM     88  H   UNK     1      75.744  68.093 111.144  0.00  0.00    +0.000 HD
ATOM     89  O   UNK     1      75.450  68.249 112.055  0.00  0.00    +0.000 OA
ENDBRANCH  81  89
BRANCH  82  91
ATOM     90  H   UNK     1      74.608  67.701 115.530  0.00  0.00    +0.000 HD
ATOM     91  O   UNK     1      74.758  68.050 114.635  0.00  0.00    +0.000 OA
ENDBRANCH  82  91
ENDBRANCH  79  85
ENDBRANCH  77  79
ENDBRANCH  70  77
ENDBRANCH  66  72
ENDBRANCH  64  66
ENDBRANCH   4  64
BRANCH   3  92
ATOM     92  O   UNK     1      73.001  62.088 102.473  0.00  0.00    +0.000 OA
BRANCH  92  94
ATOM     93  O   UNK     1      71.436  62.967 101.145  0.00  0.00    +0.000 OA
ATOM     94  C   UNK     1      72.174  62.027 101.371  0.00  0.00    +0.000 C 
BRANCH  94 100
ATOM     95  C   UNK     1      72.435  59.692 100.904  0.00  0.00    +0.000 A 
ATOM     96  C   UNK     1      72.403  58.684 100.013  0.00  0.00    +0.000 A 
ATOM     97  C   UNK     1      72.087  58.930  98.725  0.00  0.00    +0.000 A 
ATOM     98  C   UNK     1      71.838  60.186  98.304  0.00  0.00    +0.000 A 
ATOM     99  C   UNK     1      71.973  61.166  99.215  0.00  0.00    +0.000 A 
ATOM    100  C   UNK     1      72.226  60.959 100.515  0.00  0.00    +0.000 A 
BRANCH  96 102
ATOM    101  H   UNK     1      71.783  57.016 100.766  0.00  0.00    +0.000 HD
ATOM    102  O   UNK     1      72.605  57.404 100.424  0.00  0.00    +0.000 OA
ENDBRANCH  96 102
BRANCH  97 104
ATOM    103  H   UNK     1      72.493  57.132  98.218  0.00  0.00    +0.000 HD
ATOM    104  O   UNK     1      71.986  57.881  97.864  0.00  0.00    +0.000 OA
ENDBRANCH  97 104
BRANCH  98 105
ATOM    105  O   UNK     1      71.437  60.468  97.013  0.00  0.00    +0.000 OA
BRANCH 105 107
ATOM    106  O   UNK     1      70.019  62.071  96.391  0.00  0.00    +0.000 OA
ATOM    107  C   UNK     1      70.158  61.009  96.974  0.00  0.00    +0.000 C 
BRANCH 107 113
ATOM    108  C   UNK     1      68.419  60.780  98.555  0.00  0.00    +0.000 A 
ATOM    109  C   UNK     1      67.391  60.102  99.094  0.00  0.00    +0.000 A 
ATOM    110  C   UNK     1      67.013  58.935  98.545  0.00  0.00    +0.000 A 
ATOM    111  C   UNK     1      67.634  58.471  97.449  0.00  0.00    +0.000 A 
ATOM    112  C   UNK     1      68.644  59.181  96.915  0.00  0.00    +0.000 A 
ATOM    113  C   UNK     1      69.065  60.338  97.460  0.00  0.00    +0.000 A 
BRANCH 111 115
ATOM    114  H   UNK     1      66.788  56.766  97.634  0.00  0.00    +0.000 HD
ATOM    115  O   UNK     1      67.270  57.259  96.946  0.00  0.00    +0.000 OA
ENDBRANCH 111 115
BRANCH 109 117
ATOM    116  H   UNK     1      66.570  59.829 100.810  0.00  0.00    +0.000 HD
ATOM    117  O   UNK     1      66.756  60.564 100.204  0.00  0.00    +0.000 OA
ENDBRANCH 109 117
BRANCH 110 119
ATOM    118  H   UNK     1      66.268  57.942  99.995  0.00  0.00    +0.000 HD
ATOM    119  O   UNK     1      65.997  58.229  99.108  0.00  0.00    +0.000 OA
ENDBRANCH 110 119
ENDBRANCH 107 113
ENDBRANCH 105 107
ENDBRANCH  98 105
ENDBRANCH  94 100
ENDBRANCH  92  94
ENDBRANCH   3  92
BRANCH   6 120
ATOM    120  O   UNK     1      76.844  65.765 103.803  0.00  0.00    +0.000 OA
BRANCH 120 122
ATOM    121  O   UNK     1      77.798  66.591 101.957  0.00  0.00    +0.000 OA
ATOM    122  C   UNK     1      77.910  65.896 102.947  0.00  0.00    +0.000 C 
BRANCH 122 128
ATOM    123  C   UNK     1      79.788  64.606 102.217  0.00  0.00    +0.000 A 
ATOM    124  C   UNK     1      80.821  63.808 102.539  0.00  0.00    +0.000 A 
ATOM    125  C   UNK     1      81.072  63.503 103.828  0.00  0.00    +0.000 A 
ATOM    126  C   UNK     1      80.378  64.088 104.824  0.00  0.00    +0.000 A 
ATOM    127  C   UNK     1      79.378  64.901 104.452  0.00  0.00    +0.000 A 
ATOM    128  C   UNK     1      79.028  65.145 103.181  0.00  0.00    +0.000 A 
BRANCH 124 130
ATOM    129  H   UNK     1      82.135  62.528 101.953  0.00  0.00    +0.000 HD
ATOM    130  O   UNK     1      81.548  63.201 101.563  0.00  0.00    +0.000 OA
ENDBRANCH 124 130
BRANCH 125 132
ATOM    131  H   UNK     1      82.036  61.906 103.408  0.00  0.00    +0.000 HD
ATOM    132  O   UNK     1      82.040  62.590 104.098  0.00  0.00    +0.000 OA
ENDBRANCH 125 132
BRANCH 126 133
ATOM    133  O   UNK     1      80.618  63.846 106.158  0.00  0.00    +0.000 OA
BRANCH 133 135
ATOM    134  O   UNK     1      80.126  65.880 106.876  0.00  0.00    +0.000 OA
ATOM    135  C   UNK     1      79.914  64.687 107.007  0.00  0.00    +0.000 C 
BRANCH 135 141
ATOM    136  C   UNK     1      79.344  63.577 109.036  0.00  0.00    +0.000 A 
ATOM    137  C   UNK     1      78.434  63.061 109.883  0.00  0.00    +0.000 A 
ATOM    138  C   UNK     1      77.129  63.254 109.643  0.00  0.00    +0.000 A 
ATOM    139  C   UNK     1      76.739  63.972 108.577  0.00  0.00    +0.000 A 
ATOM    140  C   UNK     1      77.669  64.448 107.731  0.00  0.00    +0.000 A 
ATOM    141  C   UNK     1      78.988  64.248 107.922  0.00  0.00    +0.000 A 
BRANCH 139 143
ATOM    142  H   UNK     1      74.914  63.649 109.012  0.00  0.00    +0.000 HD
ATOM    143  O   UNK     1      75.411  64.172 108.362  0.00  0.00    +0.000 OA
ENDBRANCH 139 143
BRANCH 137 145
ATOM    144  H   UNK     1      79.552  62.776 111.419  0.00  0.00    +0.000 HD
ATOM    145  O   UNK     1      78.805  62.343 110.977  0.00  0.00    +0.000 OA
ENDBRANCH 137 145
BRANCH 138 147
ATOM    146  H   UNK     1      75.392  63.271 110.420  0.00  0.00    +0.000 HD
ATOM    147  O   UNK     1      76.210  62.756 110.511  0.00  0.00    +0.000 OA
ENDBRANCH 138 147
ENDBRANCH 135 141
ENDBRANCH 133 135
ENDBRANCH 126 133
ENDBRANCH 122 128
ENDBRANCH 120 122
ENDBRANCH   6 120
TORSDOF 56
ENDMDL
MODEL 19
REMARK VINA RESULT:      -8.1      3.189      9.683
REMARK  Name = ./3951.pdb
REMARK  56 active torsions:
REMARK  status: ('A' for Active; 'I' for Inactive)
REMARK    1  A    between atoms: O_1  and  C_2
REMARK    2  A    between atoms: C_4  and  C_10
REMARK    3  A    between atoms: C_6  and  O_9
REMARK    4  A    between atoms: C_7  and  O_8
REMARK    5  A    between atoms: C_10  and  O_12
REMARK    6  A    between atoms: O_12  and  C_13
REMARK    7  A    between atoms: C_14  and  O_15
REMARK    8  A    between atoms: C_16  and  O_78
REMARK    9  A    between atoms: C_18  and  C_20
REMARK   10  A    between atoms: C_20  and  O_22
REMARK   11  A    between atoms: O_22  and  C_23
REMARK   12  A    between atoms: C_23  and  C_24
REMARK   13  A    between atoms: O_79  and  C_85
REMARK   14  A    between atoms: O_80  and  C_82
REMARK   15  A    between atoms: O_83  and  C_84
REMARK   16  A    between atoms: C_87  and  C_89
REMARK   17  A    between atoms: C_89  and  O_90
REMARK   18  A    between atoms: O_90  and  C_96
REMARK   19  A    between atoms: O_91  and  C_93
REMARK   20  A    between atoms: O_94  and  C_95
REMARK   21  A    between atoms: C_98  and  C_100
REMARK   22  A    between atoms: C_100  and  O_101
REMARK   23  A    between atoms: O_101  and  C_102
REMARK   24  A    between atoms: O_103  and  C_109
REMARK   25  A    between atoms: O_104  and  C_106
REMARK   26  A    between atoms: O_107  and  C_108
REMARK   27  A    between atoms: C_111  and  C_113
REMARK   28  A    between atoms: C_113  and  O_114
REMARK   29  A    between atoms: O_114  and  C_120
REMARK   30  A    between atoms: O_115  and  C_117
REMARK   31  A    between atoms: O_118  and  C_119
REMARK   32  A    between atoms: C_122  and  C_124
REMARK   33  A    between atoms: C_124  and  O_125
REMARK   34  A    between atoms: O_125  and  C_126
REMARK   35  A    between atoms: O_127  and  C_133
REMARK   36  A    between atoms: O_128  and  C_130
REMARK   37  A    between atoms: O_131  and  C_132
REMARK   38  A    between atoms: C_135  and  C_137
REMARK   39  A    between atoms: C_137  and  O_138
REMARK   40  A    between atoms: O_138  and  C_144
REMARK   41  A    between atoms: O_139  and  C_141
REMARK   42  A    between atoms: O_142  and  C_143
REMARK   43  A    between atoms: C_146  and  C_148
REMARK   44  A    between atoms: C_148  and  O_149
REMARK   45  A    between atoms: O_149  and  C_150
REMARK   46  A    between atoms: O_151  and  C_157
REMARK   47  A    between atoms: O_152  and  C_154
REMARK   48  A    between atoms: O_155  and  C_156
REMARK   49  A    between atoms: C_159  and  C_161
REMARK   50  A    between atoms: C_161  and  O_162
REMARK   51  A    between atoms: O_162  and  C_168
REMARK   52  A    between atoms: O_163  and  C_165
REMARK   53  A    between atoms: O_166  and  C_167
REMARK   54  A    between atoms: C_170  and  C_172
REMARK   55  A    between atoms: C_172  and  O_173
REMARK   56  A    between atoms: O_173  and  C_174
REMARK                            x       y       z     vdW  Elec       q    Type
REMARK                         _______ _______ _______ _____ _____    ______ ____
ROOT
ATOM      1  C   UNK     1      76.982  65.529 101.358  0.00  0.00    +0.000 C 
ATOM      2  O   UNK     1      75.841  66.196 101.821  0.00  0.00    +0.000 OA
ATOM      3  C   UNK     1      77.377  64.397 102.315  0.00  0.00    +0.000 C 
ATOM      4  C   UNK     1      77.471  64.918 103.755  0.00  0.00    +0.000 C 
ATOM      5  C   UNK     1      76.106  65.518 104.101  0.00  0.00    +0.000 C 
ATOM      6  C   UNK     1      75.928  66.662 103.141  0.00  0.00    +0.000 C 
ENDROOT
BRANCH   5   7
ATOM      7  O   UNK     1      76.085  65.901 105.447  0.00  0.00    +0.000 OA
BRANCH   7   9
ATOM      8  O   UNK     1      74.115  64.915 105.626  0.00  0.00    +0.000 OA
ATOM      9  C   UNK     1      74.936  65.641 106.161  0.00  0.00    +0.000 C 
BRANCH   9  15
ATOM     10  C   UNK     1      74.623  65.481 108.502  0.00  0.00    +0.000 A 
ATOM     11  C   UNK     1      74.360  66.030 109.698  0.00  0.00    +0.000 A 
ATOM     12  C   UNK     1      74.140  67.354 109.782  0.00  0.00    +0.000 A 
ATOM     13  C   UNK     1      74.189  68.128 108.678  0.00  0.00    +0.000 A 
ATOM     14  C   UNK     1      74.470  67.540 107.500  0.00  0.00    +0.000 A 
ATOM     15  C   UNK     1      74.684  66.217 107.378  0.00  0.00    +0.000 A 
BRANCH  11  17
ATOM     16  H   UNK     1      74.831  65.626 111.531  0.00  0.00    +0.000 HD
ATOM     17  O   UNK     1      74.283  65.261 110.818  0.00  0.00    +0.000 OA
ENDBRANCH  11  17
BRANCH  12  19
ATOM     18  H   UNK     1      72.930  68.129 111.055  0.00  0.00    +0.000 HD
ATOM     19  O   UNK     1      73.870  67.889 111.004  0.00  0.00    +0.000 OA
ENDBRANCH  12  19
BRANCH  13  20
ATOM     20  O   UNK     1      73.967  69.481 108.726  0.00  0.00    +0.000 OA
BRANCH  20  22
ATOM     21  O   UNK     1      74.683  70.777 110.371  0.00  0.00    +0.000 OA
ATOM     22  C   UNK     1      74.959  70.238 109.314  0.00  0.00    +0.000 C 
BRANCH  22  28
ATOM     23  C   UNK     1      76.313  70.673 107.433  0.00  0.00    +0.000 A 
ATOM     24  C   UNK     1      77.513  70.824 106.849  0.00  0.00    +0.000 A 
ATOM     25  C   UNK     1      78.627  70.689 107.587  0.00  0.00    +0.000 A 
ATOM     26  C   UNK     1      78.538  70.406 108.898  0.00  0.00    +0.000 A 
ATOM     27  C   UNK     1      77.325  70.260 109.459  0.00  0.00    +0.000 A 
ATOM     28  C   UNK     1      76.193  70.391 108.742  0.00  0.00    +0.000 A 
BRANCH  26  30
ATOM     29  H   UNK     1      79.627  69.443 110.128  0.00  0.00    +0.000 HD
ATOM     30  O   UNK     1      79.680  70.274 109.628  0.00  0.00    +0.000 OA
ENDBRANCH  26  30
BRANCH  24  32
ATOM     31  H   UNK     1      77.379  70.323 105.000  0.00  0.00    +0.000 HD
ATOM     32  O   UNK     1      77.613  71.106 105.523  0.00  0.00    +0.000 OA
ENDBRANCH  24  32
BRANCH  25  34
ATOM     33  H   UNK     1      80.026  70.056 106.455  0.00  0.00    +0.000 HD
ATOM     34  O   UNK     1      79.843  70.839 107.000  0.00  0.00    +0.000 OA
ENDBRANCH  25  34
ENDBRANCH  22  28
ENDBRANCH  20  22
ENDBRANCH  13  20
ENDBRANCH   9  15
ENDBRANCH   7   9
ENDBRANCH   5   7
BRANCH   1  35
ATOM     35  C   UNK     1      76.628  64.999  99.965  0.00  0.00    +0.000 C 
BRANCH  35  36
ATOM     36  O   UNK     1      77.573  65.485  99.040  0.00  0.00    +0.000 OA
BRANCH  36  37
ATOM     37  C   UNK     1      77.202  66.410  98.089  0.00  0.00    +0.000 C 
ATOM     38  O   UNK     1      76.438  66.071  97.205  0.00  0.00    +0.000 OA
BRANCH  37  43
ATOM     39  C   UNK     1      78.357  69.559  99.449  0.00  0.00    +0.000 A 
ATOM     40  C   UNK     1      78.442  70.291  98.323  0.00  0.00    +0.000 A 
ATOM     41  C   UNK     1      78.179  69.739  97.127  0.00  0.00    +0.000 A 
ATOM     42  C   UNK     1      77.764  68.463  97.068  0.00  0.00    +0.000 A 
ATOM     43  C   UNK     1      77.628  67.710  98.174  0.00  0.00    +0.000 A 
ATOM     44  C   UNK     1      77.946  68.280  99.351  0.00  0.00    +0.000 A 
BRANCH  41  46
ATOM     45  H   UNK     1      79.062  70.034  95.450  0.00  0.00    +0.000 HD
ATOM     46  O   UNK     1      78.388  70.475  96.000  0.00  0.00    +0.000 OA
ENDBRANCH  41  46
BRANCH  40  47
ATOM     47  O   UNK     1      78.868  71.582  98.364  0.00  0.00    +0.000 OA
ATOM     48  H   UNK     1      79.405  71.737  97.567  0.00  0.00    +0.000 HD
ENDBRANCH  40  47
BRANCH  39  49
ATOM     49  O   UNK     1      78.698  70.128 100.649  0.00  0.00    +0.000 OA
BRANCH  49  50
ATOM     50  C   UNK     1      79.946  69.785 101.119  0.00  0.00    +0.000 C 
ATOM     51  O   UNK     1      80.890  70.195 100.468  0.00  0.00    +0.000 OA
BRANCH  50  54
ATOM     52  C   UNK     1      79.301  68.164 104.267  0.00  0.00    +0.000 A 
ATOM     53  C   UNK     1      79.151  68.909 103.159  0.00  0.00    +0.000 A 
ATOM     54  C   UNK     1      80.129  69.028 102.244  0.00  0.00    +0.000 A 
ATOM     55  C   UNK     1      81.282  68.374 102.476  0.00  0.00    +0.000 A 
ATOM     56  C   UNK     1      81.462  67.629 103.579  0.00  0.00    +0.000 A 
ATOM     57  C   UNK     1      80.469  67.534 104.481  0.00  0.00    +0.000 A 
BRANCH  52  58
ATOM     58  O   UNK     1      78.306  68.067 105.189  0.00  0.00    +0.000 OA
ATOM     59  H   UNK     1      77.552  68.606 104.899  0.00  0.00    +0.000 HD
ENDBRANCH  52  58
BRANCH  57  60
ATOM     60  O   UNK     1      80.632  66.769 105.593  0.00  0.00    +0.000 OA
ATOM     61  H   UNK     1      79.796  66.734 106.083  0.00  0.00    +0.000 HD
ENDBRANCH  57  60
BRANCH  56  62
ATOM     62  O   UNK     1      82.630  66.968 103.805  0.00  0.00    +0.000 OA
ATOM     63  H   UNK     1      83.170  67.011 102.999  0.00  0.00    +0.000 HD
ENDBRANCH  56  62
ENDBRANCH  50  54
ENDBRANCH  49  50
ENDBRANCH  39  49
ENDBRANCH  37  43
ENDBRANCH  36  37
ENDBRANCH  35  36
ENDBRANCH   1  35
BRANCH   4  64
ATOM     64  O   UNK     1      77.746  63.910 104.667  0.00  0.00    +0.000 OA
BRANCH  64  66
ATOM     65  O   UNK     1      79.878  63.998 104.936  0.00  0.00    +0.000 OA
ATOM     66  C   UNK     1      78.821  63.871 105.536  0.00  0.00    +0.000 C 
BRANCH  66  72
ATOM     67  C   UNK     1      79.964  63.708 107.681  0.00  0.00    +0.000 A 
ATOM     68  C   UNK     1      79.932  63.508 109.008  0.00  0.00    +0.000 A 
ATOM     69  C   UNK     1      78.748  63.351 109.623  0.00  0.00    +0.000 A 
ATOM     70  C   UNK     1      77.599  63.423 108.921  0.00  0.00    +0.000 A 
ATOM     71  C   UNK     1      77.704  63.644 107.595  0.00  0.00    +0.000 A 
ATOM     72  C   UNK     1      78.861  63.746 106.910  0.00  0.00    +0.000 A 
BRANCH  68  74
ATOM     73  H   UNK     1      81.879  63.375 109.195  0.00  0.00    +0.000 HD
ATOM     74  O   UNK     1      81.080  63.480 109.741  0.00  0.00    +0.000 OA
ENDBRANCH  68  74
BRANCH  69  76
ATOM     75  H   UNK     1      79.204  63.860 111.410  0.00  0.00    +0.000 HD
ATOM     76  O   UNK     1      78.729  63.138 110.967  0.00  0.00    +0.000 OA
ENDBRANCH  69  76
BRANCH  70  77
ATOM     77  O   UNK     1      76.402  63.238 109.577  0.00  0.00    +0.000 OA
BRANCH  77  79
ATOM     78  O   UNK     1      76.535  61.241 110.531  0.00  0.00    +0.000 OA
ATOM     79  C   UNK     1      75.930  61.950 109.746  0.00  0.00    +0.000 C 
BRANCH  79  85
ATOM     80  C   UNK     1      74.377  60.219 109.306  0.00  0.00    +0.000 A 
ATOM     81  C   UNK     1      73.348  59.706 108.614  0.00  0.00    +0.000 A 
ATOM     82  C   UNK     1      72.719  60.468 107.704  0.00  0.00    +0.000 A 
ATOM     83  C   UNK     1      73.120  61.731 107.490  0.00  0.00    +0.000 A 
ATOM     84  C   UNK     1      74.164  62.215 108.182  0.00  0.00    +0.000 A 
ATOM     85  C   UNK     1      74.823  61.472 109.092  0.00  0.00    +0.000 A 
BRANCH  83  87
ATOM     86  H   UNK     1      73.007  63.277 106.383  0.00  0.00    +0.000 HD
ATOM     87  O   UNK     1      72.479  62.478 106.550  0.00  0.00    +0.000 OA
ENDBRANCH  83  87
BRANCH  81  89
ATOM     88  H   UNK     1      71.984  58.358 108.750  0.00  0.00    +0.000 HD
ATOM     89  O   UNK     1      72.951  58.419 108.794  0.00  0.00    +0.000 OA
ENDBRANCH  81  89
BRANCH  82  91
ATOM     90  H   UNK     1      71.658  60.400 106.119  0.00  0.00    +0.000 HD
ATOM     91  O   UNK     1      71.705  59.936 106.972  0.00  0.00    +0.000 OA
ENDBRANCH  82  91
ENDBRANCH  79  85
ENDBRANCH  77  79
ENDBRANCH  70  77
ENDBRANCH  66  72
ENDBRANCH  64  66
ENDBRANCH   4  64
BRANCH   3  92
ATOM     92  O   UNK     1      78.502  63.721 101.809  0.00  0.00    +0.000 OA
BRANCH  92  94
ATOM     93  O   UNK     1      78.374  62.264 100.121  0.00  0.00    +0.000 OA
ATOM     94  C   UNK     1      78.375  62.436 101.326  0.00  0.00    +0.000 C 
BRANCH  94 100
ATOM     95  C   UNK     1      79.312  61.001 103.000  0.00  0.00    +0.000 A 
ATOM     96  C   UNK     1      79.153  59.983 103.865  0.00  0.00    +0.000 A 
ATOM     97  C   UNK     1      77.959  59.365 103.971  0.00  0.00    +0.000 A 
ATOM     98  C   UNK     1      76.923  59.729 103.190  0.00  0.00    +0.000 A 
ATOM     99  C   UNK     1      77.161  60.690 102.280  0.00  0.00    +0.000 A 
ATOM    100  C   UNK     1      78.313  61.369 102.182  0.00  0.00    +0.000 A 
BRANCH  96 102
ATOM    101  H   UNK     1      79.830  59.357 105.564  0.00  0.00    +0.000 HD
ATOM    102  O   UNK     1      80.170  59.630 104.696  0.00  0.00    +0.000 OA
ENDBRANCH  96 102
BRANCH  97 104
ATOM    103  H   UNK     1      77.153  57.747 104.593  0.00  0.00    +0.000 HD
ATOM    104  O   UNK     1      77.807  58.392 104.910  0.00  0.00    +0.000 OA
ENDBRANCH  97 104
BRANCH  98 105
ATOM    105  O   UNK     1      75.666  59.175 103.323  0.00  0.00    +0.000 OA
BRANCH 105 107
ATOM    106  O   UNK     1      75.051  59.933 105.326  0.00  0.00    +0.000 OA
ATOM    107  C   UNK     1      74.839  59.949 104.126  0.00  0.00    +0.000 C 
BRANCH 107 113
ATOM    108  C   UNK     1      72.743  60.309 103.096  0.00  0.00    +0.000 A 
ATOM    109  C   UNK     1      71.834  61.106 102.511  0.00  0.00    +0.000 A 
ATOM    110  C   UNK     1      72.086  62.421 102.401  0.00  0.00    +0.000 A 
ATOM    111  C   UNK     1      73.222  62.936 102.901  0.00  0.00    +0.000 A 
ATOM    112  C   UNK     1      74.104  62.120 103.503  0.00  0.00    +0.000 A 
ATOM    113  C   UNK     1      73.892  60.793 103.602  0.00  0.00    +0.000 A 
BRANCH 111 115
ATOM    114  H   UNK     1      72.932  64.773 103.348  0.00  0.00    +0.000 HD
ATOM    115  O   UNK     1      73.479  64.261 102.725  0.00  0.00    +0.000 OA
ENDBRANCH 111 115
BRANCH 109 117
ATOM    116  H   UNK     1      70.126  60.250 102.719  0.00  0.00    +0.000 HD
ATOM    117  O   UNK     1      70.681  60.595 102.002  0.00  0.00    +0.000 OA
ENDBRANCH 109 117
BRANCH 110 119
ATOM    118  H   UNK     1      71.111  62.955 100.850  0.00  0.00    +0.000 HD
ATOM    119  O   UNK     1      71.184  63.226 101.779  0.00  0.00    +0.000 OA
ENDBRANCH 110 119
ENDBRANCH 107 113
ENDBRANCH 105 107
ENDBRANCH  98 105
ENDBRANCH  94 100
ENDBRANCH  92  94
ENDBRANCH   3  92
BRANCH   6 120
ATOM    120  O   UNK     1      74.765  67.407 103.390  0.00  0.00    +0.000 OA
BRANCH 120 122
ATOM    121  O   UNK     1      75.827  69.204 104.193  0.00  0.00    +0.000 OA
ATOM    122  C   UNK     1      74.780  68.711 103.824  0.00  0.00    +0.000 C 
BRANCH 122 128
ATOM    123  C   UNK     1      72.947  69.939 102.900  0.00  0.00    +0.000 A 
ATOM    124  C   UNK     1      71.825  70.648 103.110  0.00  0.00    +0.000 A 
ATOM    125  C   UNK     1      71.361  70.836 104.362  0.00  0.00    +0.000 A 
ATOM    126  C   UNK     1      71.936  70.217 105.412  0.00  0.00    +0.000 A 
ATOM    127  C   UNK     1      73.036  69.497 105.146  0.00  0.00    +0.000 A 
ATOM    128  C   UNK     1      73.590  69.373 103.932  0.00  0.00    +0.000 A 
BRANCH 124 130
ATOM    129  H   UNK     1      71.839  71.887 101.637  0.00  0.00    +0.000 HD
ATOM    130  O   UNK     1      71.212  71.285 102.077  0.00  0.00    +0.000 OA
ENDBRANCH 124 130
BRANCH 125 132
ATOM    131  H   UNK     1      70.625  72.561 104.735  0.00  0.00    +0.000 HD
ATOM    132  O   UNK     1      70.301  71.667 104.539  0.00  0.00    +0.000 OA
ENDBRANCH 125 132
BRANCH 126 133
ATOM    133  O   UNK     1      71.481  70.340 106.706  0.00  0.00    +0.000 OA
BRANCH 133 135
ATOM    134  O   UNK     1      69.324  69.869 106.847  0.00  0.00    +0.000 OA
ATOM    135  C   UNK     1      70.459  69.457 107.019  0.00  0.00    +0.000 C 
BRANCH 135 141
ATOM    136  C   UNK     1      70.965  67.168 106.600  0.00  0.00    +0.000 A 
ATOM    137  C   UNK     1      71.072  65.890 107.007  0.00  0.00    +0.000 A 
ATOM    138  C   UNK     1      70.924  65.600 108.308  0.00  0.00    +0.000 A 
ATOM    139  C   UNK     1      70.690  66.581 109.195  0.00  0.00    +0.000 A 
ATOM    140  C   UNK     1      70.556  67.844 108.755  0.00  0.00    +0.000 A 
ATOM    141  C   UNK     1      70.667  68.170 107.452  0.00  0.00    +0.000 A 
BRANCH 139 143
ATOM    142  H   UNK     1      71.450  66.159 110.889  0.00  0.00    +0.000 HD
ATOM    143  O   UNK     1      70.561  66.268 110.512  0.00  0.00    +0.000 OA
ENDBRANCH 139 143
BRANCH 137 145
ATOM    144  H   UNK     1      71.238  65.205 105.220  0.00  0.00    +0.000 HD
ATOM    145  O   UNK     1      71.324  64.881 106.130  0.00  0.00    +0.000 OA
ENDBRANCH 137 145
BRANCH 138 147
ATOM    146  H   UNK     1      70.966  63.730 107.954  0.00  0.00    +0.000 HD
ATOM    147  O   UNK     1      71.058  64.314 108.724  0.00  0.00    +0.000 OA
ENDBRANCH 138 147
ENDBRANCH 135 141
ENDBRANCH 133 135
ENDBRANCH 126 133
ENDBRANCH 122 128
ENDBRANCH 120 122
ENDBRANCH   6 120
TORSDOF 56
ENDMDL
MODEL 20
REMARK VINA RESULT:      -8.1      2.987      9.752
REMARK  Name = ./3951.pdb
REMARK  56 active torsions:
REMARK  status: ('A' for Active; 'I' for Inactive)
REMARK    1  A    between atoms: O_1  and  C_2
REMARK    2  A    between atoms: C_4  and  C_10
REMARK    3  A    between atoms: C_6  and  O_9
REMARK    4  A    between atoms: C_7  and  O_8
REMARK    5  A    between atoms: C_10  and  O_12
REMARK    6  A    between atoms: O_12  and  C_13
REMARK    7  A    between atoms: C_14  and  O_15
REMARK    8  A    between atoms: C_16  and  O_78
REMARK    9  A    between atoms: C_18  and  C_20
REMARK   10  A    between atoms: C_20  and  O_22
REMARK   11  A    between atoms: O_22  and  C_23
REMARK   12  A    between atoms: C_23  and  C_24
REMARK   13  A    between atoms: O_79  and  C_85
REMARK   14  A    between atoms: O_80  and  C_82
REMARK   15  A    between atoms: O_83  and  C_84
REMARK   16  A    between atoms: C_87  and  C_89
REMARK   17  A    between atoms: C_89  and  O_90
REMARK   18  A    between atoms: O_90  and  C_96
REMARK   19  A    between atoms: O_91  and  C_93
REMARK   20  A    between atoms: O_94  and  C_95
REMARK   21  A    between atoms: C_98  and  C_100
REMARK   22  A    between atoms: C_100  and  O_101
REMARK   23  A    between atoms: O_101  and  C_102
REMARK   24  A    between atoms: O_103  and  C_109
REMARK   25  A    between atoms: O_104  and  C_106
REMARK   26  A    between atoms: O_107  and  C_108
REMARK   27  A    between atoms: C_111  and  C_113
REMARK   28  A    between atoms: C_113  and  O_114
REMARK   29  A    between atoms: O_114  and  C_120
REMARK   30  A    between atoms: O_115  and  C_117
REMARK   31  A    between atoms: O_118  and  C_119
REMARK   32  A    between atoms: C_122  and  C_124
REMARK   33  A    between atoms: C_124  and  O_125
REMARK   34  A    between atoms: O_125  and  C_126
REMARK   35  A    between atoms: O_127  and  C_133
REMARK   36  A    between atoms: O_128  and  C_130
REMARK   37  A    between atoms: O_131  and  C_132
REMARK   38  A    between atoms: C_135  and  C_137
REMARK   39  A    between atoms: C_137  and  O_138
REMARK   40  A    between atoms: O_138  and  C_144
REMARK   41  A    between atoms: O_139  and  C_141
REMARK   42  A    between atoms: O_142  and  C_143
REMARK   43  A    between atoms: C_146  and  C_148
REMARK   44  A    between atoms: C_148  and  O_149
REMARK   45  A    between atoms: O_149  and  C_150
REMARK   46  A    between atoms: O_151  and  C_157
REMARK   47  A    between atoms: O_152  and  C_154
REMARK   48  A    between atoms: O_155  and  C_156
REMARK   49  A    between atoms: C_159  and  C_161
REMARK   50  A    between atoms: C_161  and  O_162
REMARK   51  A    between atoms: O_162  and  C_168
REMARK   52  A    between atoms: O_163  and  C_165
REMARK   53  A    between atoms: O_166  and  C_167
REMARK   54  A    between atoms: C_170  and  C_172
REMARK   55  A    between atoms: C_172  and  O_173
REMARK   56  A    between atoms: O_173  and  C_174
REMARK                            x       y       z     vdW  Elec       q    Type
REMARK                         _______ _______ _______ _____ _____    ______ ____
ROOT
ATOM      1  C   UNK     1      75.957  66.639 107.442  0.00  0.00    +0.000 C 
ATOM      2  O   UNK     1      75.805  65.527 106.603  0.00  0.00    +0.000 OA
ATOM      3  C   UNK     1      74.830  66.695 108.481  0.00  0.00    +0.000 C 
ATOM      4  C   UNK     1      73.461  66.582 107.797  0.00  0.00    +0.000 C 
ATOM      5  C   UNK     1      73.462  65.266 107.015  0.00  0.00    +0.000 C 
ATOM      6  C   UNK     1      74.549  65.424 105.987  0.00  0.00    +0.000 C 
ENDROOT
BRANCH   5   7
ATOM      7  O   UNK     1      72.194  65.041 106.466  0.00  0.00    +0.000 OA
BRANCH   7   9
ATOM      8  O   UNK     1      71.410  63.390 107.708  0.00  0.00    +0.000 OA
ATOM      9  C   UNK     1      71.672  63.771 106.580  0.00  0.00    +0.000 C 
BRANCH   9  15
ATOM     10  C   UNK     1      71.184  63.427 104.289  0.00  0.00    +0.000 A 
ATOM     11  C   UNK     1      71.011  62.627 103.227  0.00  0.00    +0.000 A 
ATOM     12  C   UNK     1      71.164  61.298 103.369  0.00  0.00    +0.000 A 
ATOM     13  C   UNK     1      71.495  60.772 104.567  0.00  0.00    +0.000 A 
ATOM     14  C   UNK     1      71.672  61.611 105.605  0.00  0.00    +0.000 A 
ATOM     15  C   UNK     1      71.516  62.943 105.500  0.00  0.00    +0.000 A 
BRANCH  11  17
ATOM     16  H   UNK     1      71.228  63.883 101.770  0.00  0.00    +0.000 HD
ATOM     17  O   UNK     1      70.655  63.139 102.017  0.00  0.00    +0.000 OA
ENDBRANCH  11  17
BRANCH  12  19
ATOM     18  H   UNK     1      70.108  60.080 102.328  0.00  0.00    +0.000 HD
ATOM     19  O   UNK     1      70.979  60.504 102.280  0.00  0.00    +0.000 OA
ENDBRANCH  12  19
BRANCH  13  20
ATOM     20  O   UNK     1      71.656  59.422 104.749  0.00  0.00    +0.000 OA
BRANCH  20  22
ATOM     21  O   UNK     1      72.880  58.931 106.525  0.00  0.00    +0.000 OA
ATOM     22  C   UNK     1      72.850  59.024 105.311  0.00  0.00    +0.000 C 
BRANCH  22  28
ATOM     23  C   UNK     1      73.880  58.730 103.210  0.00  0.00    +0.000 A 
ATOM     24  C   UNK     1      74.951  58.464 102.445  0.00  0.00    +0.000 A 
ATOM     25  C   UNK     1      76.133  58.209 103.031  0.00  0.00    +0.000 A 
ATOM     26  C   UNK     1      76.239  58.224 104.370  0.00  0.00    +0.000 A 
ATOM     27  C   UNK     1      75.152  58.494 105.114  0.00  0.00    +0.000 A 
ATOM     28  C   UNK     1      73.956  58.752 104.552  0.00  0.00    +0.000 A 
BRANCH  26  30
ATOM     29  H   UNK     1      77.734  58.759 105.422  0.00  0.00    +0.000 HD
ATOM     30  O   UNK     1      77.446  57.964 104.944  0.00  0.00    +0.000 OA
ENDBRANCH  26  30
BRANCH  24  32
ATOM     31  H   UNK     1      74.307  57.691 100.809  0.00  0.00    +0.000 HD
ATOM     32  O   UNK     1      74.853  58.442 101.089  0.00  0.00    +0.000 OA
ENDBRANCH  24  32
BRANCH  25  34
ATOM     33  H   UNK     1      76.921  57.510 101.440  0.00  0.00    +0.000 HD
ATOM     34  O   UNK     1      77.219  57.936 102.261  0.00  0.00    +0.000 OA
ENDBRANCH  25  34
ENDBRANCH  22  28
ENDBRANCH  20  22
ENDBRANCH  13  20
ENDBRANCH   9  15
ENDBRANCH   7   9
ENDBRANCH   5   7
BRANCH   1  35
ATOM     35  C   UNK     1      77.331  66.489 108.102  0.00  0.00    +0.000 C 
BRANCH  35  36
ATOM     36  O   UNK     1      78.007  65.407 107.503  0.00  0.00    +0.000 OA
BRANCH  36  37
ATOM     37  C   UNK     1      79.100  65.631 106.695  0.00  0.00    +0.000 C 
ATOM     38  O   UNK     1      79.575  66.750 106.646  0.00  0.00    +0.000 OA
BRANCH  37  43
ATOM     39  C   UNK     1      79.990  63.341 104.037  0.00  0.00    +0.000 A 
ATOM     40  C   UNK     1      80.846  62.534 104.691  0.00  0.00    +0.000 A 
ATOM     41  C   UNK     1      81.170  62.776 105.972  0.00  0.00    +0.000 A 
ATOM     42  C   UNK     1      80.580  63.794 106.620  0.00  0.00    +0.000 A 
ATOM     43  C   UNK     1      79.689  64.599 106.013  0.00  0.00    +0.000 A 
ATOM     44  C   UNK     1      79.424  64.357 104.716  0.00  0.00    +0.000 A 
BRANCH  41  46
ATOM     45  H   UNK     1      82.335  62.381 107.445  0.00  0.00    +0.000 HD
ATOM     46  O   UNK     1      82.127  62.010 106.567  0.00  0.00    +0.000 OA
ENDBRANCH  41  46
BRANCH  40  47
ATOM     47  O   UNK     1      81.458  61.504 104.049  0.00  0.00    +0.000 OA
ATOM     48  H   UNK     1      80.992  60.687 104.299  0.00  0.00    +0.000 HD
ENDBRANCH  40  47
BRANCH  39  49
ATOM     49  O   UNK     1      79.730  63.113 102.711  0.00  0.00    +0.000 OA
BRANCH  49  50
ATOM     50  C   UNK     1      80.072  64.145 101.867  0.00  0.00    +0.000 C 
ATOM     51  O   UNK     1      81.220  64.544 101.954  0.00  0.00    +0.000 OA
BRANCH  50  54
ATOM     52  C   UNK     1      78.626  65.314  98.786  0.00  0.00    +0.000 A 
ATOM     53  C   UNK     1      79.482  64.782  99.675  0.00  0.00    +0.000 A 
ATOM     54  C   UNK     1      79.187  64.701 100.984  0.00  0.00    +0.000 A 
ATOM     55  C   UNK     1      77.995  65.180 101.385  0.00  0.00    +0.000 A 
ATOM     56  C   UNK     1      77.125  65.725 100.519  0.00  0.00    +0.000 A 
ATOM     57  C   UNK     1      77.449  65.799  99.217  0.00  0.00    +0.000 A 
BRANCH  52  58
ATOM     58  O   UNK     1      78.947  65.401  97.467  0.00  0.00    +0.000 OA
ATOM     59  H   UNK     1      78.384  66.073  97.048  0.00  0.00    +0.000 HD
ENDBRANCH  52  58
BRANCH  57  60
ATOM     60  O   UNK     1      76.570  66.331  98.326  0.00  0.00    +0.000 OA
ATOM     61  H   UNK     1      75.843  66.755  98.809  0.00  0.00    +0.000 HD
ENDBRANCH  57  60
BRANCH  56  62
ATOM     62  O   UNK     1      75.920  66.204 100.932  0.00  0.00    +0.000 OA
ATOM     63  H   UNK     1      75.471  65.511 101.444  0.00  0.00    +0.000 HD
ENDBRANCH  56  62
ENDBRANCH  50  54
ENDBRANCH  49  50
ENDBRANCH  39  49
ENDBRANCH  37  43
ENDBRANCH  36  37
ENDBRANCH  35  36
ENDBRANCH   1  35
BRANCH   4  64
ATOM     64  O   UNK     1      72.414  66.546 108.706  0.00  0.00    +0.000 OA
BRANCH  64  66
ATOM     65  O   UNK     1      70.509  67.060 109.562  0.00  0.00    +0.000 OA
ATOM     66  C   UNK     1      71.351  67.430 108.757  0.00  0.00    +0.000 C 
BRANCH  66  72
ATOM     67  C   UNK     1      70.045  68.949 107.373  0.00  0.00    +0.000 A 
ATOM     68  C   UNK     1      69.935  70.094 106.680  0.00  0.00    +0.000 A 
ATOM     69  C   UNK     1      70.948  70.976 106.698  0.00  0.00    +0.000 A 
ATOM     70  C   UNK     1      72.055  70.729 107.427  0.00  0.00    +0.000 A 
ATOM     71  C   UNK     1      72.092  69.569 108.112  0.00  0.00    +0.000 A 
ATOM     72  C   UNK     1      71.137  68.616 108.086  0.00  0.00    +0.000 A 
BRANCH  68  74
ATOM     73  H   UNK     1      68.717  71.327 105.762  0.00  0.00    +0.000 HD
ATOM     74  O   UNK     1      68.804  70.381 105.977  0.00  0.00    +0.000 OA
ENDBRANCH  68  74
BRANCH  69  76
ATOM     75  H   UNK     1      70.451  71.923 105.112  0.00  0.00    +0.000 HD
ATOM     76  O   UNK     1      70.829  72.128 105.983  0.00  0.00    +0.000 OA
ENDBRANCH  69  76
BRANCH  70  77
ATOM     77  O   UNK     1      73.085  71.643 107.408  0.00  0.00    +0.000 OA
BRANCH  77  79
ATOM     78  O   UNK     1      73.929  71.693 105.359  0.00  0.00    +0.000 OA
ATOM     79  C   UNK     1      74.135  71.442 106.534  0.00  0.00    +0.000 C 
BRANCH  79  85
ATOM     80  C   UNK     1      76.204  70.383 106.084  0.00  0.00    +0.000 A 
ATOM     81  C   UNK     1      77.379  69.873 106.485  0.00  0.00    +0.000 A 
ATOM     82  C   UNK     1      77.755  70.008 107.767  0.00  0.00    +0.000 A 
ATOM     83  C   UNK     1      76.960  70.649 108.638  0.00  0.00    +0.000 A 
ATOM     84  C   UNK     1      75.780  71.135 108.217  0.00  0.00    +0.000 A 
ATOM     85  C   UNK     1      75.369  71.003 106.941  0.00  0.00    +0.000 A 
BRANCH  83  87
ATOM     86  H   UNK     1      78.187  70.272 110.046  0.00  0.00    +0.000 HD
ATOM     87  O   UNK     1      77.353  70.759 109.936  0.00  0.00    +0.000 OA
ENDBRANCH  83  87
BRANCH  81  89
ATOM     88  H   UNK     1      77.881  69.327 104.711  0.00  0.00    +0.000 HD
ATOM     89  O   UNK     1      78.180  69.193 105.624  0.00  0.00    +0.000 OA
ENDBRANCH  81  89
BRANCH  82  91
ATOM     90  H   UNK     1      78.947  69.467 109.155  0.00  0.00    +0.000 HD
ATOM     91  O   UNK     1      78.924  69.454 108.183  0.00  0.00    +0.000 OA
ENDBRANCH  82  91
ENDBRANCH  79  85
ENDBRANCH  77  79
ENDBRANCH  70  77
ENDBRANCH  66  72
ENDBRANCH  64  66
ENDBRANCH   4  64
BRANCH   3  92
ATOM     92  O   UNK     1      75.025  67.798 109.332  0.00  0.00    +0.000 OA
BRANCH  92  94
ATOM     93  O   UNK     1      76.240  68.344 111.125  0.00  0.00    +0.000 OA
ATOM     94  C   UNK     1      75.408  67.599 110.641  0.00  0.00    +0.000 C 
BRANCH  94 100
ATOM     95  C   UNK     1      73.539  66.649 111.801  0.00  0.00    +0.000 A 
ATOM     96  C   UNK     1      73.012  65.619 112.488  0.00  0.00    +0.000 A 
ATOM     97  C   UNK     1      73.748  64.514 112.721  0.00  0.00    +0.000 A 
ATOM     98  C   UNK     1      75.028  64.438 112.307  0.00  0.00    +0.000 A 
ATOM     99  C   UNK     1      75.534  65.529 111.706  0.00  0.00    +0.000 A 
ATOM    100  C   UNK     1      74.821  66.624 111.401  0.00  0.00    +0.000 A 
BRANCH  96 102
ATOM    101  H   UNK     1      71.384  64.763 113.081  0.00  0.00    +0.000 HD
ATOM    102  O   UNK     1      71.708  65.654 112.874  0.00  0.00    +0.000 OA
ENDBRANCH  96 102
BRANCH  97 104
ATOM    103  H   UNK     1      73.856  62.853 113.662  0.00  0.00    +0.000 HD
ATOM    104  O   UNK     1      73.162  63.458 113.349  0.00  0.00    +0.000 OA
ENDBRANCH  97 104
BRANCH  98 105
ATOM    105  O   UNK     1      75.788  63.296 112.458  0.00  0.00    +0.000 OA
BRANCH 105 107
ATOM    106  O   UNK     1      77.806  63.153 111.523  0.00  0.00    +0.000 OA
ATOM    107  C   UNK     1      76.602  63.063 111.357  0.00  0.00    +0.000 C 
BRANCH 107 113
ATOM    108  C   UNK     1      76.720  62.945 109.001  0.00  0.00    +0.000 A 
ATOM    109  C   UNK     1      76.210  62.601 107.806  0.00  0.00    +0.000 A 
ATOM    110  C   UNK     1      75.034  61.955 107.755  0.00  0.00    +0.000 A 
ATOM    111  C   UNK     1      74.393  61.626 108.889  0.00  0.00    +0.000 A 
ATOM    112  C   UNK     1      74.937  61.961 110.072  0.00  0.00    +0.000 A 
ATOM    113  C   UNK     1      76.099  62.635 110.154  0.00  0.00    +0.000 A 
BRANCH 111 115
ATOM    114  H   UNK     1      72.592  61.565 108.249  0.00  0.00    +0.000 HD
ATOM    115  O   UNK     1      73.175  61.022 108.808  0.00  0.00    +0.000 OA
ENDBRANCH 111 115
BRANCH 109 117
ATOM    116  H   UNK     1      76.841  62.175 106.042  0.00  0.00    +0.000 HD
ATOM    117  O   UNK     1      76.851  62.929 106.652  0.00  0.00    +0.000 OA
ENDBRANCH 109 117
BRANCH 110 119
ATOM    118  H   UNK     1      73.891  62.344 106.277  0.00  0.00    +0.000 HD
ATOM    119  O   UNK     1      74.497  61.635 106.547  0.00  0.00    +0.000 OA
ENDBRANCH 110 119
ENDBRANCH 107 113
ENDBRANCH 105 107
ENDBRANCH  98 105
ENDBRANCH  94 100
ENDBRANCH  92  94
ENDBRANCH   3  92
BRANCH   6 120
ATOM    120  O   UNK     1      74.618  64.341 105.096  0.00  0.00    +0.000 OA
BRANCH 120 122
ATOM    121  O   UNK     1      73.946  65.425 103.260  0.00  0.00    +0.000 OA
ATOM    122  C   UNK     1      74.544  64.479 103.732  0.00  0.00    +0.000 C 
BRANCH 122 128
ATOM    123  C   UNK     1      76.086  62.702 103.299  0.00  0.00    +0.000 A 
ATOM    124  C   UNK     1      76.577  61.801 102.431  0.00  0.00    +0.000 A 
ATOM    125  C   UNK     1      76.068  61.704 101.187  0.00  0.00    +0.000 A 
ATOM    126  C   UNK     1      74.979  62.413 100.829  0.00  0.00    +0.000 A 
ATOM    127  C   UNK     1      74.508  63.277 101.741  0.00  0.00    +0.000 A 
ATOM    128  C   UNK     1      75.052  63.480 102.949  0.00  0.00    +0.000 A 
BRANCH 124 130
ATOM    129  H   UNK     1      78.242  61.561 103.369  0.00  0.00    +0.000 HD
ATOM    130  O   UNK     1      77.673  61.063 102.755  0.00  0.00    +0.000 OA
ENDBRANCH 124 130
BRANCH 125 132
ATOM    131  H   UNK     1      76.075  60.693  99.564  0.00  0.00    +0.000 HD
ATOM    132  O   UNK     1      76.679  60.875 100.302  0.00  0.00    +0.000 OA
ENDBRANCH 125 132
BRANCH 126 133
ATOM    133  O   UNK     1      74.392  62.325  99.586  0.00  0.00    +0.000 OA
BRANCH 133 135
ATOM    134  O   UNK     1      73.084  60.825 100.552  0.00  0.00    +0.000 OA
ATOM    135  C   UNK     1      73.435  61.325  99.497  0.00  0.00    +0.000 C 
BRANCH 135 141
ATOM    136  C   UNK     1      73.126  59.733  97.753  0.00  0.00    +0.000 A 
ATOM    137  C   UNK     1      72.636  59.381  96.550  0.00  0.00    +0.000 A 
ATOM    138  C   UNK     1      71.812  60.220  95.905  0.00  0.00    +0.000 A 
ATOM    139  C   UNK     1      71.467  61.390  96.467  0.00  0.00    +0.000 A 
ATOM    140  C   UNK     1      71.998  61.729  97.654  0.00  0.00    +0.000 A 
ATOM    141  C   UNK     1      72.854  60.927  98.317  0.00  0.00    +0.000 A 
BRANCH 139 143
ATOM    142  H   UNK     1      69.810  61.720  95.588  0.00  0.00    +0.000 HD
ATOM    143  O   UNK     1      70.615  62.219  95.805  0.00  0.00    +0.000 OA
ENDBRANCH 139 143
BRANCH 137 145
ATOM    144  H   UNK     1      73.912  58.036  96.046  0.00  0.00    +0.000 HD
ATOM    145  O   UNK     1      72.958  58.194  95.968  0.00  0.00    +0.000 OA
ENDBRANCH 137 145
BRANCH 138 147
ATOM    146  H   UNK     1      70.672  59.123  94.847  0.00  0.00    +0.000 HD
ATOM    147  O   UNK     1      71.295  59.855  94.704  0.00  0.00    +0.000 OA
ENDBRANCH 138 147
ENDBRANCH 135 141
ENDBRANCH 133 135
ENDBRANCH 126 133
ENDBRANCH 122 128
ENDBRANCH 120 122
ENDBRANCH   6 120
TORSDOF 56
ENDMDL
