MODEL 1
REMARK VINA RESULT:      -8.3      0.000      0.000
REMARK  Name = ./S1022.pdb
REMARK  22 active torsions:
REMARK  status: ('A' for Active; 'I' for Inactive)
REMARK    1  A    between atoms: C1_1  and  O1_2
REMARK    2  A    between atoms: O1_2  and  C2_3
REMARK    3  A    between atoms: C4_5  and  C10_14
REMARK    4  A    between atoms: C7_8  and  O2_9
REMARK    5  A    between atoms: O2_9  and  P1_10
REMARK    6  A    between atoms: P1_10  and  C8_11
REMARK    7  A    between atoms: P1_10  and  C9_12
REMARK    8  A    between atoms: C10_14  and  C11_15
REMARK    9  A    between atoms: C11_15  and  C12_16
REMARK   10  A    between atoms: C11_15  and  C13_17
REMARK   11  A    between atoms: C16_21  and  C17_22
REMARK   12  A    between atoms: C19_24  and  C20_25
REMARK   13  A    between atoms: C21_26  and  O5_27
REMARK   14  A    between atoms: C22_28  and  O6_29
REMARK   15  A    between atoms: O6_29  and  C23_30
REMARK   16  A    between atoms: C25_33  and  C26_34
REMARK   17  A    between atoms: C28_36  and  C29_37
REMARK   18  A    between atoms: C35_43  and  C36_44
REMARK   19  A    between atoms: C37_45  and  O14_68
REMARK   20  A    between atoms: C42_50  and  C43_51
REMARK   21  A    between atoms: C44_52  and  O8_53
REMARK   22  A    between atoms: O14_68  and  C53_69
REMARK                            x       y       z     vdW  Elec       q    Type
REMARK                         _______ _______ _______ _____ _____    ______ ____
ROOT
ATOM      1  C13 UNL     1      77.426  68.023 100.144  0.00  0.00    +0.000 C 
ATOM      2  C14 UNL     1      77.581  68.495 101.602  0.00  0.00    +0.000 C 
ATOM      3  C15 UNL     1      78.988  68.364 102.155  0.00  0.00    +0.000 C 
ATOM      4  O4  UNL     1      79.942  68.346 101.390  0.00  0.00    +0.000 OA
ATOM      5  C16 UNL     1      79.257  68.440 103.640  0.00  0.00    +0.000 C 
ATOM      6  C17 UNL     1      78.995  69.860 104.157  0.00  0.00    +0.000 C 
ATOM      7  C18 UNL     1      78.406  67.447 104.407  0.00  0.00    +0.000 C 
ATOM      8  C19 UNL     1      78.856  66.298 104.967  0.00  0.00    +0.000 C 
ATOM      9  C20 UNL     1      80.302  65.874 104.836  0.00  0.00    +0.000 C 
ATOM     10  C21 UNL     1      77.919  65.459 105.833  0.00  0.00    +0.000 C 
ATOM     11  C22 UNL     1      77.272  66.294 106.969  0.00  0.00    +0.000 C 
ATOM     12  C24 UNL     1      76.637  65.382 107.993  0.00  0.00    +0.000 C 
ATOM     13  O7  UNL     1      77.351  64.801 108.801  0.00  0.00    +0.000 OA
ATOM     14  C25 UNL     1      75.134  65.199 108.046  0.00  0.00    +0.000 C 
ATOM     15  C26 UNL     1      74.789  63.701 108.101  0.00  0.00    +0.000 C 
ATOM     16  C27 UNL     1      74.567  65.966 109.265  0.00  0.00    +0.000 C 
ATOM     17  C28 UNL     1      73.032  66.139 109.233  0.00  0.00    +0.000 C 
ATOM     18  C29 UNL     1      72.516  66.659 110.581  0.00  0.00    +0.000 C 
ATOM     19  C30 UNL     1      72.582  67.041 108.103  0.00  0.00    +0.000 C 
ATOM     20  C31 UNL     1      72.890  68.351 108.061  0.00  0.00    +0.000 C 
ATOM     21  C32 UNL     1      72.435  69.283 107.010  0.00  0.00    +0.000 C 
ATOM     22  C33 UNL     1      71.355  69.086 106.245  0.00  0.00    +0.000 C 
ATOM     23  C34 UNL     1      70.951  70.050 105.201  0.00  0.00    +0.000 C 
ATOM     24  C35 UNL     1      70.695  71.362 105.411  0.00  0.00    +0.000 C 
ATOM     25  C36 UNL     1      70.713  71.960 106.796  0.00  0.00    +0.000 C 
ATOM     26  C37 UNL     1      70.344  72.255 104.229  0.00  0.00    +0.000 C 
ATOM     27  C38 UNL     1      71.569  72.390 103.307  0.00  0.00    +0.000 C 
ATOM     28  C39 UNL     1      71.318  73.284 102.062  0.00  0.00    +0.000 C 
ATOM     29  C40 UNL     1      71.586  74.790 102.296  0.00  0.00    +0.000 C 
ATOM     30  C41 UNL     1      73.056  75.174 102.099  0.00  0.00    +0.000 C 
ATOM     31  C42 UNL     1      73.631  74.544 100.819  0.00  0.00    +0.000 C 
ATOM     32  C43 UNL     1      73.026  75.200  99.559  0.00  0.00    +0.000 C 
ATOM     33  C44 UNL     1      73.379  73.008 100.866  0.00  0.00    +0.000 C 
ATOM     34  O9  UNL     1      71.976  72.768 100.908  0.00  0.00    +0.000 OA
ATOM     35  C45 UNL     1      73.940  72.289  99.651  0.00  0.00    +0.000 C 
ATOM     36  O10 UNL     1      74.982  72.726  99.098  0.00  0.00    +0.000 OA
ATOM     37  C46 UNL     1      73.419  70.952  99.262  0.00  0.00    +0.000 C 
ATOM     38  O11 UNL     1      72.632  70.344 100.040  0.00  0.00    +0.000 OA
ATOM     39  N1  UNL     1      73.838  70.305  98.044  0.00  0.00    +0.000 N 
ATOM     40  C47 UNL     1      74.092  71.095  96.829  0.00  0.00    +0.000 C 
ATOM     41  C48 UNL     1      73.672  70.315  95.585  0.00  0.00    +0.000 C 
ATOM     42  C49 UNL     1      74.335  68.936  95.560  0.00  0.00    +0.000 C 
ATOM     43  C50 UNL     1      73.968  68.136  96.813  0.00  0.00    +0.000 C 
ATOM     44  C51 UNL     1      74.276  68.899  98.116  0.00  0.00    +0.000 C 
ATOM     45  C52 UNL     1      75.726  68.829  98.498  0.00  0.00    +0.000 C 
ATOM     46  O12 UNL     1      76.609  69.326  97.742  0.00  0.00    +0.000 OA
ATOM     47  O13 UNL     1      76.078  68.271  99.733  0.00  0.00    +0.000 OA
ENDROOT
BRANCH   1  48
ATOM     48  C11 UNL     1      77.787  66.523  99.910  0.00  0.00    +0.000 C 
ATOM     49  C12 UNL     1      77.322  65.625 101.069  0.00  0.00    +0.000 C 
BRANCH  48  50
ATOM     50  C10 UNL     1      77.200  66.052  98.551  0.00  0.00    +0.000 C 
BRANCH  50  53
ATOM     51  C2  UNL     1      78.629  67.674  95.483  0.00  0.00    +0.000 C 
ATOM     52  C3  UNL     1      77.714  66.581  96.068  0.00  0.00    +0.000 C 
ATOM     53  C4  UNL     1      78.238  65.953  97.398  0.00  0.00    +0.000 C 
ATOM     54  C5  UNL     1      79.575  66.581  97.847  0.00  0.00    +0.000 C 
ATOM     55  C6  UNL     1      80.602  66.556  96.711  0.00  0.00    +0.000 C 
ATOM     56  C7  UNL     1      80.087  67.180  95.387  0.00  0.00    +0.000 C 
BRANCH  51  58
ATOM     57  C1  UNL     1      77.741  69.339  94.110  0.00  0.00    +0.000 C 
ATOM     58  O1  UNL     1      78.178  67.999  94.177  0.00  0.00    +0.000 OA
ENDBRANCH  51  58
BRANCH  56  59
ATOM     59  O2  UNL     1      80.902  68.287  95.050  0.00  0.00    +0.000 OA
BRANCH  59  60
ATOM     60  P1  UNL     1      82.072  67.848  93.880  0.00  0.00    +0.000 P 
ATOM     61  C8  UNL     1      82.316  69.217  92.710  0.00  0.00    +0.000 C 
ATOM     62  C9  UNL     1      81.603  66.336  92.979  0.00  0.00    +0.000 C 
ATOM     63  O3  UNL     1      83.382  67.587  94.588  0.00  0.00    +0.000 OA
ENDBRANCH  59  60
ENDBRANCH  56  59
ENDBRANCH  50  53
ENDBRANCH  48  50
ENDBRANCH   1  48
BRANCH  10  64
ATOM     64  O5  UNL     1      76.942  64.827 105.036  0.00  0.00    +0.000 OA
ATOM     65  H37 UNL     1      76.200  64.543 105.630  0.00  0.00    +0.000 HD
ENDBRANCH  10  64
BRANCH  11  66
ATOM     66  O6  UNL     1      78.280  67.082 107.590  0.00  0.00    +0.000 OA
ATOM     67  C23 UNL     1      77.795  68.370 107.915  0.00  0.00    +0.000 C 
ENDBRANCH  11  66
BRANCH  33  68
ATOM     68  O8  UNL     1      74.009  72.443 101.994  0.00  0.00    +0.000 OA
ATOM     69  H72 UNL     1      74.591  73.136 102.405  0.00  0.00    +0.000 HD
ENDBRANCH  33  68
BRANCH  26  70
ATOM     70  O14 UNL     1      69.269  71.685 103.498  0.00  0.00    +0.000 OA
ATOM     71  C53 UNL     1      68.033  72.052 104.073  0.00  0.00    +0.000 C 
ENDBRANCH  26  70
TORSDOF 10
ENDMDL
MODEL 2
REMARK VINA RESULT:      -8.0      4.203      9.975
REMARK  Name = ./S1022.pdb
REMARK  22 active torsions:
REMARK  status: ('A' for Active; 'I' for Inactive)
REMARK    1  A    between atoms: C1_1  and  O1_2
REMARK    2  A    between atoms: O1_2  and  C2_3
REMARK    3  A    between atoms: C4_5  and  C10_14
REMARK    4  A    between atoms: C7_8  and  O2_9
REMARK    5  A    between atoms: O2_9  and  P1_10
REMARK    6  A    between atoms: P1_10  and  C8_11
REMARK    7  A    between atoms: P1_10  and  C9_12
REMARK    8  A    between atoms: C10_14  and  C11_15
REMARK    9  A    between atoms: C11_15  and  C12_16
REMARK   10  A    between atoms: C11_15  and  C13_17
REMARK   11  A    between atoms: C16_21  and  C17_22
REMARK   12  A    between atoms: C19_24  and  C20_25
REMARK   13  A    between atoms: C21_26  and  O5_27
REMARK   14  A    between atoms: C22_28  and  O6_29
REMARK   15  A    between atoms: O6_29  and  C23_30
REMARK   16  A    between atoms: C25_33  and  C26_34
REMARK   17  A    between atoms: C28_36  and  C29_37
REMARK   18  A    between atoms: C35_43  and  C36_44
REMARK   19  A    between atoms: C37_45  and  O14_68
REMARK   20  A    between atoms: C42_50  and  C43_51
REMARK   21  A    between atoms: C44_52  and  O8_53
REMARK   22  A    between atoms: O14_68  and  C53_69
REMARK                            x       y       z     vdW  Elec       q    Type
REMARK                         _______ _______ _______ _____ _____    ______ ____
ROOT
ATOM      1  C13 UNL     1      73.498  70.056 105.597  0.00  0.00    +0.000 C 
ATOM      2  C14 UNL     1      73.359  68.540 105.834  0.00  0.00    +0.000 C 
ATOM      3  C15 UNL     1      71.939  68.079 106.106  0.00  0.00    +0.000 C 
ATOM      4  O4  UNL     1      70.996  68.747 105.707  0.00  0.00    +0.000 OA
ATOM      5  C16 UNL     1      71.657  66.718 106.700  0.00  0.00    +0.000 C 
ATOM      6  C17 UNL     1      72.013  65.615 105.696  0.00  0.00    +0.000 C 
ATOM      7  C18 UNL     1      72.426  66.508 107.990  0.00  0.00    +0.000 C 
ATOM      8  C19 UNL     1      71.889  66.525 109.233  0.00  0.00    +0.000 C 
ATOM      9  C20 UNL     1      70.418  66.805 109.450  0.00  0.00    +0.000 C 
ATOM     10  C21 UNL     1      72.753  66.159 110.438  0.00  0.00    +0.000 C 
ATOM     11  C22 UNL     1      73.443  64.781 110.261  0.00  0.00    +0.000 C 
ATOM     12  C24 UNL     1      73.999  64.301 111.583  0.00  0.00    +0.000 C 
ATOM     13  O7  UNL     1      73.236  63.832 112.417  0.00  0.00    +0.000 OA
ATOM     14  C25 UNL     1      75.484  64.369 111.873  0.00  0.00    +0.000 C 
ATOM     15  C26 UNL     1      75.722  65.012 113.249  0.00  0.00    +0.000 C 
ATOM     16  C27 UNL     1      76.089  62.947 111.789  0.00  0.00    +0.000 C 
ATOM     17  C28 UNL     1      77.633  62.928 111.726  0.00  0.00    +0.000 C 
ATOM     18  C29 UNL     1      78.167  61.503 111.917  0.00  0.00    +0.000 C 
ATOM     19  C30 UNL     1      78.160  63.531 110.440  0.00  0.00    +0.000 C 
ATOM     20  C31 UNL     1      77.947  62.963 109.239  0.00  0.00    +0.000 C 
ATOM     21  C32 UNL     1      78.480  63.481 107.963  0.00  0.00    +0.000 C 
ATOM     22  C33 UNL     1      79.552  64.275 107.863  0.00  0.00    +0.000 C 
ATOM     23  C34 UNL     1      80.037  64.771 106.558  0.00  0.00    +0.000 C 
ATOM     24  C35 UNL     1      80.382  63.991 105.509  0.00  0.00    +0.000 C 
ATOM     25  C36 UNL     1      80.390  62.486 105.611  0.00  0.00    +0.000 C 
ATOM     26  C37 UNL     1      80.811  64.641 104.201  0.00  0.00    +0.000 C 
ATOM     27  C38 UNL     1      79.611  65.373 103.575  0.00  0.00    +0.000 C 
ATOM     28  C39 UNL     1      79.940  66.077 102.231  0.00  0.00    +0.000 C 
ATOM     29  C40 UNL     1      79.776  65.175 100.984  0.00  0.00    +0.000 C 
ATOM     30  C41 UNL     1      78.340  65.144 100.452  0.00  0.00    +0.000 C 
ATOM     31  C42 UNL     1      77.738  66.557 100.386  0.00  0.00    +0.000 C 
ATOM     32  C43 UNL     1      78.404  67.391  99.269  0.00  0.00    +0.000 C 
ATOM     33  C44 UNL     1      77.879  67.223 101.786  0.00  0.00    +0.000 C 
ATOM     34  O9  UNL     1      79.262  67.325 102.115  0.00  0.00    +0.000 OA
ATOM     35  C45 UNL     1      77.284  68.620 101.830  0.00  0.00    +0.000 C 
ATOM     36  O10 UNL     1      76.282  68.889 101.117  0.00  0.00    +0.000 OA
ATOM     37  C46 UNL     1      77.714  69.587 102.872  0.00  0.00    +0.000 C 
ATOM     38  O11 UNL     1      78.446  69.191 103.822  0.00  0.00    +0.000 OA
ATOM     39  N1  UNL     1      77.265  70.957 102.860  0.00  0.00    +0.000 N 
ATOM     40  C47 UNL     1      77.082  71.671 101.588  0.00  0.00    +0.000 C 
ATOM     41  C48 UNL     1      77.462  73.143 101.738  0.00  0.00    +0.000 C 
ATOM     42  C49 UNL     1      76.703  73.782 102.904  0.00  0.00    +0.000 C 
ATOM     43  C50 UNL     1      76.996  73.040 104.211  0.00  0.00    +0.000 C 
ATOM     44  C51 UNL     1      76.727  71.526 104.110  0.00  0.00    +0.000 C 
ATOM     45  C52 UNL     1      75.272  71.188 104.247  0.00  0.00    +0.000 C 
ATOM     46  O12 UNL     1      74.435  71.614 103.400  0.00  0.00    +0.000 OA
ATOM     47  O13 UNL     1      74.866  70.337 105.282  0.00  0.00    +0.000 OA
ENDROOT
BRANCH   1  48
ATOM     48  C11 UNL     1      73.034  70.942 106.795  0.00  0.00    +0.000 C 
ATOM     49  C12 UNL     1      71.565  71.376 106.662  0.00  0.00    +0.000 C 
BRANCH  48  50
ATOM     50  C10 UNL     1      73.290  70.191 108.130  0.00  0.00    +0.000 C 
BRANCH  50  53
ATOM     51  C2  UNL     1      76.995  69.598 108.052  0.00  0.00    +0.000 C 
ATOM     52  C3  UNL     1      75.642  69.280 108.718  0.00  0.00    +0.000 C 
ATOM     53  C4  UNL     1      74.664  70.495 108.790  0.00  0.00    +0.000 C 
ATOM     54  C5  UNL     1      75.273  71.766 108.161  0.00  0.00    +0.000 C 
ATOM     55  C6  UNL     1      76.658  72.059 108.746  0.00  0.00    +0.000 C 
ATOM     56  C7  UNL     1      77.635  70.855 108.676  0.00  0.00    +0.000 C 
BRANCH  51  58
ATOM     57  C1  UNL     1      78.092  67.800 107.047  0.00  0.00    +0.000 C 
ATOM     58  O1  UNL     1      77.873  68.501 108.252  0.00  0.00    +0.000 OA
ENDBRANCH  51  58
BRANCH  56  59
ATOM     59  O2  UNL     1      78.754  71.213 107.886  0.00  0.00    +0.000 OA
BRANCH  59  60
ATOM     60  P1  UNL     1      80.140  71.444 108.864  0.00  0.00    +0.000 P 
ATOM     61  C8  UNL     1      79.853  70.740 110.515  0.00  0.00    +0.000 C 
ATOM     62  C9  UNL     1      80.588  73.203 109.008  0.00  0.00    +0.000 C 
ATOM     63  O3  UNL     1      81.301  70.713 108.229  0.00  0.00    +0.000 OA
ENDBRANCH  59  60
ENDBRANCH  56  59
ENDBRANCH  50  53
ENDBRANCH  48  50
ENDBRANCH   1  48
BRANCH  10  64
ATOM     64  O5  UNL     1      73.693  67.177 110.701  0.00  0.00    +0.000 OA
ATOM     65  H37 UNL     1      74.035  67.047 111.622  0.00  0.00    +0.000 HD
ENDBRANCH  10  64
BRANCH  11  66
ATOM     66  O6  UNL     1      72.487  63.847 109.777  0.00  0.00    +0.000 OA
ATOM     67  C23 UNL     1      73.000  63.106 108.689  0.00  0.00    +0.000 C 
ENDBRANCH  11  66
BRANCH  33  68
ATOM     68  O8  UNL     1      77.196  66.465 102.759  0.00  0.00    +0.000 OA
ATOM     69  H72 UNL     1      76.431  67.004 103.094  0.00  0.00    +0.000 HD
ENDBRANCH  33  68
BRANCH  26  70
ATOM     70  O14 UNL     1      81.852  65.575 104.446  0.00  0.00    +0.000 OA
ATOM     71  C53 UNL     1      83.051  65.146 103.837  0.00  0.00    +0.000 C 
ENDBRANCH  26  70
TORSDOF 10
ENDMDL
MODEL 3
REMARK VINA RESULT:      -7.9      4.102     12.449
REMARK  Name = ./S1022.pdb
REMARK  22 active torsions:
REMARK  status: ('A' for Active; 'I' for Inactive)
REMARK    1  A    between atoms: C1_1  and  O1_2
REMARK    2  A    between atoms: O1_2  and  C2_3
REMARK    3  A    between atoms: C4_5  and  C10_14
REMARK    4  A    between atoms: C7_8  and  O2_9
REMARK    5  A    between atoms: O2_9  and  P1_10
REMARK    6  A    between atoms: P1_10  and  C8_11
REMARK    7  A    between atoms: P1_10  and  C9_12
REMARK    8  A    between atoms: C10_14  and  C11_15
REMARK    9  A    between atoms: C11_15  and  C12_16
REMARK   10  A    between atoms: C11_15  and  C13_17
REMARK   11  A    between atoms: C16_21  and  C17_22
REMARK   12  A    between atoms: C19_24  and  C20_25
REMARK   13  A    between atoms: C21_26  and  O5_27
REMARK   14  A    between atoms: C22_28  and  O6_29
REMARK   15  A    between atoms: O6_29  and  C23_30
REMARK   16  A    between atoms: C25_33  and  C26_34
REMARK   17  A    between atoms: C28_36  and  C29_37
REMARK   18  A    between atoms: C35_43  and  C36_44
REMARK   19  A    between atoms: C37_45  and  O14_68
REMARK   20  A    between atoms: C42_50  and  C43_51
REMARK   21  A    between atoms: C44_52  and  O8_53
REMARK   22  A    between atoms: O14_68  and  C53_69
REMARK                            x       y       z     vdW  Elec       q    Type
REMARK                         _______ _______ _______ _____ _____    ______ ____
ROOT
ATOM      1  C13 UNL     1      72.679  69.947 106.272  0.00  0.00    +0.000 C 
ATOM      2  C14 UNL     1      73.850  70.346 105.355  0.00  0.00    +0.000 C 
ATOM      3  C15 UNL     1      74.112  71.839 105.292  0.00  0.00    +0.000 C 
ATOM      4  O4  UNL     1      73.756  72.558 106.215  0.00  0.00    +0.000 OA
ATOM      5  C16 UNL     1      74.968  72.440 104.200  0.00  0.00    +0.000 C 
ATOM      6  C17 UNL     1      76.429  72.011 104.372  0.00  0.00    +0.000 C 
ATOM      7  C18 UNL     1      74.470  72.038 102.825  0.00  0.00    +0.000 C 
ATOM      8  C19 UNL     1      73.812  72.849 101.963  0.00  0.00    +0.000 C 
ATOM      9  C20 UNL     1      73.470  74.276 102.331  0.00  0.00    +0.000 C 
ATOM     10  C21 UNL     1      73.491  72.357 100.553  0.00  0.00    +0.000 C 
ATOM     11  C22 UNL     1      74.756  71.841  99.816  0.00  0.00    +0.000 C 
ATOM     12  C24 UNL     1      74.474  71.689  98.338  0.00  0.00    +0.000 C 
ATOM     13  O7  UNL     1      74.445  72.687  97.629  0.00  0.00    +0.000 OA
ATOM     14  C25 UNL     1      74.255  70.321  97.725  0.00  0.00    +0.000 C 
ATOM     15  C26 UNL     1      72.988  70.333  96.854  0.00  0.00    +0.000 C 
ATOM     16  C27 UNL     1      75.509  69.916  96.913  0.00  0.00    +0.000 C 
ATOM     17  C28 UNL     1      75.547  68.420  96.530  0.00  0.00    +0.000 C 
ATOM     18  C29 UNL     1      76.661  68.149  95.510  0.00  0.00    +0.000 C 
ATOM     19  C30 UNL     1      75.698  67.523  97.741  0.00  0.00    +0.000 C 
ATOM     20  C31 UNL     1      76.810  67.520  98.500  0.00  0.00    +0.000 C 
ATOM     21  C32 UNL     1      77.028  66.631  99.658  0.00  0.00    +0.000 C 
ATOM     22  C33 UNL     1      76.396  65.467  99.843  0.00  0.00    +0.000 C 
ATOM     23  C34 UNL     1      76.648  64.621 101.028  0.00  0.00    +0.000 C 
ATOM     24  C35 UNL     1      77.858  64.146 101.402  0.00  0.00    +0.000 C 
ATOM     25  C36 UNL     1      79.090  64.370 100.560  0.00  0.00    +0.000 C 
ATOM     26  C37 UNL     1      77.981  63.331 102.682  0.00  0.00    +0.000 C 
ATOM     27  C38 UNL     1      77.690  64.235 103.893  0.00  0.00    +0.000 C 
ATOM     28  C39 UNL     1      77.786  63.500 105.258  0.00  0.00    +0.000 C 
ATOM     29  C40 UNL     1      79.206  63.484 105.873  0.00  0.00    +0.000 C 
ATOM     30  C41 UNL     1      79.520  64.742 106.689  0.00  0.00    +0.000 C 
ATOM     31  C42 UNL     1      78.351  65.110 107.619  0.00  0.00    +0.000 C 
ATOM     32  C43 UNL     1      78.216  64.088 108.769  0.00  0.00    +0.000 C 
ATOM     33  C44 UNL     1      77.053  65.216 106.766  0.00  0.00    +0.000 C 
ATOM     34  O9  UNL     1      76.785  63.952 106.166  0.00  0.00    +0.000 OA
ATOM     35  C45 UNL     1      75.841  65.606 107.596  0.00  0.00    +0.000 C 
ATOM     36  O10 UNL     1      75.989  66.361 108.591  0.00  0.00    +0.000 OA
ATOM     37  C46 UNL     1      74.470  65.308 107.108  0.00  0.00    +0.000 C 
ATOM     38  O11 UNL     1      74.309  64.886 105.929  0.00  0.00    +0.000 OA
ATOM     39  N1  UNL     1      73.309  65.547 107.929  0.00  0.00    +0.000 N 
ATOM     40  C47 UNL     1      73.363  65.320 109.381  0.00  0.00    +0.000 C 
ATOM     41  C48 UNL     1      72.026  64.788 109.892  0.00  0.00    +0.000 C 
ATOM     42  C49 UNL     1      70.879  65.708 109.466  0.00  0.00    +0.000 C 
ATOM     43  C50 UNL     1      70.829  65.840 107.941  0.00  0.00    +0.000 C 
ATOM     44  C51 UNL     1      72.176  66.284 107.338  0.00  0.00    +0.000 C 
ATOM     45  C52 UNL     1      72.403  67.762 107.458  0.00  0.00    +0.000 C 
ATOM     46  O12 UNL     1      72.486  68.305 108.597  0.00  0.00    +0.000 OA
ATOM     47  O13 UNL     1      72.594  68.517 106.294  0.00  0.00    +0.000 OA
ENDROOT
BRANCH   1  48
ATOM     48  C11 UNL     1      71.302  70.555 105.863  0.00  0.00    +0.000 C 
ATOM     49  C12 UNL     1      70.431  69.553 105.087  0.00  0.00    +0.000 C 
BRANCH  48  50
ATOM     50  C10 UNL     1      70.572  71.090 107.125  0.00  0.00    +0.000 C 
BRANCH  50  53
ATOM     51  C2  UNL     1      69.220  73.509 104.595  0.00  0.00    +0.000 C 
ATOM     52  C3  UNL     1      70.192  73.260 105.764  0.00  0.00    +0.000 C 
ATOM     53  C4  UNL     1      69.636  72.304 106.865  0.00  0.00    +0.000 C 
ATOM     54  C5  UNL     1      68.215  71.802 106.533  0.00  0.00    +0.000 C 
ATOM     55  C6  UNL     1      67.281  72.973 106.210  0.00  0.00    +0.000 C 
ATOM     56  C7  UNL     1      67.829  73.926 105.114  0.00  0.00    +0.000 C 
BRANCH  51  58
ATOM     57  C1  UNL     1      70.366  75.541 104.576  0.00  0.00    +0.000 C 
ATOM     58  O1  UNL     1      69.731  74.559 103.788  0.00  0.00    +0.000 OA
ENDBRANCH  51  58
BRANCH  56  59
ATOM     59  O2  UNL     1      66.935  73.930 104.016  0.00  0.00    +0.000 OA
BRANCH  59  60
ATOM     60  P1  UNL     1      66.122  75.432 103.898  0.00  0.00    +0.000 P 
ATOM     61  C8  UNL     1      66.819  76.605 105.097  0.00  0.00    +0.000 C 
ATOM     62  C9  UNL     1      64.329  75.260 104.167  0.00  0.00    +0.000 C 
ATOM     63  O3  UNL     1      66.339  75.986 102.508  0.00  0.00    +0.000 OA
ENDBRANCH  59  60
ENDBRANCH  56  59
ENDBRANCH  50  53
ENDBRANCH  48  50
ENDBRANCH   1  48
BRANCH  10  64
ATOM     64  O5  UNL     1      72.480  71.375 100.589  0.00  0.00    +0.000 OA
ATOM     65  H37 UNL     1      71.683  71.740 100.126  0.00  0.00    +0.000 HD
ENDBRANCH  10  64
BRANCH  11  66
ATOM     66  O6  UNL     1      75.812  72.774 100.008  0.00  0.00    +0.000 OA
ATOM     67  C23 UNL     1      77.070  72.130 100.010  0.00  0.00    +0.000 C 
ENDBRANCH  11  66
BRANCH  33  68
ATOM     68  O8  UNL     1      77.198  66.210 105.776  0.00  0.00    +0.000 OA
ATOM     69  H72 UNL     1      77.114  67.099 106.212  0.00  0.00    +0.000 HD
ENDBRANCH  33  68
BRANCH  26  70
ATOM     70  O14 UNL     1      77.049  62.261 102.663  0.00  0.00    +0.000 OA
ATOM     71  C53 UNL     1      77.636  61.108 102.098  0.00  0.00    +0.000 C 
ENDBRANCH  26  70
TORSDOF 10
ENDMDL
MODEL 4
REMARK VINA RESULT:      -7.8      5.279     11.419
REMARK  Name = ./S1022.pdb
REMARK  22 active torsions:
REMARK  status: ('A' for Active; 'I' for Inactive)
REMARK    1  A    between atoms: C1_1  and  O1_2
REMARK    2  A    between atoms: O1_2  and  C2_3
REMARK    3  A    between atoms: C4_5  and  C10_14
REMARK    4  A    between atoms: C7_8  and  O2_9
REMARK    5  A    between atoms: O2_9  and  P1_10
REMARK    6  A    between atoms: P1_10  and  C8_11
REMARK    7  A    between atoms: P1_10  and  C9_12
REMARK    8  A    between atoms: C10_14  and  C11_15
REMARK    9  A    between atoms: C11_15  and  C12_16
REMARK   10  A    between atoms: C11_15  and  C13_17
REMARK   11  A    between atoms: C16_21  and  C17_22
REMARK   12  A    between atoms: C19_24  and  C20_25
REMARK   13  A    between atoms: C21_26  and  O5_27
REMARK   14  A    between atoms: C22_28  and  O6_29
REMARK   15  A    between atoms: O6_29  and  C23_30
REMARK   16  A    between atoms: C25_33  and  C26_34
REMARK   17  A    between atoms: C28_36  and  C29_37
REMARK   18  A    between atoms: C35_43  and  C36_44
REMARK   19  A    between atoms: C37_45  and  O14_68
REMARK   20  A    between atoms: C42_50  and  C43_51
REMARK   21  A    between atoms: C44_52  and  O8_53
REMARK   22  A    between atoms: O14_68  and  C53_69
REMARK                            x       y       z     vdW  Elec       q    Type
REMARK                         _______ _______ _______ _____ _____    ______ ____
ROOT
ATOM      1  C13 UNL     1      74.463  60.269 106.909  0.00  0.00    +0.000 C 
ATOM      2  C14 UNL     1      75.015  61.585 107.489  0.00  0.00    +0.000 C 
ATOM      3  C15 UNL     1      74.615  61.848 108.928  0.00  0.00    +0.000 C 
ATOM      4  O4  UNL     1      74.313  60.913 109.656  0.00  0.00    +0.000 OA
ATOM      5  C16 UNL     1      74.758  63.221 109.543  0.00  0.00    +0.000 C 
ATOM      6  C17 UNL     1      76.240  63.582 109.702  0.00  0.00    +0.000 C 
ATOM      7  C18 UNL     1      74.057  64.276 108.709  0.00  0.00    +0.000 C 
ATOM      8  C19 UNL     1      72.890  64.882 109.033  0.00  0.00    +0.000 C 
ATOM      9  C20 UNL     1      72.137  64.515 110.293  0.00  0.00    +0.000 C 
ATOM     10  C21 UNL     1      72.366  66.029 108.171  0.00  0.00    +0.000 C 
ATOM     11  C22 UNL     1      73.425  67.149 107.988  0.00  0.00    +0.000 C 
ATOM     12  C24 UNL     1      72.775  68.397 107.435  0.00  0.00    +0.000 C 
ATOM     13  O7  UNL     1      72.120  69.112 108.183  0.00  0.00    +0.000 OA
ATOM     14  C25 UNL     1      72.945  68.783 105.980  0.00  0.00    +0.000 C 
ATOM     15  C26 UNL     1      71.577  69.113 105.360  0.00  0.00    +0.000 C 
ATOM     16  C27 UNL     1      73.926  69.976 105.877  0.00  0.00    +0.000 C 
ATOM     17  C28 UNL     1      74.442  70.239 104.445  0.00  0.00    +0.000 C 
ATOM     18  C29 UNL     1      75.183  71.580 104.371  0.00  0.00    +0.000 C 
ATOM     19  C30 UNL     1      75.320  69.113 103.939  0.00  0.00    +0.000 C 
ATOM     20  C31 UNL     1      76.515  68.830 104.488  0.00  0.00    +0.000 C 
ATOM     21  C32 UNL     1      77.431  67.778 104.002  0.00  0.00    +0.000 C 
ATOM     22  C33 UNL     1      77.419  67.286 102.758  0.00  0.00    +0.000 C 
ATOM     23  C34 UNL     1      78.353  66.226 102.327  0.00  0.00    +0.000 C 
ATOM     24  C35 UNL     1      79.702  66.303 102.399  0.00  0.00    +0.000 C 
ATOM     25  C36 UNL     1      80.400  67.559 102.857  0.00  0.00    +0.000 C 
ATOM     26  C37 UNL     1      80.544  65.108 101.973  0.00  0.00    +0.000 C 
ATOM     27  C38 UNL     1      80.314  63.944 102.953  0.00  0.00    +0.000 C 
ATOM     28  C39 UNL     1      81.128  62.667 102.608  0.00  0.00    +0.000 C 
ATOM     29  C40 UNL     1      82.548  62.633 103.223  0.00  0.00    +0.000 C 
ATOM     30  C41 UNL     1      82.567  62.086 104.654  0.00  0.00    +0.000 C 
ATOM     31  C42 UNL     1      81.712  60.814 104.777  0.00  0.00    +0.000 C 
ATOM     32  C43 UNL     1      82.376  59.628 104.044  0.00  0.00    +0.000 C 
ATOM     33  C44 UNL     1      80.285  61.121 104.237  0.00  0.00    +0.000 C 
ATOM     34  O9  UNL     1      80.376  61.484 102.862  0.00  0.00    +0.000 OA
ATOM     35  C45 UNL     1      79.352  59.926 104.344  0.00  0.00    +0.000 C 
ATOM     36  O10 UNL     1      79.490  59.116 105.297  0.00  0.00    +0.000 OA
ATOM     37  C46 UNL     1      78.141  59.840 103.487  0.00  0.00    +0.000 C 
ATOM     38  O11 UNL     1      77.800  60.838 102.794  0.00  0.00    +0.000 OA
ATOM     39  N1  UNL     1      77.311  58.661 103.472  0.00  0.00    +0.000 N 
ATOM     40  C47 UNL     1      77.911  57.324 103.594  0.00  0.00    +0.000 C 
ATOM     41  C48 UNL     1      77.142  56.311 102.749  0.00  0.00    +0.000 C 
ATOM     42  C49 UNL     1      75.650  56.339 103.094  0.00  0.00    +0.000 C 
ATOM     43  C50 UNL     1      75.069  57.738 102.872  0.00  0.00    +0.000 C 
ATOM     44  C51 UNL     1      75.854  58.833 103.621  0.00  0.00    +0.000 C 
ATOM     45  C52 UNL     1      75.488  58.914 105.074  0.00  0.00    +0.000 C 
ATOM     46  O12 UNL     1      75.702  57.931 105.841  0.00  0.00    +0.000 OA
ATOM     47  O13 UNL     1      74.976  60.114 105.581  0.00  0.00    +0.000 OA
ENDROOT
BRANCH   1  48
ATOM     48  C11 UNL     1      72.906  60.172 106.893  0.00  0.00    +0.000 C 
ATOM     49  C12 UNL     1      72.364  59.343 108.070  0.00  0.00    +0.000 C 
BRANCH  48  50
ATOM     50  C10 UNL     1      72.295  61.600 106.870  0.00  0.00    +0.000 C 
BRANCH  50  53
ATOM     51  C2  UNL     1      73.369  62.364 103.355  0.00  0.00    +0.000 C 
ATOM     52  C3  UNL     1      72.980  62.910 104.743  0.00  0.00    +0.000 C 
ATOM     53  C4  UNL     1      71.860  62.093 105.461  0.00  0.00    +0.000 C 
ATOM     54  C5  UNL     1      71.385  60.893 104.614  0.00  0.00    +0.000 C 
ATOM     55  C6  UNL     1      71.007  61.337 103.197  0.00  0.00    +0.000 C 
ATOM     56  C7  UNL     1      72.118  62.149 102.478  0.00  0.00    +0.000 C 
BRANCH  51  58
ATOM     57  C1  UNL     1      74.181  64.551 103.374  0.00  0.00    +0.000 C 
ATOM     58  O1  UNL     1      74.212  63.306 102.711  0.00  0.00    +0.000 OA
ENDBRANCH  51  58
BRANCH  56  59
ATOM     59  O2  UNL     1      72.518  61.453 101.312  0.00  0.00    +0.000 OA
BRANCH  59  60
ATOM     60  P1  UNL     1      71.500  61.842  99.991  0.00  0.00    +0.000 P 
ATOM     61  C8  UNL     1      70.193  60.589  99.832  0.00  0.00    +0.000 C 
ATOM     62  C9  UNL     1      72.427  61.976  98.430  0.00  0.00    +0.000 C 
ATOM     63  O3  UNL     1      70.848  63.178 100.268  0.00  0.00    +0.000 OA
ENDBRANCH  59  60
ENDBRANCH  56  59
ENDBRANCH  50  53
ENDBRANCH  48  50
ENDBRANCH   1  48
BRANCH  10  64
ATOM     64  O5  UNL     1      71.907  65.545 106.929  0.00  0.00    +0.000 OA
ATOM     65  H37 UNL     1      70.918  65.614 106.920  0.00  0.00    +0.000 HD
ENDBRANCH  10  64
BRANCH  11  66
ATOM     66  O6  UNL     1      74.013  67.435 109.250  0.00  0.00    +0.000 OA
ATOM     67  C23 UNL     1      75.369  67.808 109.109  0.00  0.00    +0.000 C 
ENDBRANCH  11  66
BRANCH  33  68
ATOM     68  O8  UNL     1      79.692  62.161 104.982  0.00  0.00    +0.000 OA
ATOM     69  H72 UNL     1      80.241  62.311 105.797  0.00  0.00    +0.000 HD
ENDBRANCH  33  68
BRANCH  26  70
ATOM     70  O14 UNL     1      80.172  64.699 100.666  0.00  0.00    +0.000 OA
ATOM     71  C53 UNL     1      81.018  65.294  99.705  0.00  0.00    +0.000 C 
ENDBRANCH  26  70
TORSDOF 10
ENDMDL
MODEL 5
REMARK VINA RESULT:      -7.8      4.171     12.699
REMARK  Name = ./S1022.pdb
REMARK  22 active torsions:
REMARK  status: ('A' for Active; 'I' for Inactive)
REMARK    1  A    between atoms: C1_1  and  O1_2
REMARK    2  A    between atoms: O1_2  and  C2_3
REMARK    3  A    between atoms: C4_5  and  C10_14
REMARK    4  A    between atoms: C7_8  and  O2_9
REMARK    5  A    between atoms: O2_9  and  P1_10
REMARK    6  A    between atoms: P1_10  and  C8_11
REMARK    7  A    between atoms: P1_10  and  C9_12
REMARK    8  A    between atoms: C10_14  and  C11_15
REMARK    9  A    between atoms: C11_15  and  C12_16
REMARK   10  A    between atoms: C11_15  and  C13_17
REMARK   11  A    between atoms: C16_21  and  C17_22
REMARK   12  A    between atoms: C19_24  and  C20_25
REMARK   13  A    between atoms: C21_26  and  O5_27
REMARK   14  A    between atoms: C22_28  and  O6_29
REMARK   15  A    between atoms: O6_29  and  C23_30
REMARK   16  A    between atoms: C25_33  and  C26_34
REMARK   17  A    between atoms: C28_36  and  C29_37
REMARK   18  A    between atoms: C35_43  and  C36_44
REMARK   19  A    between atoms: C37_45  and  O14_68
REMARK   20  A    between atoms: C42_50  and  C43_51
REMARK   21  A    between atoms: C44_52  and  O8_53
REMARK   22  A    between atoms: O14_68  and  C53_69
REMARK                            x       y       z     vdW  Elec       q    Type
REMARK                         _______ _______ _______ _____ _____    ______ ____
ROOT
ATOM      1  C13 UNL     1      72.691  69.860 105.319  0.00  0.00    +0.000 C 
ATOM      2  C14 UNL     1      73.875  70.255 104.417  0.00  0.00    +0.000 C 
ATOM      3  C15 UNL     1      74.160  71.744 104.377  0.00  0.00    +0.000 C 
ATOM      4  O4  UNL     1      73.807  72.455 105.307  0.00  0.00    +0.000 OA
ATOM      5  C16 UNL     1      75.032  72.347 103.300  0.00  0.00    +0.000 C 
ATOM      6  C17 UNL     1      76.486  71.894 103.476  0.00  0.00    +0.000 C 
ATOM      7  C18 UNL     1      74.539  71.972 101.916  0.00  0.00    +0.000 C 
ATOM      8  C19 UNL     1      73.899  72.805 101.060  0.00  0.00    +0.000 C 
ATOM      9  C20 UNL     1      73.576  74.232 101.446  0.00  0.00    +0.000 C 
ATOM     10  C21 UNL     1      73.583  72.337  99.641  0.00  0.00    +0.000 C 
ATOM     11  C22 UNL     1      74.845  71.813  98.906  0.00  0.00    +0.000 C 
ATOM     12  C24 UNL     1      74.572  71.686  97.424  0.00  0.00    +0.000 C 
ATOM     13  O7  UNL     1      74.563  72.694  96.729  0.00  0.00    +0.000 OA
ATOM     14  C25 UNL     1      74.337  70.330  96.791  0.00  0.00    +0.000 C 
ATOM     15  C26 UNL     1      73.078  70.373  95.910  0.00  0.00    +0.000 C 
ATOM     16  C27 UNL     1      75.591  69.918  95.982  0.00  0.00    +0.000 C 
ATOM     17  C28 UNL     1      75.610  68.426  95.578  0.00  0.00    +0.000 C 
ATOM     18  C29 UNL     1      76.728  68.153  94.563  0.00  0.00    +0.000 C 
ATOM     19  C30 UNL     1      75.739  67.510  96.777  0.00  0.00    +0.000 C 
ATOM     20  C31 UNL     1      76.844  67.480  97.544  0.00  0.00    +0.000 C 
ATOM     21  C32 UNL     1      77.040  66.572  98.692  0.00  0.00    +0.000 C 
ATOM     22  C33 UNL     1      76.389  65.415  98.856  0.00  0.00    +0.000 C 
ATOM     23  C34 UNL     1      76.619  64.549 100.030  0.00  0.00    +0.000 C 
ATOM     24  C35 UNL     1      77.820  64.051 100.406  0.00  0.00    +0.000 C 
ATOM     25  C36 UNL     1      79.061  64.268  99.577  0.00  0.00    +0.000 C 
ATOM     26  C37 UNL     1      77.920  63.217 101.676  0.00  0.00    +0.000 C 
ATOM     27  C38 UNL     1      77.633  64.107 102.897  0.00  0.00    +0.000 C 
ATOM     28  C39 UNL     1      77.708  63.352 104.253  0.00  0.00    +0.000 C 
ATOM     29  C40 UNL     1      79.123  63.306 104.877  0.00  0.00    +0.000 C 
ATOM     30  C41 UNL     1      79.449  64.548 105.714  0.00  0.00    +0.000 C 
ATOM     31  C42 UNL     1      78.280  64.920 106.640  0.00  0.00    +0.000 C 
ATOM     32  C43 UNL     1      78.120  63.884 107.775  0.00  0.00    +0.000 C 
ATOM     33  C44 UNL     1      76.989  65.058 105.779  0.00  0.00    +0.000 C 
ATOM     34  O9  UNL     1      76.707  63.806 105.159  0.00  0.00    +0.000 OA
ATOM     35  C45 UNL     1      75.778  65.455 106.605  0.00  0.00    +0.000 C 
ATOM     36  O10 UNL     1      75.929  66.193 107.612  0.00  0.00    +0.000 OA
ATOM     37  C46 UNL     1      74.405  65.184 106.103  0.00  0.00    +0.000 C 
ATOM     38  O11 UNL     1      74.248  64.780 104.917  0.00  0.00    +0.000 OA
ATOM     39  N1  UNL     1      73.242  65.429 106.919  0.00  0.00    +0.000 N 
ATOM     40  C47 UNL     1      73.282  65.181 108.368  0.00  0.00    +0.000 C 
ATOM     41  C48 UNL     1      71.933  64.662 108.861  0.00  0.00    +0.000 C 
ATOM     42  C49 UNL     1      70.803  65.605 108.439  0.00  0.00    +0.000 C 
ATOM     43  C50 UNL     1      70.767  65.759 106.916  0.00  0.00    +0.000 C 
ATOM     44  C51 UNL     1      72.125  66.191 106.330  0.00  0.00    +0.000 C 
ATOM     45  C52 UNL     1      72.373  67.664 106.472  0.00  0.00    +0.000 C 
ATOM     46  O12 UNL     1      72.456  68.189 107.619  0.00  0.00    +0.000 OA
ATOM     47  O13 UNL     1      72.584  68.432 105.321  0.00  0.00    +0.000 OA
ENDROOT
BRANCH   1  48
ATOM     48  C11 UNL     1      71.326  70.495 104.908  0.00  0.00    +0.000 C 
ATOM     49  C12 UNL     1      71.044  70.344 103.404  0.00  0.00    +0.000 C 
BRANCH  48  50
ATOM     50  C10 UNL     1      70.186  69.883 105.767  0.00  0.00    +0.000 C 
BRANCH  50  53
ATOM     51  C2  UNL     1      71.122  72.635 108.141  0.00  0.00    +0.000 C 
ATOM     52  C3  UNL     1      70.936  71.123 107.914  0.00  0.00    +0.000 C 
ATOM     53  C4  UNL     1      69.744  70.759 106.974  0.00  0.00    +0.000 C 
ATOM     54  C5  UNL     1      69.007  72.014 106.462  0.00  0.00    +0.000 C 
ATOM     55  C6  UNL     1      68.612  72.930 107.625  0.00  0.00    +0.000 C 
ATOM     56  C7  UNL     1      69.794  73.296 108.562  0.00  0.00    +0.000 C 
BRANCH  51  58
ATOM     57  C1  UNL     1      73.337  72.332 108.810  0.00  0.00    +0.000 C 
ATOM     58  O1  UNL     1      72.070  72.830 109.179  0.00  0.00    +0.000 OA
ENDBRANCH  51  58
BRANCH  56  59
ATOM     59  O2  UNL     1      69.980  74.700 108.545  0.00  0.00    +0.000 OA
BRANCH  59  60
ATOM     60  P1  UNL     1      69.743  75.364 110.106  0.00  0.00    +0.000 P 
ATOM     61  C8  UNL     1      68.195  76.315 110.140  0.00  0.00    +0.000 C 
ATOM     62  C9  UNL     1      71.135  76.423 110.614  0.00  0.00    +0.000 C 
ATOM     63  O3  UNL     1      69.628  74.229 111.097  0.00  0.00    +0.000 OA
ENDBRANCH  59  60
ENDBRANCH  56  59
ENDBRANCH  50  53
ENDBRANCH  48  50
ENDBRANCH   1  48
BRANCH  10  64
ATOM     64  O5  UNL     1      72.556  71.371  99.656  0.00  0.00    +0.000 OA
ATOM     65  H37 UNL     1      72.799  70.657  99.012  0.00  0.00    +0.000 HD
ENDBRANCH  10  64
BRANCH  11  66
ATOM     66  O6  UNL     1      75.913  72.728  99.119  0.00  0.00    +0.000 OA
ATOM     67  C23 UNL     1      77.161  72.063  99.129  0.00  0.00    +0.000 C 
ENDBRANCH  11  66
BRANCH  33  68
ATOM     68  O8  UNL     1      77.157  66.063 104.804  0.00  0.00    +0.000 OA
ATOM     69  H72 UNL     1      76.410  65.992 104.152  0.00  0.00    +0.000 HD
ENDBRANCH  33  68
BRANCH  26  70
ATOM     70  O14 UNL     1      76.973  62.161 101.635  0.00  0.00    +0.000 OA
ATOM     71  C53 UNL     1      77.574  60.979 101.147  0.00  0.00    +0.000 C 
ENDBRANCH  26  70
TORSDOF 10
ENDMDL
MODEL 6
REMARK VINA RESULT:      -7.7      2.185      2.837
REMARK  Name = ./S1022.pdb
REMARK  22 active torsions:
REMARK  status: ('A' for Active; 'I' for Inactive)
REMARK    1  A    between atoms: C1_1  and  O1_2
REMARK    2  A    between atoms: O1_2  and  C2_3
REMARK    3  A    between atoms: C4_5  and  C10_14
REMARK    4  A    between atoms: C7_8  and  O2_9
REMARK    5  A    between atoms: O2_9  and  P1_10
REMARK    6  A    between atoms: P1_10  and  C8_11
REMARK    7  A    between atoms: P1_10  and  C9_12
REMARK    8  A    between atoms: C10_14  and  C11_15
REMARK    9  A    between atoms: C11_15  and  C12_16
REMARK   10  A    between atoms: C11_15  and  C13_17
REMARK   11  A    between atoms: C16_21  and  C17_22
REMARK   12  A    between atoms: C19_24  and  C20_25
REMARK   13  A    between atoms: C21_26  and  O5_27
REMARK   14  A    between atoms: C22_28  and  O6_29
REMARK   15  A    between atoms: O6_29  and  C23_30
REMARK   16  A    between atoms: C25_33  and  C26_34
REMARK   17  A    between atoms: C28_36  and  C29_37
REMARK   18  A    between atoms: C35_43  and  C36_44
REMARK   19  A    between atoms: C37_45  and  O14_68
REMARK   20  A    between atoms: C42_50  and  C43_51
REMARK   21  A    between atoms: C44_52  and  O8_53
REMARK   22  A    between atoms: O14_68  and  C53_69
REMARK                            x       y       z     vdW  Elec       q    Type
REMARK                         _______ _______ _______ _____ _____    ______ ____
ROOT
ATOM      1  C13 UNL     1      77.452  67.487  99.887  0.00  0.00    +0.000 C 
ATOM      2  C14 UNL     1      77.618  67.891 101.364  0.00  0.00    +0.000 C 
ATOM      3  C15 UNL     1      79.013  67.672 101.918  0.00  0.00    +0.000 C 
ATOM      4  O4  UNL     1      79.971  67.641 101.158  0.00  0.00    +0.000 OA
ATOM      5  C16 UNL     1      79.276  67.674 103.406  0.00  0.00    +0.000 C 
ATOM      6  C17 UNL     1      79.076  69.081 103.981  0.00  0.00    +0.000 C 
ATOM      7  C18 UNL     1      78.374  66.690 104.127  0.00  0.00    +0.000 C 
ATOM      8  C19 UNL     1      78.767  65.500 104.641  0.00  0.00    +0.000 C 
ATOM      9  C20 UNL     1      80.193  65.014 104.499  0.00  0.00    +0.000 C 
ATOM     10  C21 UNL     1      77.786  64.670 105.466  0.00  0.00    +0.000 C 
ATOM     11  C22 UNL     1      77.171  65.487 106.633  0.00  0.00    +0.000 C 
ATOM     12  C24 UNL     1      76.487  64.563 107.615  0.00  0.00    +0.000 C 
ATOM     13  O7  UNL     1      77.167  63.917 108.401  0.00  0.00    +0.000 OA
ATOM     14  C25 UNL     1      74.977  64.448 107.653  0.00  0.00    +0.000 C 
ATOM     15  C26 UNL     1      74.562  62.967 107.644  0.00  0.00    +0.000 C 
ATOM     16  C27 UNL     1      74.437  65.190 108.899  0.00  0.00    +0.000 C 
ATOM     17  C28 UNL     1      72.912  65.436 108.868  0.00  0.00    +0.000 C 
ATOM     18  C29 UNL     1      72.411  65.923 110.233  0.00  0.00    +0.000 C 
ATOM     19  C30 UNL     1      72.512  66.404 107.773  0.00  0.00    +0.000 C 
ATOM     20  C31 UNL     1      72.880  67.698 107.787  0.00  0.00    +0.000 C 
ATOM     21  C32 UNL     1      72.477  68.693 106.774  0.00  0.00    +0.000 C 
ATOM     22  C33 UNL     1      71.394  68.578 105.996  0.00  0.00    +0.000 C 
ATOM     23  C34 UNL     1      71.042  69.602 104.991  0.00  0.00    +0.000 C 
ATOM     24  C35 UNL     1      70.846  70.915 105.254  0.00  0.00    +0.000 C 
ATOM     25  C36 UNL     1      70.881  71.453 106.663  0.00  0.00    +0.000 C 
ATOM     26  C37 UNL     1      70.544  71.871 104.109  0.00  0.00    +0.000 C 
ATOM     27  C38 UNL     1      71.781  71.987 103.200  0.00  0.00    +0.000 C 
ATOM     28  C39 UNL     1      71.580  72.942 101.991  0.00  0.00    +0.000 C 
ATOM     29  C40 UNL     1      71.916  74.423 102.289  0.00  0.00    +0.000 C 
ATOM     30  C41 UNL     1      73.404  74.746 102.116  0.00  0.00    +0.000 C 
ATOM     31  C42 UNL     1      73.958  74.144 100.814  0.00  0.00    +0.000 C 
ATOM     32  C43 UNL     1      73.392  74.879  99.579  0.00  0.00    +0.000 C 
ATOM     33  C44 UNL     1      73.635  72.621 100.795  0.00  0.00    +0.000 C 
ATOM     34  O9  UNL     1      72.221  72.444 100.820  0.00  0.00    +0.000 OA
ATOM     35  C45 UNL     1      74.171  71.927  99.554  0.00  0.00    +0.000 C 
ATOM     36  O10 UNL     1      75.235  72.338  99.025  0.00  0.00    +0.000 OA
ATOM     37  C46 UNL     1      73.591  70.634  99.107  0.00  0.00    +0.000 C 
ATOM     38  O11 UNL     1      72.771  70.031  99.855  0.00  0.00    +0.000 OA
ATOM     39  N1  UNL     1      73.987  70.019  97.865  0.00  0.00    +0.000 N 
ATOM     40  C47 UNL     1      74.287  70.845  96.686  0.00  0.00    +0.000 C 
ATOM     41  C48 UNL     1      73.840  70.138  95.408  0.00  0.00    +0.000 C 
ATOM     42  C49 UNL     1      74.439  68.732  95.329  0.00  0.00    +0.000 C 
ATOM     43  C50 UNL     1      74.026  67.899  96.546  0.00  0.00    +0.000 C 
ATOM     44  C51 UNL     1      74.360  68.592  97.881  0.00  0.00    +0.000 C 
ATOM     45  C52 UNL     1      75.802  68.439  98.267  0.00  0.00    +0.000 C 
ATOM     46  O12 UNL     1      76.713  68.925  97.537  0.00  0.00    +0.000 OA
ATOM     47  O13 UNL     1      76.119  67.815  99.479  0.00  0.00    +0.000 OA
ENDROOT
BRANCH   1  48
ATOM     48  C11 UNL     1      77.744  65.983  99.592  0.00  0.00    +0.000 C 
ATOM     49  C12 UNL     1      76.537  65.084  99.906  0.00  0.00    +0.000 C 
BRANCH  48  50
ATOM     50  C10 UNL     1      78.210  65.821  98.119  0.00  0.00    +0.000 C 
BRANCH  50  53
ATOM     51  C2  UNL     1      81.846  65.635  99.032  0.00  0.00    +0.000 C 
ATOM     52  C3  UNL     1      80.789  66.004  97.972  0.00  0.00    +0.000 C 
ATOM     53  C4  UNL     1      79.551  65.054  97.945  0.00  0.00    +0.000 C 
ATOM     54  C5  UNL     1      79.653  63.940  99.009  0.00  0.00    +0.000 C 
ATOM     55  C6  UNL     1      80.993  63.203  98.905  0.00  0.00    +0.000 C 
ATOM     56  C7  UNL     1      82.227  64.144  98.933  0.00  0.00    +0.000 C 
BRANCH  51  58
ATOM     57  C1  UNL     1      83.156  66.728  97.441  0.00  0.00    +0.000 C 
ATOM     58  O1  UNL     1      83.011  66.413  98.808  0.00  0.00    +0.000 OA
ENDBRANCH  51  58
BRANCH  56  59
ATOM     59  O2  UNL     1      83.028  63.822 100.055  0.00  0.00    +0.000 OA
BRANCH  59  60
ATOM     60  P1  UNL     1      84.450  62.999  99.573  0.00  0.00    +0.000 P 
ATOM     61  C8  UNL     1      85.257  62.264 101.026  0.00  0.00    +0.000 C 
ATOM     62  C9  UNL     1      85.614  64.097  98.704  0.00  0.00    +0.000 C 
ATOM     63  O3  UNL     1      84.060  61.884  98.629  0.00  0.00    +0.000 OA
ENDBRANCH  59  60
ENDBRANCH  56  59
ENDBRANCH  50  53
ENDBRANCH  48  50
ENDBRANCH   1  48
BRANCH  10  64
ATOM     64  O5  UNL     1      76.786  64.118 104.639  0.00  0.00    +0.000 OA
ATOM     65  H37 UNL     1      75.949  64.628 104.790  0.00  0.00    +0.000 HD
ENDBRANCH  10  64
BRANCH  11  66
ATOM     66  O6  UNL     1      78.209  66.201 107.291  0.00  0.00    +0.000 OA
ATOM     67  C23 UNL     1      77.783  67.496 107.663  0.00  0.00    +0.000 C 
ENDBRANCH  11  66
BRANCH  33  68
ATOM     68  O8  UNL     1      74.230  71.981 101.902  0.00  0.00    +0.000 OA
ATOM     69  H72 UNL     1      73.948  72.459 102.726  0.00  0.00    +0.000 HD
ENDBRANCH  33  68
BRANCH  26  70
ATOM     70  O14 UNL     1      69.450  71.383 103.349  0.00  0.00    +0.000 OA
ATOM     71  C53 UNL     1      68.230  71.695 103.987  0.00  0.00    +0.000 C 
ENDBRANCH  26  70
TORSDOF 10
ENDMDL
MODEL 7
REMARK VINA RESULT:      -7.7      1.498      2.108
REMARK  Name = ./S1022.pdb
REMARK  22 active torsions:
REMARK  status: ('A' for Active; 'I' for Inactive)
REMARK    1  A    between atoms: C1_1  and  O1_2
REMARK    2  A    between atoms: O1_2  and  C2_3
REMARK    3  A    between atoms: C4_5  and  C10_14
REMARK    4  A    between atoms: C7_8  and  O2_9
REMARK    5  A    between atoms: O2_9  and  P1_10
REMARK    6  A    between atoms: P1_10  and  C8_11
REMARK    7  A    between atoms: P1_10  and  C9_12
REMARK    8  A    between atoms: C10_14  and  C11_15
REMARK    9  A    between atoms: C11_15  and  C12_16
REMARK   10  A    between atoms: C11_15  and  C13_17
REMARK   11  A    between atoms: C16_21  and  C17_22
REMARK   12  A    between atoms: C19_24  and  C20_25
REMARK   13  A    between atoms: C21_26  and  O5_27
REMARK   14  A    between atoms: C22_28  and  O6_29
REMARK   15  A    between atoms: O6_29  and  C23_30
REMARK   16  A    between atoms: C25_33  and  C26_34
REMARK   17  A    between atoms: C28_36  and  C29_37
REMARK   18  A    between atoms: C35_43  and  C36_44
REMARK   19  A    between atoms: C37_45  and  O14_68
REMARK   20  A    between atoms: C42_50  and  C43_51
REMARK   21  A    between atoms: C44_52  and  O8_53
REMARK   22  A    between atoms: O14_68  and  C53_69
REMARK                            x       y       z     vdW  Elec       q    Type
REMARK                         _______ _______ _______ _____ _____    ______ ____
ROOT
ATOM      1  C13 UNL     1      77.696  67.328 100.068  0.00  0.00    +0.000 C 
ATOM      2  C14 UNL     1      77.781  67.863 101.510  0.00  0.00    +0.000 C 
ATOM      3  C15 UNL     1      79.147  67.713 102.153  0.00  0.00    +0.000 C 
ATOM      4  O4  UNL     1      80.143  67.630 101.449  0.00  0.00    +0.000 OA
ATOM      5  C16 UNL     1      79.330  67.850 103.647  0.00  0.00    +0.000 C 
ATOM      6  C17 UNL     1      79.087  69.300 104.083  0.00  0.00    +0.000 C 
ATOM      7  C18 UNL     1      78.402  66.921 104.404  0.00  0.00    +0.000 C 
ATOM      8  C19 UNL     1      78.778  65.786 105.041  0.00  0.00    +0.000 C 
ATOM      9  C20 UNL     1      80.214  65.310 105.017  0.00  0.00    +0.000 C 
ATOM     10  C21 UNL     1      77.763  65.018 105.885  0.00  0.00    +0.000 C 
ATOM     11  C22 UNL     1      77.079  65.926 106.941  0.00  0.00    +0.000 C 
ATOM     12  C24 UNL     1      76.353  65.082 107.964  0.00  0.00    +0.000 C 
ATOM     13  O7  UNL     1      76.997  64.518 108.840  0.00  0.00    +0.000 OA
ATOM     14  C25 UNL     1      74.844  64.950 107.934  0.00  0.00    +0.000 C 
ATOM     15  C26 UNL     1      74.445  63.468 108.035  0.00  0.00    +0.000 C 
ATOM     16  C27 UNL     1      74.232  65.790 109.081  0.00  0.00    +0.000 C 
ATOM     17  C28 UNL     1      72.709  66.011 108.948  0.00  0.00    +0.000 C 
ATOM     18  C29 UNL     1      72.132  66.609 110.238  0.00  0.00    +0.000 C 
ATOM     19  C30 UNL     1      72.358  66.873 107.753  0.00  0.00    +0.000 C 
ATOM     20  C31 UNL     1      72.712  68.168 107.672  0.00  0.00    +0.000 C 
ATOM     21  C32 UNL     1      72.353  69.065 106.555  0.00  0.00    +0.000 C 
ATOM     22  C33 UNL     1      71.314  68.866 105.735  0.00  0.00    +0.000 C 
ATOM     23  C34 UNL     1      71.006  69.793 104.626  0.00  0.00    +0.000 C 
ATOM     24  C35 UNL     1      70.784  71.120 104.762  0.00  0.00    +0.000 C 
ATOM     25  C36 UNL     1      70.739  71.781 106.117  0.00  0.00    +0.000 C 
ATOM     26  C37 UNL     1      70.534  71.968 103.522  0.00  0.00    +0.000 C 
ATOM     27  C38 UNL     1      71.815  72.021 102.671  0.00  0.00    +0.000 C 
ATOM     28  C39 UNL     1      71.669  72.863 101.374  0.00  0.00    +0.000 C 
ATOM     29  C40 UNL     1      71.975  74.369 101.556  0.00  0.00    +0.000 C 
ATOM     30  C41 UNL     1      73.466  74.697 101.432  0.00  0.00    +0.000 C 
ATOM     31  C42 UNL     1      74.094  73.990 100.219  0.00  0.00    +0.000 C 
ATOM     32  C43 UNL     1      73.588  74.606  98.896  0.00  0.00    +0.000 C 
ATOM     33  C44 UNL     1      73.788  72.467 100.319  0.00  0.00    +0.000 C 
ATOM     34  O9  UNL     1      72.376  72.273 100.286  0.00  0.00    +0.000 OA
ATOM     35  C45 UNL     1      74.395  71.674  99.174  0.00  0.00    +0.000 C 
ATOM     36  O10 UNL     1      75.482  72.052  98.666  0.00  0.00    +0.000 OA
ATOM     37  C46 UNL     1      73.851  70.338  98.814  0.00  0.00    +0.000 C 
ATOM     38  O11 UNL     1      72.999  69.792  99.568  0.00  0.00    +0.000 OA
ATOM     39  N1  UNL     1      74.319  69.622  97.653  0.00  0.00    +0.000 N 
ATOM     40  C47 UNL     1      74.672  70.345  96.423  0.00  0.00    +0.000 C 
ATOM     41  C48 UNL     1      74.300  69.523  95.191  0.00  0.00    +0.000 C 
ATOM     42  C49 UNL     1      74.916  68.123  95.268  0.00  0.00    +0.000 C 
ATOM     43  C50 UNL     1      74.448  67.395  96.531  0.00  0.00    +0.000 C 
ATOM     44  C51 UNL     1      74.704  68.208  97.815  0.00  0.00    +0.000 C 
ATOM     45  C52 UNL     1      76.125  68.109  98.287  0.00  0.00    +0.000 C 
ATOM     46  O12 UNL     1      77.068  68.543  97.565  0.00  0.00    +0.000 OA
ATOM     47  O13 UNL     1      76.384  67.599  99.565  0.00  0.00    +0.000 OA
ENDROOT
BRANCH   1  48
ATOM     48  C11 UNL     1      78.019  65.808  99.923  0.00  0.00    +0.000 C 
ATOM     49  C12 UNL     1      76.793  64.925 100.208  0.00  0.00    +0.000 C 
BRANCH  48  50
ATOM     50  C10 UNL     1      78.607  65.532  98.512  0.00  0.00    +0.000 C 
BRANCH  50  53
ATOM     51  C2  UNL     1      82.301  65.758  97.890  0.00  0.00    +0.000 C 
ATOM     52  C3  UNL     1      81.124  66.046  98.842  0.00  0.00    +0.000 C 
ATOM     53  C4  UNL     1      79.800  66.448  98.119  0.00  0.00    +0.000 C 
ATOM     54  C5  UNL     1      79.961  66.460  96.584  0.00  0.00    +0.000 C 
ATOM     55  C6  UNL     1      81.168  67.305  96.165  0.00  0.00    +0.000 C 
ATOM     56  C7  UNL     1      82.487  66.909  96.881  0.00  0.00    +0.000 C 
BRANCH  51  58
ATOM     57  C1  UNL     1      83.742  64.288  98.988  0.00  0.00    +0.000 C 
ATOM     58  O1  UNL     1      83.490  65.635  98.656  0.00  0.00    +0.000 OA
ENDBRANCH  51  58
BRANCH  56  59
ATOM     59  O2  UNL     1      83.431  66.492  95.912  0.00  0.00    +0.000 OA
BRANCH  59  60
ATOM     60  P1  UNL     1      84.868  67.416  96.024  0.00  0.00    +0.000 P 
ATOM     61  C8  UNL     1      85.119  68.352  94.487  0.00  0.00    +0.000 C 
ATOM     62  C9  UNL     1      86.324  66.375  96.362  0.00  0.00    +0.000 C 
ATOM     63  O3  UNL     1      84.717  68.399  97.162  0.00  0.00    +0.000 OA
ENDBRANCH  59  60
ENDBRANCH  56  59
ENDBRANCH  50  53
ENDBRANCH  48  50
ENDBRANCH   1  48
BRANCH  10  64
ATOM     64  O5  UNL     1      76.813  64.381 105.059  0.00  0.00    +0.000 OA
ATOM     65  H37 UNL     1      77.060  64.559 104.116  0.00  0.00    +0.000 HD
ENDBRANCH  10  64
BRANCH  11  66
ATOM     66  O6  UNL     1      78.074  66.710 107.586  0.00  0.00    +0.000 OA
ATOM     67  C23 UNL     1      77.607  68.018 107.845  0.00  0.00    +0.000 C 
ENDBRANCH  11  66
BRANCH  33  68
ATOM     68  O8  UNL     1      74.330  71.935 101.507  0.00  0.00    +0.000 OA
ATOM     69  H72 UNL     1      73.909  71.050 101.672  0.00  0.00    +0.000 HD
ENDBRANCH  33  68
BRANCH  26  70
ATOM     70  O14 UNL     1      69.486  71.398 102.752  0.00  0.00    +0.000 OA
ATOM     71  C53 UNL     1      68.281  71.396 103.489  0.00  0.00    +0.000 C 
ENDBRANCH  26  70
TORSDOF 10
ENDMDL
MODEL 8
REMARK VINA RESULT:      -7.6      3.895     10.425
REMARK  Name = ./S1022.pdb
REMARK  22 active torsions:
REMARK  status: ('A' for Active; 'I' for Inactive)
REMARK    1  A    between atoms: C1_1  and  O1_2
REMARK    2  A    between atoms: O1_2  and  C2_3
REMARK    3  A    between atoms: C4_5  and  C10_14
REMARK    4  A    between atoms: C7_8  and  O2_9
REMARK    5  A    between atoms: O2_9  and  P1_10
REMARK    6  A    between atoms: P1_10  and  C8_11
REMARK    7  A    between atoms: P1_10  and  C9_12
REMARK    8  A    between atoms: C10_14  and  C11_15
REMARK    9  A    between atoms: C11_15  and  C12_16
REMARK   10  A    between atoms: C11_15  and  C13_17
REMARK   11  A    between atoms: C16_21  and  C17_22
REMARK   12  A    between atoms: C19_24  and  C20_25
REMARK   13  A    between atoms: C21_26  and  O5_27
REMARK   14  A    between atoms: C22_28  and  O6_29
REMARK   15  A    between atoms: O6_29  and  C23_30
REMARK   16  A    between atoms: C25_33  and  C26_34
REMARK   17  A    between atoms: C28_36  and  C29_37
REMARK   18  A    between atoms: C35_43  and  C36_44
REMARK   19  A    between atoms: C37_45  and  O14_68
REMARK   20  A    between atoms: C42_50  and  C43_51
REMARK   21  A    between atoms: C44_52  and  O8_53
REMARK   22  A    between atoms: O14_68  and  C53_69
REMARK                            x       y       z     vdW  Elec       q    Type
REMARK                         _______ _______ _______ _____ _____    ______ ____
ROOT
ATOM      1  C13 UNL     1      77.018  65.306 105.561  0.00  0.00    +0.000 C 
ATOM      2  C14 UNL     1      77.091  66.840 105.671  0.00  0.00    +0.000 C 
ATOM      3  C15 UNL     1      77.680  67.346 106.975  0.00  0.00    +0.000 C 
ATOM      4  O4  UNL     1      78.430  66.628 107.621  0.00  0.00    +0.000 OA
ATOM      5  C16 UNL     1      77.512  68.784 107.407  0.00  0.00    +0.000 C 
ATOM      6  C17 UNL     1      78.305  69.714 106.481  0.00  0.00    +0.000 C 
ATOM      7  C18 UNL     1      76.051  69.190 107.416  0.00  0.00    +0.000 C 
ATOM      8  C19 UNL     1      75.295  69.370 108.526  0.00  0.00    +0.000 C 
ATOM      9  C20 UNL     1      75.861  69.134 109.909  0.00  0.00    +0.000 C 
ATOM     10  C21 UNL     1      73.875  69.916 108.396  0.00  0.00    +0.000 C 
ATOM     11  C22 UNL     1      73.835  71.247 107.599  0.00  0.00    +0.000 C 
ATOM     12  C24 UNL     1      72.496  71.925 107.781  0.00  0.00    +0.000 C 
ATOM     13  O7  UNL     1      72.266  72.522 108.825  0.00  0.00    +0.000 OA
ATOM     14  C25 UNL     1      71.453  71.896 106.683  0.00  0.00    +0.000 C 
ATOM     15  C26 UNL     1      70.092  71.476 107.262  0.00  0.00    +0.000 C 
ATOM     16  C27 UNL     1      71.385  73.285 106.003  0.00  0.00    +0.000 C 
ATOM     17  C28 UNL     1      70.618  73.287 104.662  0.00  0.00    +0.000 C 
ATOM     18  C29 UNL     1      70.359  74.722 104.186  0.00  0.00    +0.000 C 
ATOM     19  C30 UNL     1      71.333  72.488 103.592  0.00  0.00    +0.000 C 
ATOM     20  C31 UNL     1      72.525  72.861 103.092  0.00  0.00    +0.000 C 
ATOM     21  C32 UNL     1      73.241  72.147 102.016  0.00  0.00    +0.000 C 
ATOM     22  C33 UNL     1      72.650  71.343 101.124  0.00  0.00    +0.000 C 
ATOM     23  C34 UNL     1      73.418  70.646 100.072  0.00  0.00    +0.000 C 
ATOM     24  C35 UNL     1      74.213  71.251  99.160  0.00  0.00    +0.000 C 
ATOM     25  C36 UNL     1      74.319  72.753  99.075  0.00  0.00    +0.000 C 
ATOM     26  C37 UNL     1      74.993  70.402  98.166  0.00  0.00    +0.000 C 
ATOM     27  C38 UNL     1      76.061  69.587  98.917  0.00  0.00    +0.000 C 
ATOM     28  C39 UNL     1      76.918  68.679  97.992  0.00  0.00    +0.000 C 
ATOM     29  C40 UNL     1      78.165  69.375  97.397  0.00  0.00    +0.000 C 
ATOM     30  C41 UNL     1      79.379  69.330  98.330  0.00  0.00    +0.000 C 
ATOM     31  C42 UNL     1      79.572  67.926  98.928  0.00  0.00    +0.000 C 
ATOM     32  C43 UNL     1      80.042  66.925  97.850  0.00  0.00    +0.000 C 
ATOM     33  C44 UNL     1      78.239  67.487  99.603  0.00  0.00    +0.000 C 
ATOM     34  O9  UNL     1      77.214  67.431  98.615  0.00  0.00    +0.000 OA
ATOM     35  C45 UNL     1      78.338  66.117 100.251  0.00  0.00    +0.000 C 
ATOM     36  O10 UNL     1      79.432  65.744 100.747  0.00  0.00    +0.000 OA
ATOM     37  C46 UNL     1      77.111  65.323 100.520  0.00  0.00    +0.000 C 
ATOM     38  O11 UNL     1      75.979  65.860 100.365  0.00  0.00    +0.000 OA
ATOM     39  N1  UNL     1      77.182  63.970 101.012  0.00  0.00    +0.000 N 
ATOM     40  C47 UNL     1      78.250  63.066 100.560  0.00  0.00    +0.000 C 
ATOM     41  C48 UNL     1      77.731  61.634 100.447  0.00  0.00    +0.000 C 
ATOM     42  C49 UNL     1      77.077  61.190 101.758  0.00  0.00    +0.000 C 
ATOM     43  C50 UNL     1      75.924  62.125 102.132  0.00  0.00    +0.000 C 
ATOM     44  C51 UNL     1      76.350  63.606 102.175  0.00  0.00    +0.000 C 
ATOM     45  C52 UNL     1      77.055  63.968 103.449  0.00  0.00    +0.000 C 
ATOM     46  O12 UNL     1      78.153  63.419 103.748  0.00  0.00    +0.000 OA
ATOM     47  O13 UNL     1      76.516  64.972 104.262  0.00  0.00    +0.000 OA
ENDROOT
BRANCH   1  48
ATOM     48  C11 UNL     1      76.149  64.620 106.660  0.00  0.00    +0.000 C 
ATOM     49  C12 UNL     1      74.872  63.988 106.080  0.00  0.00    +0.000 C 
BRANCH  48  50
ATOM     50  C10 UNL     1      77.005  63.576 107.427  0.00  0.00    +0.000 C 
BRANCH  50  53
ATOM     51  C2  UNL     1      74.892  64.754 110.296  0.00  0.00    +0.000 C 
ATOM     52  C3  UNL     1      76.193  64.919 109.488  0.00  0.00    +0.000 C 
ATOM     53  C4  UNL     1      76.798  63.578 108.969  0.00  0.00    +0.000 C 
ATOM     54  C5  UNL     1      75.942  62.360 109.378  0.00  0.00    +0.000 C 
ATOM     55  C6  UNL     1      75.667  62.365 110.885  0.00  0.00    +0.000 C 
ATOM     56  C7  UNL     1      75.063  63.697 111.406  0.00  0.00    +0.000 C 
BRANCH  51  58
ATOM     57  C1  UNL     1      73.335  66.487 110.430  0.00  0.00    +0.000 C 
ATOM     58  O1  UNL     1      74.569  65.996 110.904  0.00  0.00    +0.000 OA
ENDBRANCH  51  58
BRANCH  56  59
ATOM     59  O2  UNL     1      73.789  63.440 111.966  0.00  0.00    +0.000 OA
BRANCH  59  60
ATOM     60  P1  UNL     1      73.808  63.679 113.661  0.00  0.00    +0.000 P 
ATOM     61  C8  UNL     1      73.220  65.354 114.052  0.00  0.00    +0.000 C 
ATOM     62  C9  UNL     1      75.466  63.421 114.368  0.00  0.00    +0.000 C 
ATOM     63  O3  UNL     1      72.864  62.683 114.295  0.00  0.00    +0.000 OA
ENDBRANCH  59  60
ENDBRANCH  56  59
ENDBRANCH  50  53
ENDBRANCH  48  50
ENDBRANCH   1  48
BRANCH  10  64
ATOM     64  O5  UNL     1      73.022  68.948 107.828  0.00  0.00    +0.000 OA
ATOM     65  H37 UNL     1      73.574  68.164 107.576  0.00  0.00    +0.000 HD
ENDBRANCH  10  64
BRANCH  11  66
ATOM     66  O6  UNL     1      74.871  72.098 108.072  0.00  0.00    +0.000 OA
ATOM     67  C23 UNL     1      75.383  72.907 107.033  0.00  0.00    +0.000 C 
ENDBRANCH  11  66
BRANCH  33  68
ATOM     68  O8  UNL     1      77.888  68.392 100.626  0.00  0.00    +0.000 OA
ATOM     69  H72 UNL     1      78.709  68.875 100.909  0.00  0.00    +0.000 HD
ENDBRANCH  33  68
BRANCH  26  70
ATOM     70  O14 UNL     1      74.113  69.513  97.496  0.00  0.00    +0.000 OA
ATOM     71  C53 UNL     1      73.770  70.025  96.225  0.00  0.00    +0.000 C 
ENDBRANCH  26  70
TORSDOF 10
ENDMDL
MODEL 9
REMARK VINA RESULT:      -7.6      4.752     11.770
REMARK  Name = ./S1022.pdb
REMARK  22 active torsions:
REMARK  status: ('A' for Active; 'I' for Inactive)
REMARK    1  A    between atoms: C1_1  and  O1_2
REMARK    2  A    between atoms: O1_2  and  C2_3
REMARK    3  A    between atoms: C4_5  and  C10_14
REMARK    4  A    between atoms: C7_8  and  O2_9
REMARK    5  A    between atoms: O2_9  and  P1_10
REMARK    6  A    between atoms: P1_10  and  C8_11
REMARK    7  A    between atoms: P1_10  and  C9_12
REMARK    8  A    between atoms: C10_14  and  C11_15
REMARK    9  A    between atoms: C11_15  and  C12_16
REMARK   10  A    between atoms: C11_15  and  C13_17
REMARK   11  A    between atoms: C16_21  and  C17_22
REMARK   12  A    between atoms: C19_24  and  C20_25
REMARK   13  A    between atoms: C21_26  and  O5_27
REMARK   14  A    between atoms: C22_28  and  O6_29
REMARK   15  A    between atoms: O6_29  and  C23_30
REMARK   16  A    between atoms: C25_33  and  C26_34
REMARK   17  A    between atoms: C28_36  and  C29_37
REMARK   18  A    between atoms: C35_43  and  C36_44
REMARK   19  A    between atoms: C37_45  and  O14_68
REMARK   20  A    between atoms: C42_50  and  C43_51
REMARK   21  A    between atoms: C44_52  and  O8_53
REMARK   22  A    between atoms: O14_68  and  C53_69
REMARK                            x       y       z     vdW  Elec       q    Type
REMARK                         _______ _______ _______ _____ _____    ______ ____
ROOT
ATOM      1  C13 UNL     1      73.806  66.988 107.715  0.00  0.00    +0.000 C 
ATOM      2  C14 UNL     1      73.737  66.112 106.451  0.00  0.00    +0.000 C 
ATOM      3  C15 UNL     1      73.100  64.752 106.667  0.00  0.00    +0.000 C 
ATOM      4  O4  UNL     1      72.322  64.587 107.596  0.00  0.00    +0.000 OA
ATOM      5  C16 UNL     1      73.259  63.641 105.655  0.00  0.00    +0.000 C 
ATOM      6  C17 UNL     1      72.507  63.985 104.364  0.00  0.00    +0.000 C 
ATOM      7  C18 UNL     1      74.720  63.380 105.347  0.00  0.00    +0.000 C 
ATOM      8  C19 UNL     1      75.433  62.311 105.777  0.00  0.00    +0.000 C 
ATOM      9  C20 UNL     1      74.812  61.261 106.672  0.00  0.00    +0.000 C 
ATOM     10  C21 UNL     1      76.860  62.099 105.276  0.00  0.00    +0.000 C 
ATOM     11  C22 UNL     1      76.938  62.103 103.726  0.00  0.00    +0.000 C 
ATOM     12  C24 UNL     1      78.272  61.558 103.269  0.00  0.00    +0.000 C 
ATOM     13  O7  UNL     1      78.464  60.349 103.294  0.00  0.00    +0.000 OA
ATOM     14  C25 UNL     1      79.357  62.484 102.759  0.00  0.00    +0.000 C 
ATOM     15  C26 UNL     1      80.693  62.159 103.448  0.00  0.00    +0.000 C 
ATOM     16  C27 UNL     1      79.458  62.357 101.219  0.00  0.00    +0.000 C 
ATOM     17  C28 UNL     1      80.278  63.484 100.552  0.00  0.00    +0.000 C 
ATOM     18  C29 UNL     1      80.563  63.152  99.082  0.00  0.00    +0.000 C 
ATOM     19  C30 UNL     1      79.601  64.833 100.676  0.00  0.00    +0.000 C 
ATOM     20  C31 UNL     1      78.431  65.109 100.071  0.00  0.00    +0.000 C 
ATOM     21  C32 UNL     1      77.755  66.421 100.117  0.00  0.00    +0.000 C 
ATOM     22  C33 UNL     1      78.376  67.579 100.368  0.00  0.00    +0.000 C 
ATOM     23  C34 UNL     1      77.647  68.863 100.411  0.00  0.00    +0.000 C 
ATOM     24  C35 UNL     1      76.891  69.363  99.406  0.00  0.00    +0.000 C 
ATOM     25  C36 UNL     1      76.796  68.671  98.069  0.00  0.00    +0.000 C 
ATOM     26  C37 UNL     1      76.146  70.675  99.610  0.00  0.00    +0.000 C 
ATOM     27  C38 UNL     1      75.046  70.479 100.668  0.00  0.00    +0.000 C 
ATOM     28  C39 UNL     1      74.221  71.764 100.956  0.00  0.00    +0.000 C 
ATOM     29  C40 UNL     1      73.001  71.958 100.023  0.00  0.00    +0.000 C 
ATOM     30  C41 UNL     1      71.751  71.218 100.509  0.00  0.00    +0.000 C 
ATOM     31  C42 UNL     1      71.528  71.427 102.015  0.00  0.00    +0.000 C 
ATOM     32  C43 UNL     1      71.095  72.879 102.315  0.00  0.00    +0.000 C 
ATOM     33  C44 UNL     1      72.831  71.030 102.770  0.00  0.00    +0.000 C 
ATOM     34  O9  UNL     1      73.894  71.876 102.339  0.00  0.00    +0.000 OA
ATOM     35  C45 UNL     1      72.700  71.176 104.276  0.00  0.00    +0.000 C 
ATOM     36  O10 UNL     1      71.585  70.975 104.823  0.00  0.00    +0.000 OA
ATOM     37  C46 UNL     1      73.912  71.313 105.126  0.00  0.00    +0.000 C 
ATOM     38  O11 UNL     1      75.052  71.137 104.613  0.00  0.00    +0.000 OA
ATOM     39  N1  UNL     1      73.814  71.583 106.539  0.00  0.00    +0.000 N 
ATOM     40  C47 UNL     1      72.760  72.466 107.059  0.00  0.00    +0.000 C 
ATOM     41  C48 UNL     1      73.276  73.279 108.245  0.00  0.00    +0.000 C 
ATOM     42  C49 UNL     1      73.875  72.360 109.312  0.00  0.00    +0.000 C 
ATOM     43  C50 UNL     1      75.018  71.524 108.726  0.00  0.00    +0.000 C 
ATOM     44  C51 UNL     1      74.599  70.745 107.465  0.00  0.00    +0.000 C 
ATOM     45  C52 UNL     1      73.846  69.487 107.787  0.00  0.00    +0.000 C 
ATOM     46  O12 UNL     1      72.734  69.545 108.385  0.00  0.00    +0.000 OA
ATOM     47  O13 UNL     1      74.357  68.259 107.352  0.00  0.00    +0.000 OA
ENDROOT
BRANCH   1  48
ATOM     48  C11 UNL     1      74.629  66.367 108.887  0.00  0.00    +0.000 C 
ATOM     49  C12 UNL     1      76.106  66.795 108.850  0.00  0.00    +0.000 C 
BRANCH  48  50
ATOM     50  C10 UNL     1      73.962  66.730 110.242  0.00  0.00    +0.000 C 
BRANCH  50  53
ATOM     51  C2  UNL     1      74.271  66.890 113.979  0.00  0.00    +0.000 C 
ATOM     52  C3  UNL     1      74.797  67.365 112.611  0.00  0.00    +0.000 C 
ATOM     53  C4  UNL     1      74.758  66.272 111.497  0.00  0.00    +0.000 C 
ATOM     54  C5  UNL     1      74.184  64.936 112.016  0.00  0.00    +0.000 C 
ATOM     55  C6  UNL     1      74.907  64.487 113.290  0.00  0.00    +0.000 C 
ATOM     56  C7  UNL     1      74.947  65.570 114.402  0.00  0.00    +0.000 C 
BRANCH  51  58
ATOM     57  C1  UNL     1      75.948  68.169 114.976  0.00  0.00    +0.000 C 
ATOM     58  O1  UNL     1      74.568  67.879 114.953  0.00  0.00    +0.000 OA
ENDBRANCH  51  58
BRANCH  56  59
ATOM     59  O2  UNL     1      74.274  65.082 115.548  0.00  0.00    +0.000 OA
BRANCH  59  60
ATOM     60  P1  UNL     1      75.363  64.881 116.854  0.00  0.00    +0.000 P 
ATOM     61  C8  UNL     1      75.103  63.257 117.626  0.00  0.00    +0.000 C 
ATOM     62  C9  UNL     1      75.184  66.197 118.100  0.00  0.00    +0.000 C 
ATOM     63  O3  UNL     1      76.774  64.933 116.313  0.00  0.00    +0.000 OA
ENDBRANCH  59  60
ENDBRANCH  56  59
ENDBRANCH  50  53
ENDBRANCH  48  50
ENDBRANCH   1  48
BRANCH  10  64
ATOM     64  O5  UNL     1      77.729  63.056 105.839  0.00  0.00    +0.000 OA
ATOM     65  H37 UNL     1      78.295  63.421 105.111  0.00  0.00    +0.000 HD
ENDBRANCH  10  64
BRANCH  11  66
ATOM     66  O6  UNL     1      75.889  61.294 103.211  0.00  0.00    +0.000 OA
ATOM     67  C23 UNL     1      75.432  61.780 101.965  0.00  0.00    +0.000 C 
ENDBRANCH  11  66
BRANCH  33  68
ATOM     68  O8  UNL     1      73.147  69.678 102.523  0.00  0.00    +0.000 OA
ATOM     69  H72 UNL     1      74.079  69.634 102.179  0.00  0.00    +0.000 HD
ENDBRANCH  33  68
BRANCH  26  70
ATOM     70  O14 UNL     1      77.048  71.677 100.054  0.00  0.00    +0.000 OA
ATOM     71  C53 UNL     1      77.506  72.445  98.961  0.00  0.00    +0.000 C 
ENDBRANCH  26  70
TORSDOF 10
ENDMDL
MODEL 10
REMARK VINA RESULT:      -7.5      4.552      6.431
REMARK  Name = ./S1022.pdb
REMARK  22 active torsions:
REMARK  status: ('A' for Active; 'I' for Inactive)
REMARK    1  A    between atoms: C1_1  and  O1_2
REMARK    2  A    between atoms: O1_2  and  C2_3
REMARK    3  A    between atoms: C4_5  and  C10_14
REMARK    4  A    between atoms: C7_8  and  O2_9
REMARK    5  A    between atoms: O2_9  and  P1_10
REMARK    6  A    between atoms: P1_10  and  C8_11
REMARK    7  A    between atoms: P1_10  and  C9_12
REMARK    8  A    between atoms: C10_14  and  C11_15
REMARK    9  A    between atoms: C11_15  and  C12_16
REMARK   10  A    between atoms: C11_15  and  C13_17
REMARK   11  A    between atoms: C16_21  and  C17_22
REMARK   12  A    between atoms: C19_24  and  C20_25
REMARK   13  A    between atoms: C21_26  and  O5_27
REMARK   14  A    between atoms: C22_28  and  O6_29
REMARK   15  A    between atoms: O6_29  and  C23_30
REMARK   16  A    between atoms: C25_33  and  C26_34
REMARK   17  A    between atoms: C28_36  and  C29_37
REMARK   18  A    between atoms: C35_43  and  C36_44
REMARK   19  A    between atoms: C37_45  and  O14_68
REMARK   20  A    between atoms: C42_50  and  C43_51
REMARK   21  A    between atoms: C44_52  and  O8_53
REMARK   22  A    between atoms: O14_68  and  C53_69
REMARK                            x       y       z     vdW  Elec       q    Type
REMARK                         _______ _______ _______ _____ _____    ______ ____
ROOT
ATOM      1  C13 UNL     1      80.498  65.646 102.498  0.00  0.00    +0.000 C 
ATOM      2  C14 UNL     1      79.900  65.182 103.839  0.00  0.00    +0.000 C 
ATOM      3  C15 UNL     1      80.185  63.732 104.182  0.00  0.00    +0.000 C 
ATOM      4  O4  UNL     1      81.157  63.172 103.694  0.00  0.00    +0.000 OA
ATOM      5  C16 UNL     1      79.404  63.011 105.256  0.00  0.00    +0.000 C 
ATOM      6  C17 UNL     1      79.739  63.588 106.636  0.00  0.00    +0.000 C 
ATOM      7  C18 UNL     1      77.911  63.102 105.008  0.00  0.00    +0.000 C 
ATOM      8  C19 UNL     1      77.127  62.090 104.564  0.00  0.00    +0.000 C 
ATOM      9  C20 UNL     1      77.709  60.734 104.229  0.00  0.00    +0.000 C 
ATOM     10  C21 UNL     1      75.613  62.279 104.491  0.00  0.00    +0.000 C 
ATOM     11  C22 UNL     1      75.021  62.752 105.845  0.00  0.00    +0.000 C 
ATOM     12  C24 UNL     1      73.517  62.599 105.840  0.00  0.00    +0.000 C 
ATOM     13  O7  UNL     1      73.029  61.486 105.994  0.00  0.00    +0.000 OA
ATOM     14  C25 UNL     1      72.612  63.803 105.673  0.00  0.00    +0.000 C 
ATOM     15  C26 UNL     1      71.553  63.519 104.596  0.00  0.00    +0.000 C 
ATOM     16  C27 UNL     1      71.968  64.153 107.036  0.00  0.00    +0.000 C 
ATOM     17  C28 UNL     1      71.304  65.548 107.073  0.00  0.00    +0.000 C 
ATOM     18  C29 UNL     1      70.463  65.716 108.344  0.00  0.00    +0.000 C 
ATOM     19  C30 UNL     1      72.318  66.666 106.949  0.00  0.00    +0.000 C 
ATOM     20  C31 UNL     1      73.243  66.907 107.895  0.00  0.00    +0.000 C 
ATOM     21  C32 UNL     1      74.220  68.013 107.847  0.00  0.00    +0.000 C 
ATOM     22  C33 UNL     1      74.053  69.134 107.135  0.00  0.00    +0.000 C 
ATOM     23  C34 UNL     1      75.069  70.206 107.117  0.00  0.00    +0.000 C 
ATOM     24  C35 UNL     1      75.546  70.844 108.211  0.00  0.00    +0.000 C 
ATOM     25  C36 UNL     1      74.996  70.571 109.589  0.00  0.00    +0.000 C 
ATOM     26  C37 UNL     1      76.638  71.893 108.050  0.00  0.00    +0.000 C 
ATOM     27  C38 UNL     1      77.936  71.212 107.580  0.00  0.00    +0.000 C 
ATOM     28  C39 UNL     1      79.120  72.197 107.381  0.00  0.00    +0.000 C 
ATOM     29  C40 UNL     1      79.958  72.449 108.658  0.00  0.00    +0.000 C 
ATOM     30  C41 UNL     1      81.053  71.399 108.873  0.00  0.00    +0.000 C 
ATOM     31  C42 UNL     1      81.818  71.115 107.570  0.00  0.00    +0.000 C 
ATOM     32  C43 UNL     1      82.698  72.321 107.171  0.00  0.00    +0.000 C 
ATOM     33  C44 UNL     1      80.790  70.740 106.462  0.00  0.00    +0.000 C 
ATOM     34  O9  UNL     1      79.911  71.841 106.251  0.00  0.00    +0.000 OA
ATOM     35  C45 UNL     1      81.456  70.411 105.137  0.00  0.00    +0.000 C 
ATOM     36  O10 UNL     1      82.593  69.873 105.131  0.00  0.00    +0.000 OA
ATOM     37  C46 UNL     1      80.686  70.494 103.869  0.00  0.00    +0.000 C 
ATOM     38  O11 UNL     1      79.436  70.671 103.913  0.00  0.00    +0.000 OA
ATOM     39  N1  UNL     1      81.322  70.316 102.588  0.00  0.00    +0.000 N 
ATOM     40  C47 UNL     1      82.685  70.817 102.356  0.00  0.00    +0.000 C 
ATOM     41  C48 UNL     1      82.837  71.319 100.921  0.00  0.00    +0.000 C 
ATOM     42  C49 UNL     1      82.410  70.241  99.922  0.00  0.00    +0.000 C 
ATOM     43  C50 UNL     1      80.958  69.820 100.167  0.00  0.00    +0.000 C 
ATOM     44  C51 UNL     1      80.702  69.387 101.624  0.00  0.00    +0.000 C 
ATOM     45  C52 UNL     1      81.154  67.983 101.897  0.00  0.00    +0.000 C 
ATOM     46  O12 UNL     1      82.376  67.673 101.790  0.00  0.00    +0.000 OA
ATOM     47  O13 UNL     1      80.218  67.041 102.340  0.00  0.00    +0.000 OA
ENDROOT
BRANCH   1  48
ATOM     48  C11 UNL     1      79.985  64.856 101.254  0.00  0.00    +0.000 C 
ATOM     49  C12 UNL     1      78.614  65.357 100.773  0.00  0.00    +0.000 C 
BRANCH  48  50
ATOM     50  C10 UNL     1      81.047  64.918 100.122  0.00  0.00    +0.000 C 
BRANCH  50  53
ATOM     51  C2  UNL     1      82.049  66.418  96.831  0.00  0.00    +0.000 C 
ATOM     52  C3  UNL     1      81.629  66.658  98.294  0.00  0.00    +0.000 C 
ATOM     53  C4  UNL     1      80.572  65.643  98.830  0.00  0.00    +0.000 C 
ATOM     54  C5  UNL     1      80.179  64.599  97.764  0.00  0.00    +0.000 C 
ATOM     55  C6  UNL     1      79.764  65.280  96.456  0.00  0.00    +0.000 C 
ATOM     56  C7  UNL     1      80.813  66.289  95.917  0.00  0.00    +0.000 C 
BRANCH  51  58
ATOM     57  C1  UNL     1      84.169  67.154  96.191  0.00  0.00    +0.000 C 
ATOM     58  O1  UNL     1      82.822  67.523  96.388  0.00  0.00    +0.000 OA
ENDBRANCH  51  58
BRANCH  56  59
ATOM     59  O2  UNL     1      81.255  65.861  94.642  0.00  0.00    +0.000 OA
BRANCH  59  60
ATOM     60  P1  UNL     1      80.702  66.923  93.417  0.00  0.00    +0.000 P 
ATOM     61  C8  UNL     1      81.867  68.305  93.230  0.00  0.00    +0.000 C 
ATOM     62  C9  UNL     1      79.033  67.560  93.769  0.00  0.00    +0.000 C 
ATOM     63  O3  UNL     1      80.651  66.162  92.112  0.00  0.00    +0.000 OA
ENDBRANCH  59  60
ENDBRANCH  56  59
ENDBRANCH  50  53
ENDBRANCH  48  50
ENDBRANCH   1  48
BRANCH  10  64
ATOM     64  O5  UNL     1      75.274  63.160 103.444  0.00  0.00    +0.000 OA
ATOM     65  H37 UNL     1      74.292  63.299 103.468  0.00  0.00    +0.000 HD
ENDBRANCH  10  64
BRANCH  11  66
ATOM     66  O6  UNL     1      75.578  61.965 106.890  0.00  0.00    +0.000 OA
ATOM     67  C23 UNL     1      75.715  62.717 108.079  0.00  0.00    +0.000 C 
ENDBRANCH  11  66
BRANCH  33  68
ATOM     68  O8  UNL     1      80.061  69.594 106.840  0.00  0.00    +0.000 OA
ATOM     69  H72 UNL     1      79.305  69.482 106.204  0.00  0.00    +0.000 HD
ENDBRANCH  33  68
BRANCH  26  70
ATOM     70  O14 UNL     1      76.241  72.857 107.087  0.00  0.00    +0.000 OA
ATOM     71  C53 UNL     1      75.680  73.986 107.723  0.00  0.00    +0.000 C 
ENDBRANCH  26  70
TORSDOF 10
ENDMDL
MODEL 11
REMARK VINA RESULT:      -7.5      4.279     10.308
REMARK  Name = ./S1022.pdb
REMARK  22 active torsions:
REMARK  status: ('A' for Active; 'I' for Inactive)
REMARK    1  A    between atoms: C1_1  and  O1_2
REMARK    2  A    between atoms: O1_2  and  C2_3
REMARK    3  A    between atoms: C4_5  and  C10_14
REMARK    4  A    between atoms: C7_8  and  O2_9
REMARK    5  A    between atoms: O2_9  and  P1_10
REMARK    6  A    between atoms: P1_10  and  C8_11
REMARK    7  A    between atoms: P1_10  and  C9_12
REMARK    8  A    between atoms: C10_14  and  C11_15
REMARK    9  A    between atoms: C11_15  and  C12_16
REMARK   10  A    between atoms: C11_15  and  C13_17
REMARK   11  A    between atoms: C16_21  and  C17_22
REMARK   12  A    between atoms: C19_24  and  C20_25
REMARK   13  A    between atoms: C21_26  and  O5_27
REMARK   14  A    between atoms: C22_28  and  O6_29
REMARK   15  A    between atoms: O6_29  and  C23_30
REMARK   16  A    between atoms: C25_33  and  C26_34
REMARK   17  A    between atoms: C28_36  and  C29_37
REMARK   18  A    between atoms: C35_43  and  C36_44
REMARK   19  A    between atoms: C37_45  and  O14_68
REMARK   20  A    between atoms: C42_50  and  C43_51
REMARK   21  A    between atoms: C44_52  and  O8_53
REMARK   22  A    between atoms: O14_68  and  C53_69
REMARK                            x       y       z     vdW  Elec       q    Type
REMARK                         _______ _______ _______ _____ _____    ______ ____
ROOT
ATOM      1  C13 UNL     1      79.025  64.045 103.393  0.00  0.00    +0.000 C 
ATOM      2  C14 UNL     1      77.981  64.452 102.336  0.00  0.00    +0.000 C 
ATOM      3  C15 UNL     1      78.172  63.790 100.984  0.00  0.00    +0.000 C 
ATOM      4  O4  UNL     1      78.771  62.727 100.907  0.00  0.00    +0.000 OA
ATOM      5  C16 UNL     1      77.482  64.318  99.748  0.00  0.00    +0.000 C 
ATOM      6  C17 UNL     1      75.968  64.090  99.844  0.00  0.00    +0.000 C 
ATOM      7  C18 UNL     1      77.769  65.793  99.543  0.00  0.00    +0.000 C 
ATOM      8  C19 UNL     1      78.595  66.306  98.600  0.00  0.00    +0.000 C 
ATOM      9  C20 UNL     1      79.364  65.408  97.655  0.00  0.00    +0.000 C 
ATOM     10  C21 UNL     1      78.685  67.819  98.412  0.00  0.00    +0.000 C 
ATOM     11  C22 UNL     1      77.290  68.461  98.191  0.00  0.00    +0.000 C 
ATOM     12  C24 UNL     1      77.440  69.874  97.674  0.00  0.00    +0.000 C 
ATOM     13  O7  UNL     1      77.730  70.053  96.498  0.00  0.00    +0.000 OA
ATOM     14  C25 UNL     1      77.213  71.064  98.585  0.00  0.00    +0.000 C 
ATOM     15  C26 UNL     1      78.381  72.055  98.456  0.00  0.00    +0.000 C 
ATOM     16  C27 UNL     1      75.857  71.724  98.237  0.00  0.00    +0.000 C 
ATOM     17  C28 UNL     1      75.356  72.722  99.305  0.00  0.00    +0.000 C 
ATOM     18  C29 UNL     1      74.164  73.530  98.777  0.00  0.00    +0.000 C 
ATOM     19  C30 UNL     1      75.005  72.036 100.609  0.00  0.00    +0.000 C 
ATOM     20  C31 UNL     1      73.982  71.168 100.712  0.00  0.00    +0.000 C 
ATOM     21  C32 UNL     1      73.567  70.512 101.968  0.00  0.00    +0.000 C 
ATOM     22  C33 UNL     1      73.832  70.988 103.190  0.00  0.00    +0.000 C 
ATOM     23  C34 UNL     1      73.399  70.284 104.414  0.00  0.00    +0.000 C 
ATOM     24  C35 UNL     1      72.122  69.946 104.706  0.00  0.00    +0.000 C 
ATOM     25  C36 UNL     1      70.973  70.354 103.818  0.00  0.00    +0.000 C 
ATOM     26  C37 UNL     1      71.826  69.168 105.981  0.00  0.00    +0.000 C 
ATOM     27  C38 UNL     1      72.432  67.757 105.872  0.00  0.00    +0.000 C 
ATOM     28  C39 UNL     1      72.189  66.874 107.126  0.00  0.00    +0.000 C 
ATOM     29  C40 UNL     1      70.860  66.081 107.098  0.00  0.00    +0.000 C 
ATOM     30  C41 UNL     1      70.976  64.746 106.355  0.00  0.00    +0.000 C 
ATOM     31  C42 UNL     1      72.245  63.984 106.771  0.00  0.00    +0.000 C 
ATOM     32  C43 UNL     1      72.126  63.460 108.220  0.00  0.00    +0.000 C 
ATOM     33  C44 UNL     1      73.473  64.922 106.580  0.00  0.00    +0.000 C 
ATOM     34  O9  UNL     1      73.323  66.062 107.421  0.00  0.00    +0.000 OA
ATOM     35  C45 UNL     1      74.784  64.246 106.939  0.00  0.00    +0.000 C 
ATOM     36  O10 UNL     1      74.917  63.009 106.747  0.00  0.00    +0.000 OA
ATOM     37  C46 UNL     1      75.980  65.059 107.282  0.00  0.00    +0.000 C 
ATOM     38  O11 UNL     1      75.949  66.310 107.108  0.00  0.00    +0.000 OA
ATOM     39  N1  UNL     1      77.198  64.448 107.752  0.00  0.00    +0.000 N 
ATOM     40  C47 UNL     1      77.150  63.269 108.630  0.00  0.00    +0.000 C 
ATOM     41  C48 UNL     1      78.293  63.307 109.643  0.00  0.00    +0.000 C 
ATOM     42  C49 UNL     1      79.639  63.481 108.935  0.00  0.00    +0.000 C 
ATOM     43  C50 UNL     1      79.650  64.765 108.101  0.00  0.00    +0.000 C 
ATOM     44  C51 UNL     1      78.468  64.844 107.116  0.00  0.00    +0.000 C 
ATOM     45  C52 UNL     1      78.697  64.036 105.872  0.00  0.00    +0.000 C 
ATOM     46  O12 UNL     1      78.835  62.781 105.943  0.00  0.00    +0.000 OA
ATOM     47  O13 UNL     1      78.682  64.681 104.630  0.00  0.00    +0.000 OA
ENDROOT
BRANCH   1  48
ATOM     48  C11 UNL     1      80.499  64.385 103.010  0.00  0.00    +0.000 C 
ATOM     49  C12 UNL     1      80.603  65.686 102.198  0.00  0.00    +0.000 C 
BRANCH  48  50
ATOM     50  C10 UNL     1      81.372  64.441 104.294  0.00  0.00    +0.000 C 
BRANCH  50  53
ATOM     51  C2  UNL     1      81.876  61.028 105.771  0.00  0.00    +0.000 C 
ATOM     52  C3  UNL     1      82.173  62.537 105.857  0.00  0.00    +0.000 C 
ATOM     53  C4  UNL     1      82.339  63.236 104.471  0.00  0.00    +0.000 C 
ATOM     54  C5  UNL     1      82.157  62.248 103.300  0.00  0.00    +0.000 C 
ATOM     55  C6  UNL     1      83.053  61.018 103.476  0.00  0.00    +0.000 C 
ATOM     56  C7  UNL     1      82.891  60.318 104.852  0.00  0.00    +0.000 C 
BRANCH  51  58
ATOM     57  C1  UNL     1      83.155  60.893 107.718  0.00  0.00    +0.000 C 
ATOM     58  O1  UNL     1      81.977  60.466 107.071  0.00  0.00    +0.000 OA
ENDBRANCH  51  58
BRANCH  56  59
ATOM     59  O2  UNL     1      82.441  58.992 104.646  0.00  0.00    +0.000 OA
BRANCH  59  60
ATOM     60  P1  UNL     1      83.592  57.862 105.222  0.00  0.00    +0.000 P 
ATOM     61  C8  UNL     1      85.185  58.691 105.493  0.00  0.00    +0.000 C 
ATOM     62  C9  UNL     1      83.806  56.463 104.076  0.00  0.00    +0.000 C 
ATOM     63  O3  UNL     1      83.106  57.317 106.546  0.00  0.00    +0.000 OA
ENDBRANCH  59  60
ENDBRANCH  56  59
ENDBRANCH  50  53
ENDBRANCH  48  50
ENDBRANCH   1  48
BRANCH  10  64
ATOM     64  O5  UNL     1      79.360  68.414  99.498  0.00  0.00    +0.000 OA
ATOM     65  H37 UNL     1      80.040  67.771  99.824  0.00  0.00    +0.000 HD
ENDBRANCH  10  64
BRANCH  11  66
ATOM     66  O6  UNL     1      76.570  67.681  97.245  0.00  0.00    +0.000 OA
ATOM     67  C23 UNL     1      75.187  67.667  97.540  0.00  0.00    +0.000 C 
ENDBRANCH  11  66
BRANCH  33  68
ATOM     68  O8  UNL     1      73.580  65.317 105.230  0.00  0.00    +0.000 OA
ATOM     69  H72 UNL     1      73.199  64.595 104.663  0.00  0.00    +0.000 HD
ENDBRANCH  33  68
BRANCH  26  70
ATOM     70  O14 UNL     1      72.396  69.836 107.096  0.00  0.00    +0.000 OA
ATOM     71  C53 UNL     1      71.441  70.680 107.704  0.00  0.00    +0.000 C 
ENDBRANCH  26  70
TORSDOF 10
ENDMDL
MODEL 12
REMARK VINA RESULT:      -7.4      4.375     11.210
REMARK  Name = ./S1022.pdb
REMARK  22 active torsions:
REMARK  status: ('A' for Active; 'I' for Inactive)
REMARK    1  A    between atoms: C1_1  and  O1_2
REMARK    2  A    between atoms: O1_2  and  C2_3
REMARK    3  A    between atoms: C4_5  and  C10_14
REMARK    4  A    between atoms: C7_8  and  O2_9
REMARK    5  A    between atoms: O2_9  and  P1_10
REMARK    6  A    between atoms: P1_10  and  C8_11
REMARK    7  A    between atoms: P1_10  and  C9_12
REMARK    8  A    between atoms: C10_14  and  C11_15
REMARK    9  A    between atoms: C11_15  and  C12_16
REMARK   10  A    between atoms: C11_15  and  C13_17
REMARK   11  A    between atoms: C16_21  and  C17_22
REMARK   12  A    between atoms: C19_24  and  C20_25
REMARK   13  A    between atoms: C21_26  and  O5_27
REMARK   14  A    between atoms: C22_28  and  O6_29
REMARK   15  A    between atoms: O6_29  and  C23_30
REMARK   16  A    between atoms: C25_33  and  C26_34
REMARK   17  A    between atoms: C28_36  and  C29_37
REMARK   18  A    between atoms: C35_43  and  C36_44
REMARK   19  A    between atoms: C37_45  and  O14_68
REMARK   20  A    between atoms: C42_50  and  C43_51
REMARK   21  A    between atoms: C44_52  and  O8_53
REMARK   22  A    between atoms: O14_68  and  C53_69
REMARK                            x       y       z     vdW  Elec       q    Type
REMARK                         _______ _______ _______ _____ _____    ______ ____
ROOT
ATOM      1  C13 UNL     1      74.182  67.614 107.537  0.00  0.00    +0.000 C 
ATOM      2  C14 UNL     1      74.079  66.653 106.338  0.00  0.00    +0.000 C 
ATOM      3  C15 UNL     1      73.449  65.312 106.665  0.00  0.00    +0.000 C 
ATOM      4  O4  UNL     1      72.695  65.212 107.623  0.00  0.00    +0.000 OA
ATOM      5  C16 UNL     1      73.581  64.133 105.728  0.00  0.00    +0.000 C 
ATOM      6  C17 UNL     1      72.795  64.389 104.437  0.00  0.00    +0.000 C 
ATOM      7  C18 UNL     1      75.034  63.850 105.400  0.00  0.00    +0.000 C 
ATOM      8  C19 UNL     1      75.758  62.812 105.884  0.00  0.00    +0.000 C 
ATOM      9  C20 UNL     1      75.161  61.827 106.865  0.00  0.00    +0.000 C 
ATOM     10  C21 UNL     1      77.171  62.564 105.361  0.00  0.00    +0.000 C 
ATOM     11  C22 UNL     1      77.209  62.461 103.813  0.00  0.00    +0.000 C 
ATOM     12  C24 UNL     1      78.531  61.884 103.359  0.00  0.00    +0.000 C 
ATOM     13  O7  UNL     1      78.724  60.679 103.463  0.00  0.00    +0.000 OA
ATOM     14  C25 UNL     1      79.601  62.771 102.758  0.00  0.00    +0.000 C 
ATOM     15  C26 UNL     1      80.955  62.492 103.433  0.00  0.00    +0.000 C 
ATOM     16  C27 UNL     1      79.662  62.537 101.229  0.00  0.00    +0.000 C 
ATOM     17  C28 UNL     1      80.463  63.615 100.464  0.00  0.00    +0.000 C 
ATOM     18  C29 UNL     1      80.709  63.181  99.014  0.00  0.00    +0.000 C 
ATOM     19  C30 UNL     1      79.789  64.970 100.513  0.00  0.00    +0.000 C 
ATOM     20  C31 UNL     1      78.604  65.205  99.921  0.00  0.00    +0.000 C 
ATOM     21  C32 UNL     1      77.928  66.518  99.895  0.00  0.00    +0.000 C 
ATOM     22  C33 UNL     1      78.555  67.690 100.049  0.00  0.00    +0.000 C 
ATOM     23  C34 UNL     1      77.827  68.975 100.022  0.00  0.00    +0.000 C 
ATOM     24  C35 UNL     1      77.045  69.405  99.005  0.00  0.00    +0.000 C 
ATOM     25  C36 UNL     1      76.914  68.623  97.722  0.00  0.00    +0.000 C 
ATOM     26  C37 UNL     1      76.304  70.729  99.138  0.00  0.00    +0.000 C 
ATOM     27  C38 UNL     1      75.233  70.609 100.236  0.00  0.00    +0.000 C 
ATOM     28  C39 UNL     1      74.415  71.911 100.456  0.00  0.00    +0.000 C 
ATOM     29  C40 UNL     1      73.172  72.043  99.544  0.00  0.00    +0.000 C 
ATOM     30  C41 UNL     1      71.935  71.339 100.112  0.00  0.00    +0.000 C 
ATOM     31  C42 UNL     1      71.752  71.652 101.607  0.00  0.00    +0.000 C 
ATOM     32  C43 UNL     1      71.327  73.122 101.816  0.00  0.00    +0.000 C 
ATOM     33  C44 UNL     1      73.075  71.307 102.352  0.00  0.00    +0.000 C 
ATOM     34  O9  UNL     1      74.126  72.119 101.835  0.00  0.00    +0.000 OA
ATOM     35  C45 UNL     1      72.983  71.556 103.847  0.00  0.00    +0.000 C 
ATOM     36  O10 UNL     1      71.883  71.395 104.436  0.00  0.00    +0.000 OA
ATOM     37  C46 UNL     1      74.217  71.749 104.654  0.00  0.00    +0.000 C 
ATOM     38  O11 UNL     1      75.343  71.537 104.124  0.00  0.00    +0.000 OA
ATOM     39  N1  UNL     1      74.157  72.117 106.046  0.00  0.00    +0.000 N 
ATOM     40  C47 UNL     1      73.116  73.035 106.532  0.00  0.00    +0.000 C 
ATOM     41  C48 UNL     1      73.663  73.927 107.645  0.00  0.00    +0.000 C 
ATOM     42  C49 UNL     1      74.291  73.083 108.756  0.00  0.00    +0.000 C 
ATOM     43  C50 UNL     1      75.418  72.207 108.200  0.00  0.00    +0.000 C 
ATOM     44  C51 UNL     1      74.966  71.343 107.007  0.00  0.00    +0.000 C 
ATOM     45  C52 UNL     1      74.222  70.112 107.435  0.00  0.00    +0.000 C 
ATOM     46  O12 UNL     1      73.126  70.212 108.057  0.00  0.00    +0.000 OA
ATOM     47  O13 UNL     1      74.722  68.855 107.072  0.00  0.00    +0.000 OA
ENDROOT
BRANCH   1  48
ATOM     48  C11 UNL     1      75.035  67.074 108.726  0.00  0.00    +0.000 C 
ATOM     49  C12 UNL     1      76.537  67.038 108.395  0.00  0.00    +0.000 C 
BRANCH  48  50
ATOM     50  C10 UNL     1      74.751  67.919 109.999  0.00  0.00    +0.000 C 
BRANCH  50  53
ATOM     51  C2  UNL     1      73.137  64.764 111.234  0.00  0.00    +0.000 C 
ATOM     52  C3  UNL     1      73.000  66.276 110.970  0.00  0.00    +0.000 C 
ATOM     53  C4  UNL     1      74.303  67.092 111.237  0.00  0.00    +0.000 C 
ATOM     54  C5  UNL     1      75.465  66.191 111.706  0.00  0.00    +0.000 C 
ATOM     55  C6  UNL     1      75.037  65.316 112.889  0.00  0.00    +0.000 C 
ATOM     56  C7  UNL     1      73.742  64.501 112.628  0.00  0.00    +0.000 C 
BRANCH  51  58
ATOM     57  C1  UNL     1      70.903  65.057 110.627  0.00  0.00    +0.000 C 
ATOM     58  O1  UNL     1      71.848  64.171 111.185  0.00  0.00    +0.000 OA
ENDBRANCH  51  58
BRANCH  56  59
ATOM     59  O2  UNL     1      74.038  63.120 112.722  0.00  0.00    +0.000 OA
BRANCH  59  60
ATOM     60  P1  UNL     1      73.878  62.571 114.336  0.00  0.00    +0.000 P 
ATOM     61  C8  UNL     1      72.818  63.712 115.271  0.00  0.00    +0.000 C 
ATOM     62  C9  UNL     1      75.492  62.403 115.163  0.00  0.00    +0.000 C 
ATOM     63  O3  UNL     1      73.215  61.212 114.316  0.00  0.00    +0.000 OA
ENDBRANCH  59  60
ENDBRANCH  56  59
ENDBRANCH  50  53
ENDBRANCH  48  50
ENDBRANCH   1  48
BRANCH  10  64
ATOM     64  O5  UNL     1      78.055  63.556 105.833  0.00  0.00    +0.000 OA
ATOM     65  H37 UNL     1      78.979  63.203 105.759  0.00  0.00    +0.000 HD
ENDBRANCH  10  64
BRANCH  11  66
ATOM     66  O6  UNL     1      76.147  61.620 103.383  0.00  0.00    +0.000 OA
ATOM     67  C23 UNL     1      75.660  62.017 102.117  0.00  0.00    +0.000 C 
ENDBRANCH  11  66
BRANCH  33  68
ATOM     68  O8  UNL     1      73.384  69.940 102.191  0.00  0.00    +0.000 OA
ATOM     69  H72 UNL     1      72.553  69.461 101.932  0.00  0.00    +0.000 HD
ENDBRANCH  33  68
BRANCH  26  70
ATOM     70  O14 UNL     1      77.217  71.758  99.487  0.00  0.00    +0.000 OA
ATOM     71  C53 UNL     1      77.599  72.488  98.340  0.00  0.00    +0.000 C 
ENDBRANCH  26  70
TORSDOF 10
ENDMDL
MODEL 13
REMARK VINA RESULT:      -7.4      4.627      7.490
REMARK  Name = ./S1022.pdb
REMARK  22 active torsions:
REMARK  status: ('A' for Active; 'I' for Inactive)
REMARK    1  A    between atoms: C1_1  and  O1_2
REMARK    2  A    between atoms: O1_2  and  C2_3
REMARK    3  A    between atoms: C4_5  and  C10_14
REMARK    4  A    between atoms: C7_8  and  O2_9
REMARK    5  A    between atoms: O2_9  and  P1_10
REMARK    6  A    between atoms: P1_10  and  C8_11
REMARK    7  A    between atoms: P1_10  and  C9_12
REMARK    8  A    between atoms: C10_14  and  C11_15
REMARK    9  A    between atoms: C11_15  and  C12_16
REMARK   10  A    between atoms: C11_15  and  C13_17
REMARK   11  A    between atoms: C16_21  and  C17_22
REMARK   12  A    between atoms: C19_24  and  C20_25
REMARK   13  A    between atoms: C21_26  and  O5_27
REMARK   14  A    between atoms: C22_28  and  O6_29
REMARK   15  A    between atoms: O6_29  and  C23_30
REMARK   16  A    between atoms: C25_33  and  C26_34
REMARK   17  A    between atoms: C28_36  and  C29_37
REMARK   18  A    between atoms: C35_43  and  C36_44
REMARK   19  A    between atoms: C37_45  and  O14_68
REMARK   20  A    between atoms: C42_50  and  C43_51
REMARK   21  A    between atoms: C44_52  and  O8_53
REMARK   22  A    between atoms: O14_68  and  C53_69
REMARK                            x       y       z     vdW  Elec       q    Type
REMARK                         _______ _______ _______ _____ _____    ______ ____
ROOT
ATOM      1  C13 UNL     1      77.851  63.373 100.817  0.00  0.00    +0.000 C 
ATOM      2  C14 UNL     1      77.752  63.615 102.335  0.00  0.00    +0.000 C 
ATOM      3  C15 UNL     1      78.151  62.422 103.184  0.00  0.00    +0.000 C 
ATOM      4  O4  UNL     1      78.903  61.574 102.725  0.00  0.00    +0.000 OA
ATOM      5  C16 UNL     1      77.790  62.347 104.650  0.00  0.00    +0.000 C 
ATOM      6  C17 UNL     1      78.570  63.400 105.445  0.00  0.00    +0.000 C 
ATOM      7  C18 UNL     1      76.301  62.540 104.862  0.00  0.00    +0.000 C 
ATOM      8  C19 UNL     1      75.423  61.560 105.186  0.00  0.00    +0.000 C 
ATOM      9  C20 UNL     1      75.869  60.122 105.333  0.00  0.00    +0.000 C 
ATOM     10  C21 UNL     1      73.973  61.917 105.509  0.00  0.00    +0.000 C 
ATOM     11  C22 UNL     1      73.874  63.000 106.615  0.00  0.00    +0.000 C 
ATOM     12  C24 UNL     1      72.460  63.079 107.145  0.00  0.00    +0.000 C 
ATOM     13  O7  UNL     1      72.065  62.220 107.924  0.00  0.00    +0.000 OA
ATOM     14  C25 UNL     1      71.541  64.215 106.745  0.00  0.00    +0.000 C 
ATOM     15  C26 UNL     1      70.181  63.657 106.296  0.00  0.00    +0.000 C 
ATOM     16  C27 UNL     1      71.398  65.200 107.931  0.00  0.00    +0.000 C 
ATOM     17  C28 UNL     1      70.772  66.558 107.541  0.00  0.00    +0.000 C 
ATOM     18  C29 UNL     1      70.414  67.369 108.793  0.00  0.00    +0.000 C 
ATOM     19  C30 UNL     1      71.672  67.359 106.622  0.00  0.00    +0.000 C 
ATOM     20  C31 UNL     1      72.862  67.842 107.022  0.00  0.00    +0.000 C 
ATOM     21  C32 UNL     1      73.753  68.669 106.184  0.00  0.00    +0.000 C 
ATOM     22  C33 UNL     1      73.342  69.392 105.136  0.00  0.00    +0.000 C 
ATOM     23  C34 UNL     1      74.280  70.196 104.326  0.00  0.00    +0.000 C 
ATOM     24  C35 UNL     1      75.095  71.161 104.810  0.00  0.00    +0.000 C 
ATOM     25  C36 UNL     1      75.052  71.581 106.258  0.00  0.00    +0.000 C 
ATOM     26  C37 UNL     1      76.056  71.873 103.867  0.00  0.00    +0.000 C 
ATOM     27  C38 UNL     1      77.123  70.877 103.377  0.00  0.00    +0.000 C 
ATOM     28  C39 UNL     1      78.159  71.501 102.402  0.00  0.00    +0.000 C 
ATOM     29  C40 UNL     1      79.379  72.147 103.100  0.00  0.00    +0.000 C 
ATOM     30  C41 UNL     1      80.492  71.141 103.413  0.00  0.00    +0.000 C 
ATOM     31  C42 UNL     1      80.769  70.224 102.211  0.00  0.00    +0.000 C 
ATOM     32  C43 UNL     1      81.448  71.004 101.063  0.00  0.00    +0.000 C 
ATOM     33  C44 UNL     1      79.429  69.567 101.768  0.00  0.00    +0.000 C 
ATOM     34  O9  UNL     1      78.519  70.588 101.369  0.00  0.00    +0.000 OA
ATOM     35  C45 UNL     1      79.605  68.614 100.598  0.00  0.00    +0.000 C 
ATOM     36  O10 UNL     1      80.677  67.966 100.483  0.00  0.00    +0.000 OA
ATOM     37  C46 UNL     1      78.447  68.262  99.735  0.00  0.00    +0.000 C 
ATOM     38  O11 UNL     1      77.287  68.620 100.079  0.00  0.00    +0.000 OA
ATOM     39  N1  UNL     1      78.610  67.467  98.544  0.00  0.00    +0.000 N 
ATOM     40  C47 UNL     1      79.807  67.618  97.703  0.00  0.00    +0.000 C 
ATOM     41  C48 UNL     1      79.455  67.437  96.228  0.00  0.00    +0.000 C 
ATOM     42  C49 UNL     1      78.723  66.111  96.005  0.00  0.00    +0.000 C 
ATOM     43  C50 UNL     1      77.446  66.049  96.849  0.00  0.00    +0.000 C 
ATOM     44  C51 UNL     1      77.708  66.317  98.344  0.00  0.00    +0.000 C 
ATOM     45  C52 UNL     1      78.240  65.112  99.062  0.00  0.00    +0.000 C 
ATOM     46  O12 UNL     1      79.354  64.614  98.734  0.00  0.00    +0.000 OA
ATOM     47  O13 UNL     1      77.520  64.594 100.146  0.00  0.00    +0.000 OA
ENDROOT
BRANCH   1  48
ATOM     48  C11 UNL     1      76.952  62.214 100.287  0.00  0.00    +0.000 C 
ATOM     49  C12 UNL     1      77.719  60.884 100.186  0.00  0.00    +0.000 C 
BRANCH  48  50
ATOM     50  C10 UNL     1      75.691  62.080 101.183  0.00  0.00    +0.000 C 
BRANCH  50  53
ATOM     51  C2  UNL     1      71.991  61.453 101.154  0.00  0.00    +0.000 C 
ATOM     52  C3  UNL     1      73.390  60.950 101.556  0.00  0.00    +0.000 C 
ATOM     53  C4  UNL     1      74.514  61.300 100.531  0.00  0.00    +0.000 C 
ATOM     54  C5  UNL     1      73.971  62.094  99.324  0.00  0.00    +0.000 C 
ATOM     55  C6  UNL     1      72.769  61.381  98.695  0.00  0.00    +0.000 C 
ATOM     56  C7  UNL     1      71.647  61.032  99.710  0.00  0.00    +0.000 C 
BRANCH  51  58
ATOM     57  C1  UNL     1      70.326  61.883 102.731  0.00  0.00    +0.000 C 
ATOM     58  O1  UNL     1      71.029  60.883 102.028  0.00  0.00    +0.000 OA
ENDBRANCH  51  58
BRANCH  56  59
ATOM     59  O2  UNL     1      70.457  61.700  99.332  0.00  0.00    +0.000 OA
BRANCH  59  60
ATOM     60  P1  UNL     1      69.238  60.576  98.905  0.00  0.00    +0.000 P 
ATOM     61  C8  UNL     1      68.495  61.049  97.316  0.00  0.00    +0.000 C 
ATOM     62  C9  UNL     1      67.947  60.452 100.183  0.00  0.00    +0.000 C 
ATOM     63  O3  UNL     1      69.876  59.214  98.747  0.00  0.00    +0.000 OA
ENDBRANCH  59  60
ENDBRANCH  56  59
ENDBRANCH  50  53
ENDBRANCH  48  50
ENDBRANCH   1  48
BRANCH  10  64
ATOM     64  O5  UNL     1      73.288  62.309 104.341  0.00  0.00    +0.000 OA
ATOM     65  H37 UNL     1      73.101  61.494 103.808  0.00  0.00    +0.000 HD
ENDBRANCH  10  64
BRANCH  11  66
ATOM     66  O6  UNL     1      74.762  62.660 107.672  0.00  0.00    +0.000 OA
ATOM     67  C23 UNL     1      75.288  63.817 108.291  0.00  0.00    +0.000 C 
ENDBRANCH  11  66
BRANCH  33  68
ATOM     68  O8  UNL     1      78.884  68.808 102.825  0.00  0.00    +0.000 OA
ATOM     69  H72 UNL     1      78.016  68.430 102.521  0.00  0.00    +0.000 HD
ENDBRANCH  33  68
BRANCH  26  70
ATOM     70  O14 UNL     1      75.345  72.383 102.750  0.00  0.00    +0.000 OA
ATOM     71  C53 UNL     1      74.808  73.654 103.048  0.00  0.00    +0.000 C 
ENDBRANCH  26  70
TORSDOF 10
ENDMDL
MODEL 14
REMARK VINA RESULT:      -7.4      3.710     10.562
REMARK  Name = ./S1022.pdb
REMARK  22 active torsions:
REMARK  status: ('A' for Active; 'I' for Inactive)
REMARK    1  A    between atoms: C1_1  and  O1_2
REMARK    2  A    between atoms: O1_2  and  C2_3
REMARK    3  A    between atoms: C4_5  and  C10_14
REMARK    4  A    between atoms: C7_8  and  O2_9
REMARK    5  A    between atoms: O2_9  and  P1_10
REMARK    6  A    between atoms: P1_10  and  C8_11
REMARK    7  A    between atoms: P1_10  and  C9_12
REMARK    8  A    between atoms: C10_14  and  C11_15
REMARK    9  A    between atoms: C11_15  and  C12_16
REMARK   10  A    between atoms: C11_15  and  C13_17
REMARK   11  A    between atoms: C16_21  and  C17_22
REMARK   12  A    between atoms: C19_24  and  C20_25
REMARK   13  A    between atoms: C21_26  and  O5_27
REMARK   14  A    between atoms: C22_28  and  O6_29
REMARK   15  A    between atoms: O6_29  and  C23_30
REMARK   16  A    between atoms: C25_33  and  C26_34
REMARK   17  A    between atoms: C28_36  and  C29_37
REMARK   18  A    between atoms: C35_43  and  C36_44
REMARK   19  A    between atoms: C37_45  and  O14_68
REMARK   20  A    between atoms: C42_50  and  C43_51
REMARK   21  A    between atoms: C44_52  and  O8_53
REMARK   22  A    between atoms: O14_68  and  C53_69
REMARK                            x       y       z     vdW  Elec       q    Type
REMARK                         _______ _______ _______ _____ _____    ______ ____
ROOT
ATOM      1  C13 UNL     1      75.216  68.820 104.473  0.00  0.00    +0.000 C 
ATOM      2  C14 UNL     1      75.538  67.436 103.880  0.00  0.00    +0.000 C 
ATOM      3  C15 UNL     1      75.063  66.269 104.725  0.00  0.00    +0.000 C 
ATOM      4  O4  UNL     1      74.136  66.423 105.508  0.00  0.00    +0.000 OA
ATOM      5  C16 UNL     1      75.585  64.869 104.495  0.00  0.00    +0.000 C 
ATOM      6  C17 UNL     1      75.083  64.329 103.150  0.00  0.00    +0.000 C 
ATOM      7  C18 UNL     1      77.100  64.831 104.533  0.00  0.00    +0.000 C 
ATOM      8  C19 UNL     1      77.845  64.324 105.544  0.00  0.00    +0.000 C 
ATOM      9  C20 UNL     1      77.199  63.762 106.791  0.00  0.00    +0.000 C 
ATOM     10  C21 UNL     1      79.362  64.222 105.391  0.00  0.00    +0.000 C 
ATOM     11  C22 UNL     1      79.765  63.458 104.102  0.00  0.00    +0.000 C 
ATOM     12  C24 UNL     1      81.228  63.080 104.155  0.00  0.00    +0.000 C 
ATOM     13  O7  UNL     1      81.575  62.131 104.847  0.00  0.00    +0.000 OA
ATOM     14  C25 UNL     1      82.259  63.840 103.345  0.00  0.00    +0.000 C 
ATOM     15  C26 UNL     1      83.449  64.225 104.239  0.00  0.00    +0.000 C 
ATOM     16  C27 UNL     1      82.700  62.978 102.138  0.00  0.00    +0.000 C 
ATOM     17  C28 UNL     1      83.479  63.765 101.061  0.00  0.00    +0.000 C 
ATOM     18  C29 UNL     1      84.112  62.810 100.041  0.00  0.00    +0.000 C 
ATOM     19  C30 UNL     1      82.612  64.794 100.366  0.00  0.00    +0.000 C 
ATOM     20  C31 UNL     1      81.571  64.449  99.586  0.00  0.00    +0.000 C 
ATOM     21  C32 UNL     1      80.726  65.408  98.847  0.00  0.00    +0.000 C 
ATOM     22  C33 UNL     1      81.114  66.640  98.499  0.00  0.00    +0.000 C 
ATOM     23  C34 UNL     1      80.222  67.562  97.766  0.00  0.00    +0.000 C 
ATOM     24  C35 UNL     1      79.635  67.295  96.577  0.00  0.00    +0.000 C 
ATOM     25  C36 UNL     1      79.922  66.021  95.822  0.00  0.00    +0.000 C 
ATOM     26  C37 UNL     1      78.690  68.318  95.961  0.00  0.00    +0.000 C 
ATOM     27  C38 UNL     1      77.428  68.439  96.834  0.00  0.00    +0.000 C 
ATOM     28  C39 UNL     1      76.392  69.463  96.295  0.00  0.00    +0.000 C 
ATOM     29  C40 UNL     1      75.383  68.873  95.280  0.00  0.00    +0.000 C 
ATOM     30  C41 UNL     1      74.173  68.216  95.952  0.00  0.00    +0.000 C 
ATOM     31  C42 UNL     1      73.609  69.102  97.075  0.00  0.00    +0.000 C 
ATOM     32  C43 UNL     1      72.927  70.362  96.497  0.00  0.00    +0.000 C 
ATOM     33  C44 UNL     1      74.765  69.453  98.058  0.00  0.00    +0.000 C 
ATOM     34  O9  UNL     1      75.768  70.181  97.356  0.00  0.00    +0.000 OA
ATOM     35  C45 UNL     1      74.298  70.307  99.225  0.00  0.00    +0.000 C 
ATOM     36  O10 UNL     1      73.131  70.161  99.672  0.00  0.00    +0.000 OA
ATOM     37  C46 UNL     1      75.271  71.129  99.991  0.00  0.00    +0.000 C 
ATOM     38  O11 UNL     1      76.507  70.984  99.778  0.00  0.00    +0.000 OA
ATOM     39  N1  UNL     1      74.840  72.046 101.015  0.00  0.00    +0.000 N 
ATOM     40  C47 UNL     1      73.588  72.802 100.862  0.00  0.00    +0.000 C 
ATOM     41  C48 UNL     1      73.724  74.196 101.471  0.00  0.00    +0.000 C 
ATOM     42  C49 UNL     1      74.205  74.110 102.922  0.00  0.00    +0.000 C 
ATOM     43  C50 UNL     1      75.549  73.381 103.004  0.00  0.00    +0.000 C 
ATOM     44  C51 UNL     1      75.518  71.998 102.324  0.00  0.00    +0.000 C 
ATOM     45  C52 UNL     1      74.895  70.943 103.191  0.00  0.00    +0.000 C 
ATOM     46  O12 UNL     1      73.684  71.039 103.541  0.00  0.00    +0.000 OA
ATOM     47  O13 UNL     1      75.651  69.819 103.543  0.00  0.00    +0.000 OA
ENDROOT
BRANCH   1  48
ATOM     48  C11 UNL     1      75.849  69.086 105.874  0.00  0.00    +0.000 C 
ATOM     49  C12 UNL     1      77.078  70.008 105.791  0.00  0.00    +0.000 C 
BRANCH  48  50
ATOM     50  C10 UNL     1      74.770  69.657 106.834  0.00  0.00    +0.000 C 
BRANCH  50  53
ATOM     51  C2  UNL     1      73.128  67.193 109.140  0.00  0.00    +0.000 C 
ATOM     52  C3  UNL     1      73.320  68.668 108.739  0.00  0.00    +0.000 C 
ATOM     53  C4  UNL     1      74.761  69.015 108.251  0.00  0.00    +0.000 C 
ATOM     54  C5  UNL     1      75.691  67.784 108.269  0.00  0.00    +0.000 C 
ATOM     55  C6  UNL     1      75.657  67.091 109.635  0.00  0.00    +0.000 C 
ATOM     56  C7  UNL     1      74.226  66.742 110.124  0.00  0.00    +0.000 C 
BRANCH  51  58
ATOM     57  C1  UNL     1      70.812  67.289 108.873  0.00  0.00    +0.000 C 
ATOM     58  O1  UNL     1      71.868  67.051 109.777  0.00  0.00    +0.000 OA
ENDBRANCH  51  58
BRANCH  56  59
ATOM     59  O2  UNL     1      74.122  65.339 110.283  0.00  0.00    +0.000 OA
BRANCH  59  60
ATOM     60  P1  UNL     1      74.009  64.921 111.940  0.00  0.00    +0.000 P 
ATOM     61  C8  UNL     1      73.674  66.408 112.928  0.00  0.00    +0.000 C 
ATOM     62  C9  UNL     1      75.519  64.101 112.541  0.00  0.00    +0.000 C 
ATOM     63  O3  UNL     1      72.852  63.963 112.114  0.00  0.00    +0.000 OA
ENDBRANCH  59  60
ENDBRANCH  56  59
ENDBRANCH  50  53
ENDBRANCH  48  50
ENDBRANCH   1  48
BRANCH  10  64
ATOM     64  O5  UNL     1      79.952  65.501 105.439  0.00  0.00    +0.000 OA
ATOM     65  H37 UNL     1      80.925  65.384 105.588  0.00  0.00    +0.000 HD
ENDBRANCH  10  64
BRANCH  11  66
ATOM     66  O6  UNL     1      78.971  62.284 103.995  0.00  0.00    +0.000 OA
ATOM     67  C23 UNL     1      78.757  61.932 102.643  0.00  0.00    +0.000 C 
ENDBRANCH  11  66
BRANCH  33  68
ATOM     68  O8  UNL     1      75.309  68.277  98.613  0.00  0.00    +0.000 OA
ATOM     69  H72 UNL     1      75.988  67.920  97.982  0.00  0.00    +0.000 HD
ENDBRANCH  33  68
BRANCH  26  70
ATOM     70  O14 UNL     1      79.330  69.582  95.888  0.00  0.00    +0.000 OA
ATOM     71  C53 UNL     1      79.619  69.911  94.546  0.00  0.00    +0.000 C 
ENDBRANCH  26  70
TORSDOF 10
ENDMDL
MODEL 15
REMARK VINA RESULT:      -7.3      4.147      7.981
REMARK  Name = ./S1022.pdb
REMARK  22 active torsions:
REMARK  status: ('A' for Active; 'I' for Inactive)
REMARK    1  A    between atoms: C1_1  and  O1_2
REMARK    2  A    between atoms: O1_2  and  C2_3
REMARK    3  A    between atoms: C4_5  and  C10_14
REMARK    4  A    between atoms: C7_8  and  O2_9
REMARK    5  A    between atoms: O2_9  and  P1_10
REMARK    6  A    between atoms: P1_10  and  C8_11
REMARK    7  A    between atoms: P1_10  and  C9_12
REMARK    8  A    between atoms: C10_14  and  C11_15
REMARK    9  A    between atoms: C11_15  and  C12_16
REMARK   10  A    between atoms: C11_15  and  C13_17
REMARK   11  A    between atoms: C16_21  and  C17_22
REMARK   12  A    between atoms: C19_24  and  C20_25
REMARK   13  A    between atoms: C21_26  and  O5_27
REMARK   14  A    between atoms: C22_28  and  O6_29
REMARK   15  A    between atoms: O6_29  and  C23_30
REMARK   16  A    between atoms: C25_33  and  C26_34
REMARK   17  A    between atoms: C28_36  and  C29_37
REMARK   18  A    between atoms: C35_43  and  C36_44
REMARK   19  A    between atoms: C37_45  and  O14_68
REMARK   20  A    between atoms: C42_50  and  C43_51
REMARK   21  A    between atoms: C44_52  and  O8_53
REMARK   22  A    between atoms: O14_68  and  C53_69
REMARK                            x       y       z     vdW  Elec       q    Type
REMARK                         _______ _______ _______ _____ _____    ______ ____
ROOT
ATOM      1  C13 UNL     1      78.807  64.695 104.283  0.00  0.00    +0.000 C 
ATOM      2  C14 UNL     1      78.309  65.877 105.135  0.00  0.00    +0.000 C 
ATOM      3  C15 UNL     1      78.706  65.803 106.598  0.00  0.00    +0.000 C 
ATOM      4  O4  UNL     1      79.686  65.151 106.929  0.00  0.00    +0.000 OA
ATOM      5  C16 UNL     1      78.028  66.663 107.639  0.00  0.00    +0.000 C 
ATOM      6  C17 UNL     1      78.394  68.138 107.432  0.00  0.00    +0.000 C 
ATOM      7  C18 UNL     1      76.522  66.496 107.599  0.00  0.00    +0.000 C 
ATOM      8  C19 UNL     1      75.785  65.817 108.512  0.00  0.00    +0.000 C 
ATOM      9  C20 UNL     1      76.437  65.108 109.678  0.00  0.00    +0.000 C 
ATOM     10  C21 UNL     1      74.260  65.845 108.427  0.00  0.00    +0.000 C 
ATOM     11  C22 UNL     1      73.707  67.295 108.383  0.00  0.00    +0.000 C 
ATOM     12  C24 UNL     1      72.218  67.294 108.645  0.00  0.00    +0.000 C 
ATOM     13  O7  UNL     1      71.812  67.154 109.792  0.00  0.00    +0.000 OA
ATOM     14  C25 UNL     1      71.229  67.490 107.513  0.00  0.00    +0.000 C 
ATOM     15  C26 UNL     1      70.138  66.409 107.577  0.00  0.00    +0.000 C 
ATOM     16  C27 UNL     1      70.633  68.916 107.594  0.00  0.00    +0.000 C 
ATOM     17  C28 UNL     1      69.882  69.351 106.316  0.00  0.00    +0.000 C 
ATOM     18  C29 UNL     1      69.096  70.645 106.562  0.00  0.00    +0.000 C 
ATOM     19  C30 UNL     1      70.812  69.505 105.130  0.00  0.00    +0.000 C 
ATOM     20  C31 UNL     1      71.767  70.453 105.083  0.00  0.00    +0.000 C 
ATOM     21  C32 UNL     1      72.665  70.678 103.933  0.00  0.00    +0.000 C 
ATOM     22  C33 UNL     1      72.390  70.304 102.679  0.00  0.00    +0.000 C 
ATOM     23  C34 UNL     1      73.331  70.547 101.567  0.00  0.00    +0.000 C 
ATOM     24  C35 UNL     1      73.819  71.758 101.212  0.00  0.00    +0.000 C 
ATOM     25  C36 UNL     1      73.359  73.025 101.888  0.00  0.00    +0.000 C 
ATOM     26  C37 UNL     1      74.831  71.855 100.078  0.00  0.00    +0.000 C 
ATOM     27  C38 UNL     1      76.145  71.178 100.505  0.00  0.00    +0.000 C 
ATOM     28  C39 UNL     1      77.251  71.218  99.415  0.00  0.00    +0.000 C 
ATOM     29  C40 UNL     1      78.134  72.489  99.453  0.00  0.00    +0.000 C 
ATOM     30  C41 UNL     1      79.304  72.376 100.435  0.00  0.00    +0.000 C 
ATOM     31  C42 UNL     1      80.020  71.022 100.297  0.00  0.00    +0.000 C 
ATOM     32  C43 UNL     1      80.797  70.939  98.965  0.00  0.00    +0.000 C 
ATOM     33  C44 UNL     1      78.964  69.886 100.439  0.00  0.00    +0.000 C 
ATOM     34  O9  UNL     1      78.005  70.010  99.392  0.00  0.00    +0.000 OA
ATOM     35  C45 UNL     1      79.582  68.502 100.346  0.00  0.00    +0.000 C 
ATOM     36  O10 UNL     1      80.750  68.314 100.774  0.00  0.00    +0.000 OA
ATOM     37  C46 UNL     1      78.745  67.328  99.984  0.00  0.00    +0.000 C 
ATOM     38  O11 UNL     1      77.491  67.457  99.921  0.00  0.00    +0.000 OA
ATOM     39  N1  UNL     1      79.326  66.028  99.760  0.00  0.00    +0.000 N 
ATOM     40  C47 UNL     1      80.640  65.899  99.113  0.00  0.00    +0.000 C 
ATOM     41  C48 UNL     1      80.686  64.652  98.232  0.00  0.00    +0.000 C 
ATOM     42  C49 UNL     1      80.280  63.410  99.031  0.00  0.00    +0.000 C 
ATOM     43  C50 UNL     1      78.874  63.576  99.613  0.00  0.00    +0.000 C 
ATOM     44  C51 UNL     1      78.721  64.867 100.440  0.00  0.00    +0.000 C 
ATOM     45  C52 UNL     1      79.277  64.733 101.827  0.00  0.00    +0.000 C 
ATOM     46  O12 UNL     1      80.509  64.509 102.002  0.00  0.00    +0.000 OA
ATOM     47  O13 UNL     1      78.428  64.932 102.923  0.00  0.00    +0.000 OA
ENDROOT
BRANCH   1  48
ATOM     48  C11 UNL     1      78.285  63.300 104.746  0.00  0.00    +0.000 C 
ATOM     49  C12 UNL     1      76.801  63.339 105.147  0.00  0.00    +0.000 C 
BRANCH  48  50
ATOM     50  C10 UNL     1      78.548  62.248 103.633  0.00  0.00    +0.000 C 
BRANCH  50  53
ATOM     51  C2  UNL     1      81.435  61.375 105.867  0.00  0.00    +0.000 C 
ATOM     52  C3  UNL     1      80.909  62.231 104.698  0.00  0.00    +0.000 C 
ATOM     53  C4  UNL     1      79.899  61.490 103.767  0.00  0.00    +0.000 C 
ATOM     54  C5  UNL     1      79.637  60.042 104.233  0.00  0.00    +0.000 C 
ATOM     55  C6  UNL     1      80.953  59.284 104.435  0.00  0.00    +0.000 C 
ATOM     56  C7  UNL     1      81.960  60.016 105.361  0.00  0.00    +0.000 C 
BRANCH  51  58
ATOM     57  C1  UNL     1      83.489  62.437 105.556  0.00  0.00    +0.000 C 
ATOM     58  O1  UNL     1      82.504  62.065 106.495  0.00  0.00    +0.000 OA
ENDBRANCH  51  58
BRANCH  56  59
ATOM     59  O2  UNL     1      82.226  59.203 106.489  0.00  0.00    +0.000 OA
BRANCH  59  60
ATOM     60  P1  UNL     1      83.861  58.693 106.502  0.00  0.00    +0.000 P 
ATOM     61  C8  UNL     1      83.940  56.889 106.698  0.00  0.00    +0.000 C 
ATOM     62  C9  UNL     1      84.818  59.505 107.821  0.00  0.00    +0.000 C 
ATOM     63  O3  UNL     1      84.485  59.057 105.174  0.00  0.00    +0.000 OA
ENDBRANCH  59  60
ENDBRANCH  56  59
ENDBRANCH  50  53
ENDBRANCH  48  50
ENDBRANCH   1  48
BRANCH  10  64
ATOM     64  O5  UNL     1      73.811  65.089 107.326  0.00  0.00    +0.000 OA
ATOM     65  H37 UNL     1      74.580  64.568 106.979  0.00  0.00    +0.000 HD
ENDBRANCH  10  64
BRANCH  11  66
ATOM     66  O6  UNL     1      74.367  68.068 109.377  0.00  0.00    +0.000 OA
ATOM     67  C23 UNL     1      74.460  69.425 108.991  0.00  0.00    +0.000 C 
ENDBRANCH  11  66
BRANCH  33  68
ATOM     68  O8  UNL     1      78.332  69.960 101.697  0.00  0.00    +0.000 OA
ATOM     69  H72 UNL     1      78.867  70.561 102.280  0.00  0.00    +0.000 HD
ENDBRANCH  33  68
BRANCH  26  70
ATOM     70  O14 UNL     1      74.323  71.204  98.923  0.00  0.00    +0.000 OA
ATOM     71  C53 UNL     1      73.996  72.151  97.929  0.00  0.00    +0.000 C 
ENDBRANCH  26  70
TORSDOF 10
ENDMDL
MODEL 16
REMARK VINA RESULT:      -7.3      3.596     10.782
REMARK  Name = ./S1022.pdb
REMARK  22 active torsions:
REMARK  status: ('A' for Active; 'I' for Inactive)
REMARK    1  A    between atoms: C1_1  and  O1_2
REMARK    2  A    between atoms: O1_2  and  C2_3
REMARK    3  A    between atoms: C4_5  and  C10_14
REMARK    4  A    between atoms: C7_8  and  O2_9
REMARK    5  A    between atoms: O2_9  and  P1_10
REMARK    6  A    between atoms: P1_10  and  C8_11
REMARK    7  A    between atoms: P1_10  and  C9_12
REMARK    8  A    between atoms: C10_14  and  C11_15
REMARK    9  A    between atoms: C11_15  and  C12_16
REMARK   10  A    between atoms: C11_15  and  C13_17
REMARK   11  A    between atoms: C16_21  and  C17_22
REMARK   12  A    between atoms: C19_24  and  C20_25
REMARK   13  A    between atoms: C21_26  and  O5_27
REMARK   14  A    between atoms: C22_28  and  O6_29
REMARK   15  A    between atoms: O6_29  and  C23_30
REMARK   16  A    between atoms: C25_33  and  C26_34
REMARK   17  A    between atoms: C28_36  and  C29_37
REMARK   18  A    between atoms: C35_43  and  C36_44
REMARK   19  A    between atoms: C37_45  and  O14_68
REMARK   20  A    between atoms: C42_50  and  C43_51
REMARK   21  A    between atoms: C44_52  and  O8_53
REMARK   22  A    between atoms: O14_68  and  C53_69
REMARK                            x       y       z     vdW  Elec       q    Type
REMARK                         _______ _______ _______ _____ _____    ______ ____
ROOT
ATOM      1  C13 UNL     1      74.292  72.519 102.452  0.00  0.00    +0.000 C 
ATOM      2  C14 UNL     1      75.730  72.085 102.112  0.00  0.00    +0.000 C 
ATOM      3  C15 UNL     1      76.692  73.235 101.879  0.00  0.00    +0.000 C 
ATOM      4  O4  UNL     1      76.460  74.330 102.374  0.00  0.00    +0.000 OA
ATOM      5  C16 UNL     1      78.026  73.019 101.203  0.00  0.00    +0.000 C 
ATOM      6  C17 UNL     1      78.952  72.194 102.104  0.00  0.00    +0.000 C 
ATOM      7  C18 UNL     1      77.860  72.328  99.863  0.00  0.00    +0.000 C 
ATOM      8  C19 UNL     1      77.992  72.923  98.653  0.00  0.00    +0.000 C 
ATOM      9  C20 UNL     1      78.293  74.401  98.533  0.00  0.00    +0.000 C 
ATOM     10  C21 UNL     1      77.937  72.078  97.383  0.00  0.00    +0.000 C 
ATOM     11  C22 UNL     1      78.948  70.901  97.423  0.00  0.00    +0.000 C 
ATOM     12  C24 UNL     1      79.111  70.305  96.043  0.00  0.00    +0.000 C 
ATOM     13  O7  UNL     1      79.798  70.891  95.216  0.00  0.00    +0.000 OA
ATOM     14  C25 UNL     1      78.459  68.985  95.683  0.00  0.00    +0.000 C 
ATOM     15  C26 UNL     1      77.710  69.116  94.347  0.00  0.00    +0.000 C 
ATOM     16  C27 UNL     1      79.539  67.877  95.631  0.00  0.00    +0.000 C 
ATOM     17  C28 UNL     1      78.962  66.444  95.614  0.00  0.00    +0.000 C 
ATOM     18  C29 UNL     1      80.059  65.421  95.292  0.00  0.00    +0.000 C 
ATOM     19  C30 UNL     1      78.265  66.093  96.912  0.00  0.00    +0.000 C 
ATOM     20  C31 UNL     1      78.928  65.982  98.078  0.00  0.00    +0.000 C 
ATOM     21  C32 UNL     1      78.306  65.593  99.359  0.00  0.00    +0.000 C 
ATOM     22  C33 UNL     1      77.166  64.902  99.463  0.00  0.00    +0.000 C 
ATOM     23  C34 UNL     1      76.583  64.547 100.774  0.00  0.00    +0.000 C 
ATOM     24  C35 UNL     1      77.219  63.852 101.744  0.00  0.00    +0.000 C 
ATOM     25  C36 UNL     1      78.597  63.276 101.532  0.00  0.00    +0.000 C 
ATOM     26  C37 UNL     1      76.517  63.607 103.073  0.00  0.00    +0.000 C 
ATOM     27  C38 UNL     1      76.337  64.946 103.811  0.00  0.00    +0.000 C 
ATOM     28  C39 UNL     1      75.626  64.811 105.185  0.00  0.00    +0.000 C 
ATOM     29  C40 UNL     1      76.580  64.522 106.369  0.00  0.00    +0.000 C 
ATOM     30  C41 UNL     1      77.190  65.793 106.970  0.00  0.00    +0.000 C 
ATOM     31  C42 UNL     1      76.125  66.883 107.170  0.00  0.00    +0.000 C 
ATOM     32  C43 UNL     1      75.153  66.505 108.310  0.00  0.00    +0.000 C 
ATOM     33  C44 UNL     1      75.389  67.114 105.817  0.00  0.00    +0.000 C 
ATOM     34  O9  UNL     1      74.745  65.904 105.426  0.00  0.00    +0.000 OA
ATOM     35  C45 UNL     1      74.332  68.200 105.906  0.00  0.00    +0.000 C 
ATOM     36  O10 UNL     1      74.505  69.171 106.687  0.00  0.00    +0.000 OA
ATOM     37  C46 UNL     1      73.224  68.253 104.917  0.00  0.00    +0.000 C 
ATOM     38  O11 UNL     1      73.260  67.498 103.905  0.00  0.00    +0.000 OA
ATOM     39  N1  UNL     1      72.136  69.189 105.052  0.00  0.00    +0.000 N 
ATOM     40  C47 UNL     1      71.611  69.535 106.381  0.00  0.00    +0.000 C 
ATOM     41  C48 UNL     1      70.101  69.761 106.320  0.00  0.00    +0.000 C 
ATOM     42  C49 UNL     1      69.751  70.792 105.244  0.00  0.00    +0.000 C 
ATOM     43  C50 UNL     1      70.257  70.336 103.873  0.00  0.00    +0.000 C 
ATOM     44  C51 UNL     1      71.761  69.997 103.877  0.00  0.00    +0.000 C 
ATOM     45  C52 UNL     1      72.628  71.218 103.790  0.00  0.00    +0.000 C 
ATOM     46  O12 UNL     1      72.600  72.087 104.707  0.00  0.00    +0.000 OA
ATOM     47  O13 UNL     1      73.519  71.344 102.717  0.00  0.00    +0.000 OA
ENDROOT
BRANCH   1  48
ATOM     48  C11 UNL     1      73.598  73.375 101.348  0.00  0.00    +0.000 C 
ATOM     49  C12 UNL     1      72.761  72.515 100.386  0.00  0.00    +0.000 C 
BRANCH  48  50
ATOM     50  C10 UNL     1      72.741  74.488 102.012  0.00  0.00    +0.000 C 
BRANCH  50  53
ATOM     51  C2  UNL     1      73.413  76.218  98.750  0.00  0.00    +0.000 C 
ATOM     52  C3  UNL     1      73.867  75.954 100.198  0.00  0.00    +0.000 C 
ATOM     53  C4  UNL     1      72.697  75.827 101.223  0.00  0.00    +0.000 C 
ATOM     54  C5  UNL     1      71.318  75.987 100.548  0.00  0.00    +0.000 C 
ATOM     55  C6  UNL     1      71.261  77.268  99.711  0.00  0.00    +0.000 C 
ATOM     56  C7  UNL     1      72.423  77.399  98.689  0.00  0.00    +0.000 C 
BRANCH  51  58
ATOM     57  C1  UNL     1      74.937  75.454  97.157  0.00  0.00    +0.000 C 
ATOM     58  O1  UNL     1      74.549  76.544  97.964  0.00  0.00    +0.000 OA
ENDBRANCH  51  58
BRANCH  56  59
ATOM     59  O2  UNL     1      71.884  77.452  97.381  0.00  0.00    +0.000 OA
BRANCH  59  60
ATOM     60  P1  UNL     1      71.840  79.063  96.804  0.00  0.00    +0.000 P 
ATOM     61  C8  UNL     1      73.414  79.892  97.175  0.00  0.00    +0.000 C 
ATOM     62  C9  UNL     1      70.457  80.007  97.520  0.00  0.00    +0.000 C 
ATOM     63  O3  UNL     1      71.661  79.030  95.304  0.00  0.00    +0.000 OA
ENDBRANCH  59  60
ENDBRANCH  56  59
ENDBRANCH  50  53
ENDBRANCH  48  50
ENDBRANCH   1  48
BRANCH  10  64
ATOM     64  O5  UNL     1      76.623  71.621  97.148  0.00  0.00    +0.000 OA
ATOM     65  H37 UNL     1      76.524  71.464  96.174  0.00  0.00    +0.000 HD
ENDBRANCH  10  64
BRANCH  11  66
ATOM     66  O6  UNL     1      80.201  71.388  97.885  0.00  0.00    +0.000 OA
ATOM     67  C23 UNL     1      80.782  70.499  98.818  0.00  0.00    +0.000 C 
ENDBRANCH  11  66
BRANCH  33  68
ATOM     68  O8  UNL     1      76.305  67.525 104.827  0.00  0.00    +0.000 OA
ATOM     69  H72 UNL     1      77.077  66.898 104.837  0.00  0.00    +0.000 HD
ENDBRANCH  33  68
BRANCH  26  70
ATOM     70  O14 UNL     1      75.243  63.025 102.845  0.00  0.00    +0.000 OA
ATOM     71  C53 UNL     1      75.330  61.617 102.889  0.00  0.00    +0.000 C 
ENDBRANCH  26  70
TORSDOF 10
ENDMDL
MODEL 17
REMARK VINA RESULT:      -7.3      5.535      9.998
REMARK  Name = ./S1022.pdb
REMARK  22 active torsions:
REMARK  status: ('A' for Active; 'I' for Inactive)
REMARK    1  A    between atoms: C1_1  and  O1_2
REMARK    2  A    between atoms: O1_2  and  C2_3
REMARK    3  A    between atoms: C4_5  and  C10_14
REMARK    4  A    between atoms: C7_8  and  O2_9
REMARK    5  A    between atoms: O2_9  and  P1_10
REMARK    6  A    between atoms: P1_10  and  C8_11
REMARK    7  A    between atoms: P1_10  and  C9_12
REMARK    8  A    between atoms: C10_14  and  C11_15
REMARK    9  A    between atoms: C11_15  and  C12_16
REMARK   10  A    between atoms: C11_15  and  C13_17
REMARK   11  A    between atoms: C16_21  and  C17_22
REMARK   12  A    between atoms: C19_24  and  C20_25
REMARK   13  A    between atoms: C21_26  and  O5_27
REMARK   14  A    between atoms: C22_28  and  O6_29
REMARK   15  A    between atoms: O6_29  and  C23_30
REMARK   16  A    between atoms: C25_33  and  C26_34
REMARK   17  A    between atoms: C28_36  and  C29_37
REMARK   18  A    between atoms: C35_43  and  C36_44
REMARK   19  A    between atoms: C37_45  and  O14_68
REMARK   20  A    between atoms: C42_50  and  C43_51
REMARK   21  A    between atoms: C44_52  and  O8_53
REMARK   22  A    between atoms: O14_68  and  C53_69
REMARK                            x       y       z     vdW  Elec       q    Type
REMARK                         _______ _______ _______ _____ _____    ______ ____
ROOT
ATOM      1  C13 UNL     1      76.233  61.218 103.123  0.00  0.00    +0.000 C 
ATOM      2  C14 UNL     1      76.486  62.615 102.526  0.00  0.00    +0.000 C 
ATOM      3  C15 UNL     1      76.691  62.624 101.023  0.00  0.00    +0.000 C 
ATOM      4  O4  UNL     1      76.232  61.718 100.342  0.00  0.00    +0.000 OA
ATOM      5  C16 UNL     1      77.290  63.821 100.320  0.00  0.00    +0.000 C 
ATOM      6  C17 UNL     1      76.323  65.009 100.374  0.00  0.00    +0.000 C 
ATOM      7  C18 UNL     1      78.621  64.211 100.931  0.00  0.00    +0.000 C 
ATOM      8  C19 UNL     1      79.835  63.996 100.369  0.00  0.00    +0.000 C 
ATOM      9  C20 UNL     1      79.970  63.284  99.041  0.00  0.00    +0.000 C 
ATOM     10  C21 UNL     1      81.089  64.566 101.028  0.00  0.00    +0.000 C 
ATOM     11  C22 UNL     1      80.969  66.092 101.282  0.00  0.00    +0.000 C 
ATOM     12  C24 UNL     1      82.325  66.676 101.608  0.00  0.00    +0.000 C 
ATOM     13  O7  UNL     1      83.127  66.869 100.703  0.00  0.00    +0.000 OA
ATOM     14  C25 UNL     1      82.691  67.044 103.031  0.00  0.00    +0.000 C 
ATOM     15  C26 UNL     1      84.068  66.460 103.388  0.00  0.00    +0.000 C 
ATOM     16  C27 UNL     1      82.662  68.584 103.186  0.00  0.00    +0.000 C 
ATOM     17  C28 UNL     1      82.680  69.064 104.655  0.00  0.00    +0.000 C 
ATOM     18  C29 UNL     1      82.921  70.577 104.729  0.00  0.00    +0.000 C 
ATOM     19  C30 UNL     1      81.414  68.686 105.395  0.00  0.00    +0.000 C 
ATOM     20  C31 UNL     1      80.212  69.200 105.076  0.00  0.00    +0.000 C 
ATOM     21  C32 UNL     1      78.958  68.904 105.796  0.00  0.00    +0.000 C 
ATOM     22  C33 UNL     1      78.901  68.470 107.060  0.00  0.00    +0.000 C 
ATOM     23  C34 UNL     1      77.616  68.181 107.730  0.00  0.00    +0.000 C 
ATOM     24  C35 UNL     1      76.598  69.060 107.873  0.00  0.00    +0.000 C 
ATOM     25  C36 UNL     1      76.724  70.495 107.425  0.00  0.00    +0.000 C 
ATOM     26  C37 UNL     1      75.304  68.608 108.535  0.00  0.00    +0.000 C 
ATOM     27  C38 UNL     1      74.606  67.571 107.638  0.00  0.00    +0.000 C 
ATOM     28  C39 UNL     1      73.269  67.038 108.223  0.00  0.00    +0.000 C 
ATOM     29  C40 UNL     1      72.030  67.888 107.853  0.00  0.00    +0.000 C 
ATOM     30  C41 UNL     1      71.424  67.506 106.499  0.00  0.00    +0.000 C 
ATOM     31  C42 UNL     1      71.304  65.980 106.351  0.00  0.00    +0.000 C 
ATOM     32  C43 UNL     1      70.211  65.417 107.286  0.00  0.00    +0.000 C 
ATOM     33  C44 UNL     1      72.700  65.344 106.622  0.00  0.00    +0.000 C 
ATOM     34  O9  UNL     1      73.099  65.649 107.956  0.00  0.00    +0.000 OA
ATOM     35  C45 UNL     1      72.690  63.833 106.471  0.00  0.00    +0.000 C 
ATOM     36  O10 UNL     1      71.922  63.299 105.629  0.00  0.00    +0.000 OA
ATOM     37  C46 UNL     1      73.739  63.006 107.123  0.00  0.00    +0.000 C 
ATOM     38  O11 UNL     1      74.731  63.573 107.660  0.00  0.00    +0.000 OA
ATOM     39  N1  UNL     1      73.681  61.566 107.107  0.00  0.00    +0.000 N 
ATOM     40  C47 UNL     1      72.390  60.869 107.204  0.00  0.00    +0.000 C 
ATOM     41  C48 UNL     1      72.537  59.573 107.999  0.00  0.00    +0.000 C 
ATOM     42  C49 UNL     1      73.652  58.702 107.414  0.00  0.00    +0.000 C 
ATOM     43  C50 UNL     1      74.984  59.457 107.413  0.00  0.00    +0.000 C 
ATOM     44  C51 UNL     1      74.892  60.824 106.708  0.00  0.00    +0.000 C 
ATOM     45  C52 UNL     1      74.959  60.708 105.213  0.00  0.00    +0.000 C 
ATOM     46  O12 UNL     1      74.063  60.079 104.582  0.00  0.00    +0.000 OA
ATOM     47  O13 UNL     1      75.984  61.367 104.525  0.00  0.00    +0.000 OA
ENDROOT
BRANCH   1  48
ATOM     48  C11 UNL     1      77.390  60.198 102.893  0.00  0.00    +0.000 C 
ATOM     49  C12 UNL     1      78.635  60.533 103.732  0.00  0.00    +0.000 C 
BRANCH  48  50
ATOM     50  C10 UNL     1      76.881  58.758 103.175  0.00  0.00    +0.000 C 
BRANCH  50  53
ATOM     51  C2  UNL     1      74.230  58.705 100.519  0.00  0.00    +0.000 C 
ATOM     52  C3  UNL     1      74.752  58.120 101.845  0.00  0.00    +0.000 C 
ATOM     53  C4  UNL     1      76.307  58.020 101.933  0.00  0.00    +0.000 C 
ATOM     54  C5  UNL     1      76.993  58.545 100.654  0.00  0.00    +0.000 C 
ATOM     55  C6  UNL     1      76.406  57.881  99.404  0.00  0.00    +0.000 C 
ATOM     56  C7  UNL     1      74.860  57.979  99.312  0.00  0.00    +0.000 C 
BRANCH  51  58
ATOM     57  C1  UNL     1      72.158  59.775 100.475  0.00  0.00    +0.000 C 
ATOM     58  O1  UNL     1      72.823  58.532 100.462  0.00  0.00    +0.000 OA
ENDBRANCH  51  58
BRANCH  56  59
ATOM     59  O2  UNL     1      74.511  58.695  98.141  0.00  0.00    +0.000 OA
BRANCH  59  60
ATOM     60  P1  UNL     1      73.787  57.659  96.987  0.00  0.00    +0.000 P 
ATOM     61  C8  UNL     1      72.331  58.469  96.261  0.00  0.00    +0.000 C 
ATOM     62  C9  UNL     1      73.310  56.057  97.711  0.00  0.00    +0.000 C 
ATOM     63  O3  UNL     1      74.787  57.397  95.884  0.00  0.00    +0.000 OA
ENDBRANCH  59  60
ENDBRANCH  56  59
ENDBRANCH  50  53
ENDBRANCH  48  50
ENDBRANCH   1  48
BRANCH  10  64
ATOM     64  O5  UNL     1      81.384  63.867 102.217  0.00  0.00    +0.000 OA
ATOM     65  H37 UNL     1      82.368  63.874 102.340  0.00  0.00    +0.000 HD
ENDBRANCH  10  64
BRANCH  11  66
ATOM     66  O6  UNL     1      80.451  66.713 100.112  0.00  0.00    +0.000 OA
ATOM     67  C23 UNL     1      79.626  67.812 100.440  0.00  0.00    +0.000 C 
ENDBRANCH  11  66
BRANCH  33  68
ATOM     68  O8  UNL     1      73.648  65.834 105.701  0.00  0.00    +0.000 OA
ATOM     69  H72 UNL     1      73.165  66.121 104.881  0.00  0.00    +0.000 HD
ENDBRANCH  33  68
BRANCH  26  70
ATOM     70  O14 UNL     1      75.588  68.019 109.795  0.00  0.00    +0.000 OA
ATOM     71  C53 UNL     1      74.943  68.734 110.828  0.00  0.00    +0.000 C 
ENDBRANCH  26  70
TORSDOF 10
ENDMDL
MODEL 18
REMARK VINA RESULT:      -7.3      3.038      4.989
REMARK  Name = ./S1022.pdb
REMARK  22 active torsions:
REMARK  status: ('A' for Active; 'I' for Inactive)
REMARK    1  A    between atoms: C1_1  and  O1_2
REMARK    2  A    between atoms: O1_2  and  C2_3
REMARK    3  A    between atoms: C4_5  and  C10_14
REMARK    4  A    between atoms: C7_8  and  O2_9
REMARK    5  A    between atoms: O2_9  and  P1_10
REMARK    6  A    between atoms: P1_10  and  C8_11
REMARK    7  A    between atoms: P1_10  and  C9_12
REMARK    8  A    between atoms: C10_14  and  C11_15
REMARK    9  A    between atoms: C11_15  and  C12_16
REMARK   10  A    between atoms: C11_15  and  C13_17
REMARK   11  A    between atoms: C16_21  and  C17_22
REMARK   12  A    between atoms: C19_24  and  C20_25
REMARK   13  A    between atoms: C21_26  and  O5_27
REMARK   14  A    between atoms: C22_28  and  O6_29
REMARK   15  A    between atoms: O6_29  and  C23_30
REMARK   16  A    between atoms: C25_33  and  C26_34
REMARK   17  A    between atoms: C28_36  and  C29_37
REMARK   18  A    between atoms: C35_43  and  C36_44
REMARK   19  A    between atoms: C37_45  and  O14_68
REMARK   20  A    between atoms: C42_50  and  C43_51
REMARK   21  A    between atoms: C44_52  and  O8_53
REMARK   22  A    between atoms: O14_68  and  C53_69
REMARK                            x       y       z     vdW  Elec       q    Type
REMARK                         _______ _______ _______ _____ _____    ______ ____
ROOT
ATOM      1  C13 UNL     1      77.145  67.232  99.821  0.00  0.00    +0.000 C 
ATOM      2  C14 UNL     1      77.309  67.625 101.301  0.00  0.00    +0.000 C 
ATOM      3  C15 UNL     1      78.674  67.309 101.884  0.00  0.00    +0.000 C 
ATOM      4  O4  UNL     1      79.642  67.210 101.143  0.00  0.00    +0.000 OA
ATOM      5  C16 UNL     1      78.906  67.294 103.377  0.00  0.00    +0.000 C 
ATOM      6  C17 UNL     1      78.795  68.713 103.947  0.00  0.00    +0.000 C 
ATOM      7  C18 UNL     1      77.923  66.378 104.079  0.00  0.00    +0.000 C 
ATOM      8  C19 UNL     1      78.219  65.163 104.601  0.00  0.00    +0.000 C 
ATOM      9  C20 UNL     1      79.610  64.578 104.488  0.00  0.00    +0.000 C 
ATOM     10  C21 UNL     1      77.165  64.406 105.406  0.00  0.00    +0.000 C 
ATOM     11  C22 UNL     1      76.586  65.266 106.560  0.00  0.00    +0.000 C 
ATOM     12  C24 UNL     1      75.819  64.394 107.528  0.00  0.00    +0.000 C 
ATOM     13  O7  UNL     1      76.436  63.703 108.328  0.00  0.00    +0.000 OA
ATOM     14  C25 UNL     1      74.304  64.386 107.535  0.00  0.00    +0.000 C 
ATOM     15  C26 UNL     1      73.786  62.939 107.517  0.00  0.00    +0.000 C 
ATOM     16  C27 UNL     1      73.793  65.166 108.771  0.00  0.00    +0.000 C 
ATOM     17  C28 UNL     1      72.290  65.520 108.708  0.00  0.00    +0.000 C 
ATOM     18  C29 UNL     1      71.798  66.043 110.063  0.00  0.00    +0.000 C 
ATOM     19  C30 UNL     1      71.982  66.512 107.606  0.00  0.00    +0.000 C 
ATOM     20  C31 UNL     1      72.440  67.777 107.627  0.00  0.00    +0.000 C 
ATOM     21  C32 UNL     1      72.129  68.797 106.606  0.00  0.00    +0.000 C 
ATOM     22  C33 UNL     1      71.057  68.758 105.807  0.00  0.00    +0.000 C 
ATOM     23  C34 UNL     1      70.799  69.803 104.795  0.00  0.00    +0.000 C 
ATOM     24  C35 UNL     1      70.691  71.126 105.054  0.00  0.00    +0.000 C 
ATOM     25  C36 UNL     1      70.736  71.663 106.463  0.00  0.00    +0.000 C 
ATOM     26  C37 UNL     1      70.481  72.100 103.902  0.00  0.00    +0.000 C 
ATOM     27  C38 UNL     1      71.741  72.127 103.018  0.00  0.00    +0.000 C 
ATOM     28  C39 UNL     1      71.633  73.092 101.806  0.00  0.00    +0.000 C 
ATOM     29  C40 UNL     1      72.067  74.546 102.111  0.00  0.00    +0.000 C 
ATOM     30  C41 UNL     1      73.577  74.763 101.968  0.00  0.00    +0.000 C 
ATOM     31  C42 UNL     1      74.113  74.121 100.678  0.00  0.00    +0.000 C 
ATOM     32  C43 UNL     1      73.626  74.893  99.431  0.00  0.00    +0.000 C 
ATOM     33  C44 UNL     1      73.684  72.624 100.652  0.00  0.00    +0.000 C 
ATOM     34  O9  UNL     1      72.261  72.549 100.649  0.00  0.00    +0.000 OA
ATOM     35  C45 UNL     1      74.194  71.893  99.422  0.00  0.00    +0.000 C 
ATOM     36  O10 UNL     1      75.296  72.227  98.915  0.00  0.00    +0.000 OA
ATOM     37  C46 UNL     1      73.533  70.643  98.964  0.00  0.00    +0.000 C 
ATOM     38  O11 UNL     1      72.657  70.101  99.694  0.00  0.00    +0.000 OA
ATOM     39  N1  UNL     1      73.910  70.000  97.730  0.00  0.00    +0.000 N 
ATOM     40  C47 UNL     1      74.291  70.801  96.557  0.00  0.00    +0.000 C 
ATOM     41  C48 UNL     1      73.821  70.127  95.270  0.00  0.00    +0.000 C 
ATOM     42  C49 UNL     1      74.320  68.681  95.203  0.00  0.00    +0.000 C 
ATOM     43  C50 UNL     1      73.826  67.881  96.411  0.00  0.00    +0.000 C 
ATOM     44  C51 UNL     1      74.180  68.551  97.753  0.00  0.00    +0.000 C 
ATOM     45  C52 UNL     1      75.600  68.296  98.168  0.00  0.00    +0.000 C 
ATOM     46  O12 UNL     1      76.557  68.716  97.457  0.00  0.00    +0.000 OA
ATOM     47  O13 UNL     1      75.847  67.653  99.387  0.00  0.00    +0.000 OA
ENDROOT
BRANCH   1  48
ATOM     48  C11 UNL     1      77.336  65.711  99.532  0.00  0.00    +0.000 C 
ATOM     49  C12 UNL     1      78.731  65.398  98.965  0.00  0.00    +0.000 C 
BRANCH  48  50
ATOM     50  C10 UNL     1      77.047  64.894 100.821  0.00  0.00    +0.000 C 
BRANCH  50  53
ATOM     51  C2  UNL     1      76.998  61.546 102.516  0.00  0.00    +0.000 C 
ATOM     52  C3  UNL     1      77.840  62.660 101.864  0.00  0.00    +0.000 C 
ATOM     53  C4  UNL     1      77.152  63.352 100.647  0.00  0.00    +0.000 C 
ATOM     54  C5  UNL     1      75.752  62.766 100.363  0.00  0.00    +0.000 C 
ATOM     55  C6  UNL     1      75.811  61.240 100.246  0.00  0.00    +0.000 C 
ATOM     56  C7  UNL     1      76.493  60.546 101.456  0.00  0.00    +0.000 C 
BRANCH  51  58
ATOM     57  C1  UNL     1      79.102  60.625 102.929  0.00  0.00    +0.000 C 
ATOM     58  O1  UNL     1      77.808  60.843 103.446  0.00  0.00    +0.000 OA
ENDBRANCH  51  58
BRANCH  56  59
ATOM     59  O2  UNL     1      75.561  59.681 102.079  0.00  0.00    +0.000 OA
BRANCH  59  60
ATOM     60  P1  UNL     1      76.039  58.046 101.909  0.00  0.00    +0.000 P 
ATOM     61  C8  UNL     1      74.594  57.023 101.498  0.00  0.00    +0.000 C 
ATOM     62  C9  UNL     1      76.843  57.410 103.413  0.00  0.00    +0.000 C 
ATOM     63  O3  UNL     1      77.028  57.953 100.770  0.00  0.00    +0.000 OA
ENDBRANCH  59  60
ENDBRANCH  56  59
ENDBRANCH  50  53
ENDBRANCH  48  50
ENDBRANCH   1  48
BRANCH  10  64
ATOM     64  O5  UNL     1      76.146  63.925 104.559  0.00  0.00    +0.000 OA
ATOM     65  H37 UNL     1      75.285  63.998 105.044  0.00  0.00    +0.000 HD
ENDBRANCH  10  64
BRANCH  11  66
ATOM     66  O6  UNL     1      77.659  65.906 107.239  0.00  0.00    +0.000 OA
ATOM     67  C23 UNL     1      77.252  67.143 107.788  0.00  0.00    +0.000 C 
ENDBRANCH  11  66
BRANCH  33  68
ATOM     68  O8  UNL     1      74.210  71.946 101.771  0.00  0.00    +0.000 OA
ATOM     69  H72 UNL     1      74.496  72.623 102.439  0.00  0.00    +0.000 HD
ENDBRANCH  33  68
BRANCH  26  70
ATOM     70  O14 UNL     1      69.370  71.689 103.120  0.00  0.00    +0.000 OA
ATOM     71  C53 UNL     1      68.169  71.863 103.842  0.00  0.00    +0.000 C 
ENDBRANCH  26  70
TORSDOF 10
ENDMDL
MODEL 19
REMARK VINA RESULT:      -7.3      3.575      9.761
REMARK  Name = ./S1022.pdb
REMARK  22 active torsions:
REMARK  status: ('A' for Active; 'I' for Inactive)
REMARK    1  A    between atoms: C1_1  and  O1_2
REMARK    2  A    between atoms: O1_2  and  C2_3
REMARK    3  A    between atoms: C4_5  and  C10_14
REMARK    4  A    between atoms: C7_8  and  O2_9
REMARK    5  A    between atoms: O2_9  and  P1_10
REMARK    6  A    between atoms: P1_10  and  C8_11
REMARK    7  A    between atoms: P1_10  and  C9_12
REMARK    8  A    between atoms: C10_14  and  C11_15
REMARK    9  A    between atoms: C11_15  and  C12_16
REMARK   10  A    between atoms: C11_15  and  C13_17
REMARK   11  A    between atoms: C16_21  and  C17_22
REMARK   12  A    between atoms: C19_24  and  C20_25
REMARK   13  A    between atoms: C21_26  and  O5_27
REMARK   14  A    between atoms: C22_28  and  O6_29
REMARK   15  A    between atoms: O6_29  and  C23_30
REMARK   16  A    between atoms: C25_33  and  C26_34
REMARK   17  A    between atoms: C28_36  and  C29_37
REMARK   18  A    between atoms: C35_43  and  C36_44
REMARK   19  A    between atoms: C37_45  and  O14_68
REMARK   20  A    between atoms: C42_50  and  C43_51
REMARK   21  A    between atoms: C44_52  and  O8_53
REMARK   22  A    between atoms: O14_68  and  C53_69
REMARK                            x       y       z     vdW  Elec       q    Type
REMARK                         _______ _______ _______ _____ _____    ______ ____
ROOT
ATOM      1  C13 UNL     1      78.946  64.237 103.265  0.00  0.00    +0.000 C 
ATOM      2  C14 UNL     1      77.883  64.642 102.228  0.00  0.00    +0.000 C 
ATOM      3  C15 UNL     1      78.084  64.029 100.855  0.00  0.00    +0.000 C 
ATOM      4  O4  UNL     1      78.715  62.988 100.741  0.00  0.00    +0.000 OA
ATOM      5  C16 UNL     1      77.367  64.573  99.640  0.00  0.00    +0.000 C 
ATOM      6  C17 UNL     1      75.863  64.294  99.740  0.00  0.00    +0.000 C 
ATOM      7  C18 UNL     1      77.606  66.061  99.479  0.00  0.00    +0.000 C 
ATOM      8  C19 UNL     1      78.409  66.629  98.547  0.00  0.00    +0.000 C 
ATOM      9  C20 UNL     1      79.198  65.786  97.570  0.00  0.00    +0.000 C 
ATOM     10  C21 UNL     1      78.449  68.150  98.405  0.00  0.00    +0.000 C 
ATOM     11  C22 UNL     1      77.032  68.753  98.213  0.00  0.00    +0.000 C 
ATOM     12  C24 UNL     1      77.134  70.185  97.740  0.00  0.00    +0.000 C 
ATOM     13  O7  UNL     1      77.409  70.410  96.568  0.00  0.00    +0.000 OA
ATOM     14  C25 UNL     1      76.876  71.338  98.688  0.00  0.00    +0.000 C 
ATOM     15  C26 UNL     1      78.011  72.370  98.583  0.00  0.00    +0.000 C 
ATOM     16  C27 UNL     1      75.497  71.965  98.370  0.00  0.00    +0.000 C 
ATOM     17  C28 UNL     1      74.973  72.914  99.471  0.00  0.00    +0.000 C 
ATOM     18  C29 UNL     1      73.751  73.699  98.977  0.00  0.00    +0.000 C 
ATOM     19  C30 UNL     1      74.654  72.177 100.756  0.00  0.00    +0.000 C 
ATOM     20  C31 UNL     1      73.660  71.275 100.840  0.00  0.00    +0.000 C 
ATOM     21  C32 UNL     1      73.275  70.567 102.077  0.00  0.00    +0.000 C 
ATOM     22  C33 UNL     1      73.535  71.014 103.311  0.00  0.00    +0.000 C 
ATOM     23  C34 UNL     1      73.134  70.259 104.516  0.00  0.00    +0.000 C 
ATOM     24  C35 UNL     1      71.870  69.872 104.806  0.00  0.00    +0.000 C 
ATOM     25  C36 UNL     1      70.702  70.270 103.939  0.00  0.00    +0.000 C 
ATOM     26  C37 UNL     1      71.609  69.045 106.058  0.00  0.00    +0.000 C 
ATOM     27  C38 UNL     1      72.259  67.659 105.901  0.00  0.00    +0.000 C 
ATOM     28  C39 UNL     1      72.053  66.731 107.130  0.00  0.00    +0.000 C 
ATOM     29  C40 UNL     1      70.750  65.897 107.085  0.00  0.00    +0.000 C 
ATOM     30  C41 UNL     1      70.902  64.589 106.301  0.00  0.00    +0.000 C 
ATOM     31  C42 UNL     1      72.198  63.856 106.685  0.00  0.00    +0.000 C 
ATOM     32  C43 UNL     1      72.107  63.284 108.117  0.00  0.00    +0.000 C 
ATOM     33  C44 UNL     1      73.394  64.838 106.514  0.00  0.00    +0.000 C 
ATOM     34  O9  UNL     1      73.214  65.947 107.391  0.00  0.00    +0.000 OA
ATOM     35  C45 UNL     1      74.729  64.193 106.843  0.00  0.00    +0.000 C 
ATOM     36  O10 UNL     1      74.899  62.968 106.612  0.00  0.00    +0.000 OA
ATOM     37  C46 UNL     1      75.901  65.034 107.203  0.00  0.00    +0.000 C 
ATOM     38  O11 UNL     1      75.829  66.287 107.069  0.00  0.00    +0.000 OA
ATOM     39  N1  UNL     1      77.141  64.448 107.647  0.00  0.00    +0.000 N 
ATOM     40  C47 UNL     1      77.138  63.242 108.488  0.00  0.00    +0.000 C 
ATOM     41  C48 UNL     1      78.286  63.285 109.494  0.00  0.00    +0.000 C 
ATOM     42  C49 UNL     1      79.621  63.523 108.783  0.00  0.00    +0.000 C 
ATOM     43  C50 UNL     1      79.585  64.831 107.988  0.00  0.00    +0.000 C 
ATOM     44  C51 UNL     1      78.393  64.903 107.014  0.00  0.00    +0.000 C 
ATOM     45  C52 UNL     1      78.638  64.141 105.745  0.00  0.00    +0.000 C 
ATOM     46  O12 UNL     1      78.817  62.890 105.776  0.00  0.00    +0.000 OA
ATOM     47  O13 UNL     1      78.593  64.823 104.523  0.00  0.00    +0.000 OA
ENDROOT
BRANCH   1  48
ATOM     48  C11 UNL     1      80.406  64.635 102.883  0.00  0.00    +0.000 C 
ATOM     49  C12 UNL     1      81.120  63.530 102.087  0.00  0.00    +0.000 C 
BRANCH  48  50
ATOM     50  C10 UNL     1      80.394  65.981 102.107  0.00  0.00    +0.000 C 
BRANCH  50  53
ATOM     51  C2  UNL     1      78.557  68.104 104.598  0.00  0.00    +0.000 C 
ATOM     52  C3  UNL     1      79.036  67.927 103.144  0.00  0.00    +0.000 C 
ATOM     53  C4  UNL     1      80.434  67.247 103.009  0.00  0.00    +0.000 C 
ATOM     54  C5  UNL     1      81.037  66.887 104.383  0.00  0.00    +0.000 C 
ATOM     55  C6  UNL     1      81.034  68.100 105.319  0.00  0.00    +0.000 C 
ATOM     56  C7  UNL     1      79.646  68.779 105.458  0.00  0.00    +0.000 C 
BRANCH  51  58
ATOM     57  C1  UNL     1      76.282  68.240 104.099  0.00  0.00    +0.000 C 
ATOM     58  O1  UNL     1      77.403  68.931 104.605  0.00  0.00    +0.000 OA
ENDBRANCH  51  58
BRANCH  56  59
ATOM     59  O2  UNL     1      79.234  68.718 106.811  0.00  0.00    +0.000 OA
BRANCH  59  60
ATOM     60  P1  UNL     1      79.083  70.290 107.474  0.00  0.00    +0.000 P 
ATOM     61  C8  UNL     1      77.328  70.751 107.566  0.00  0.00    +0.000 C 
ATOM     62  C9  UNL     1      80.002  71.529 106.507  0.00  0.00    +0.000 C 
ATOM     63  O3  UNL     1      79.646  70.274 108.876  0.00  0.00    +0.000 OA
ENDBRANCH  59  60
ENDBRANCH  56  59
ENDBRANCH  50  53
ENDBRANCH  48  50
ENDBRANCH   1  48
BRANCH  10  64
ATOM     64  O5  UNL     1      79.113  68.732  99.504  0.00  0.00    +0.000 OA
ATOM     65  H37 UNL     1      80.065  68.457  99.467  0.00  0.00    +0.000 HD
ENDBRANCH  10  64
BRANCH  11  66
ATOM     66  O6  UNL     1      76.330  67.979  97.249  0.00  0.00    +0.000 OA
ATOM     67  C23 UNL     1      74.945  67.950  97.527  0.00  0.00    +0.000 C 
ENDBRANCH  11  66
BRANCH  33  68
ATOM     68  O8  UNL     1      73.479  65.277 105.177  0.00  0.00    +0.000 OA
ATOM     69  H72 UNL     1      72.870  66.055 105.066  0.00  0.00    +0.000 HD
ENDBRANCH  33  68
BRANCH  26  70
ATOM     70  O14 UNL     1      72.166  69.697 107.190  0.00  0.00    +0.000 OA
ATOM     71  C53 UNL     1      71.181  70.465 107.848  0.00  0.00    +0.000 C 
ENDBRANCH  26  70
TORSDOF 10
ENDMDL
MODEL 20
REMARK VINA RESULT:      -7.2      5.494     10.681
REMARK  Name = ./S1022.pdb
REMARK  22 active torsions:
REMARK  status: ('A' for Active; 'I' for Inactive)
REMARK    1  A    between atoms: C1_1  and  O1_2
REMARK    2  A    between atoms: O1_2  and  C2_3
REMARK    3  A    between atoms: C4_5  and  C10_14
REMARK    4  A    between atoms: C7_8  and  O2_9
REMARK    5  A    between atoms: O2_9  and  P1_10
REMARK    6  A    between atoms: P1_10  and  C8_11
REMARK    7  A    between atoms: P1_10  and  C9_12
REMARK    8  A    between atoms: C10_14  and  C11_15
REMARK    9  A    between atoms: C11_15  and  C12_16
REMARK   10  A    between atoms: C11_15  and  C13_17
REMARK   11  A    between atoms: C16_21  and  C17_22
REMARK   12  A    between atoms: C19_24  and  C20_25
REMARK   13  A    between atoms: C21_26  and  O5_27
REMARK   14  A    between atoms: C22_28  and  O6_29
REMARK   15  A    between atoms: O6_29  and  C23_30
REMARK   16  A    between atoms: C25_33  and  C26_34
REMARK   17  A    between atoms: C28_36  and  C29_37
REMARK   18  A    between atoms: C35_43  and  C36_44
REMARK   19  A    between atoms: C37_45  and  O14_68
REMARK   20  A    between atoms: C42_50  and  C43_51
REMARK   21  A    between atoms: C44_52  and  O8_53
REMARK   22  A    between atoms: O14_68  and  C53_69
REMARK                            x       y       z     vdW  Elec       q    Type
REMARK                         _______ _______ _______ _____ _____    ______ ____
ROOT
ATOM      1  C13 UNL     1      74.249  62.793 106.432  0.00  0.00    +0.000 C 
ATOM      2  C14 UNL     1      74.906  63.271 105.123  0.00  0.00    +0.000 C 
ATOM      3  C15 UNL     1      74.948  62.224 104.027  0.00  0.00    +0.000 C 
ATOM      4  O4  UNL     1      74.138  61.307 104.031  0.00  0.00    +0.000 OA
ATOM      5  C16 UNL     1      75.847  62.384 102.823  0.00  0.00    +0.000 C 
ATOM      6  C17 UNL     1      75.360  63.541 101.944  0.00  0.00    +0.000 C 
ATOM      7  C18 UNL     1      77.286  62.622 103.237  0.00  0.00    +0.000 C 
ATOM      8  C19 UNL     1      78.288  61.714 103.146  0.00  0.00    +0.000 C 
ATOM      9  C20 UNL     1      78.034  60.313 102.635  0.00  0.00    +0.000 C 
ATOM     10  C21 UNL     1      79.721  62.132 103.467  0.00  0.00    +0.000 C 
ATOM     11  C22 UNL     1      80.161  63.377 102.652  0.00  0.00    +0.000 C 
ATOM     12  C24 UNL     1      81.661  63.551 102.732  0.00  0.00    +0.000 C 
ATOM     13  O7  UNL     1      82.384  62.830 102.056  0.00  0.00    +0.000 OA
ATOM     14  C25 UNL     1      82.274  64.619 103.615  0.00  0.00    +0.000 C 
ATOM     15  C26 UNL     1      83.394  64.011 104.475  0.00  0.00    +0.000 C 
ATOM     16  C27 UNL     1      82.792  65.780 102.731  0.00  0.00    +0.000 C 
ATOM     17  C28 UNL     1      83.123  67.066 103.521  0.00  0.00    +0.000 C 
ATOM     18  C29 UNL     1      83.876  68.067 102.637  0.00  0.00    +0.000 C 
ATOM     19  C30 UNL     1      81.886  67.703 104.120  0.00  0.00    +0.000 C 
ATOM     20  C31 UNL     1      80.909  68.231 103.361  0.00  0.00    +0.000 C 
ATOM     21  C32 UNL     1      79.709  68.907 103.893  0.00  0.00    +0.000 C 
ATOM     22  C33 UNL     1      79.635  69.460 105.109  0.00  0.00    +0.000 C 
ATOM     23  C34 UNL     1      78.404  70.117 105.595  0.00  0.00    +0.000 C 
ATOM     24  C35 UNL     1      77.771  71.139 104.973  0.00  0.00    +0.000 C 
ATOM     25  C36 UNL     1      78.337  71.782 103.732  0.00  0.00    +0.000 C 
ATOM     26  C37 UNL     1      76.475  71.683 105.557  0.00  0.00    +0.000 C 
ATOM     27  C38 UNL     1      75.375  70.613 105.447  0.00  0.00    +0.000 C 
ATOM     28  C39 UNL     1      74.003  71.066 106.019  0.00  0.00    +0.000 C 
ATOM     29  C40 UNL     1      73.101  71.802 104.999  0.00  0.00    +0.000 C 
ATOM     30  C41 UNL     1      72.267  70.847 104.138  0.00  0.00    +0.000 C 
ATOM     31  C42 UNL     1      71.615  69.749 104.995  0.00  0.00    +0.000 C 
ATOM     32  C43 UNL     1      70.496  70.332 105.885  0.00  0.00    +0.000 C 
ATOM     33  C44 UNL     1      72.726  69.043 105.827  0.00  0.00    +0.000 C 
ATOM     34  O9  UNL     1      73.339  69.998 106.689  0.00  0.00    +0.000 OA
ATOM     35  C45 UNL     1      72.182  67.917 106.689  0.00  0.00    +0.000 C 
ATOM     36  O10 UNL     1      71.196  67.248 106.284  0.00  0.00    +0.000 OA
ATOM     37  C46 UNL     1      72.942  67.444 107.875  0.00  0.00    +0.000 C 
ATOM     38  O11 UNL     1      74.118  67.863 108.065  0.00  0.00    +0.000 OA
ATOM     39  N1  UNL     1      72.391  66.470 108.784  0.00  0.00    +0.000 N 
ATOM     40  C47 UNL     1      70.956  66.475 109.103  0.00  0.00    +0.000 C 
ATOM     41  C48 UNL     1      70.728  66.067 110.557  0.00  0.00    +0.000 C 
ATOM     42  C49 UNL     1      71.409  64.730 110.858  0.00  0.00    +0.000 C 
ATOM     43  C50 UNL     1      72.912  64.814 110.579  0.00  0.00    +0.000 C 
ATOM     44  C51 UNL     1      73.226  65.312 109.155  0.00  0.00    +0.000 C 
ATOM     45  C52 UNL     1      73.096  64.230 108.123  0.00  0.00    +0.000 C 
ATOM     46  O12 UNL     1      71.979  63.675 107.917  0.00  0.00    +0.000 OA
ATOM     47  O13 UNL     1      74.211  63.896 107.344  0.00  0.00    +0.000 OA
ENDROOT
BRANCH   1  48
ATOM     48  C11 UNL     1      74.955  61.573 107.100  0.00  0.00    +0.000 C 
ATOM     49  C12 UNL     1      75.753  61.977 108.352  0.00  0.00    +0.000 C 
BRANCH  48  50
ATOM     50  C10 UNL     1      73.905  60.474 107.422  0.00  0.00    +0.000 C 
BRANCH  50  53
ATOM     51  C2  UNL     1      73.200  57.530 105.204  0.00  0.00    +0.000 C 
ATOM     52  C3  UNL     1      73.104  58.148 106.612  0.00  0.00    +0.000 C 
ATOM     53  C4  UNL     1      74.326  59.036 107.006  0.00  0.00    +0.000 C 
ATOM     54  C5  UNL     1      75.375  59.109 105.877  0.00  0.00    +0.000 C 
ATOM     55  C6  UNL     1      75.766  57.707 105.399  0.00  0.00    +0.000 C 
ATOM     56  C7  UNL     1      74.554  56.820 105.006  0.00  0.00    +0.000 C 
BRANCH  51  58
ATOM     57  C1  UNL     1      71.291  56.588 106.160  0.00  0.00    +0.000 C 
ATOM     58  O1  UNL     1      72.164  56.572 105.052  0.00  0.00    +0.000 OA
ENDBRANCH  51  58
BRANCH  56  59
ATOM     59  O2  UNL     1      74.666  56.465 103.640  0.00  0.00    +0.000 OA
BRANCH  59  60
ATOM     60  P1  UNL     1      75.048  54.805 103.471  0.00  0.00    +0.000 P 
ATOM     61  C8  UNL     1      76.673  54.470 104.213  0.00  0.00    +0.000 C 
ATOM     62  C9  UNL     1      75.040  54.276 101.728  0.00  0.00    +0.000 C 
ATOM     63  O3  UNL     1      74.009  53.996 104.213  0.00  0.00    +0.000 OA
ENDBRANCH  59  60
ENDBRANCH  56  59
ENDBRANCH  50  53
ENDBRANCH  48  50
ENDBRANCH   1  48
BRANCH  10  64
ATOM     64  O5  UNL     1      79.877  62.341 104.853  0.00  0.00    +0.000 OA
ATOM     65  H37 UNL     1      79.886  61.455 105.297  0.00  0.00    +0.000 HD
ENDBRANCH  10  64
BRANCH  11  66
ATOM     66  O6  UNL     1      79.772  63.198 101.296  0.00  0.00    +0.000 OA
ATOM     67  C23 UNL     1      79.468  64.436 100.684  0.00  0.00    +0.000 C 
ENDBRANCH  11  66
BRANCH  33  68
ATOM     68  O8  UNL     1      73.687  68.466 104.971  0.00  0.00    +0.000 OA
ATOM     69  H72 UNL     1      73.498  67.492 104.904  0.00  0.00    +0.000 HD
ENDBRANCH  33  68
BRANCH  26  70
ATOM     70  O14 UNL     1      76.665  72.018 106.923  0.00  0.00    +0.000 OA
ATOM     71  C53 UNL     1      77.166  73.333 107.042  0.00  0.00    +0.000 C 
ENDBRANCH  26  70
TORSDOF 10
ENDMDL
