MODEL 1
REMARK VINA RESULT:      -8.4      0.000      0.000
REMARK  Name = ./S1039.pdb
REMARK  19 active torsions:
REMARK  status: ('A' for Active; 'I' for Inactive)
REMARK    1  A    between atoms: C1_1  and  O1_2
REMARK    2  A    between atoms: O1_2  and  C2_3
REMARK    3  A    between atoms: C4_5  and  C8_10
REMARK    4  A    between atoms: C7_8  and  O2_9
REMARK    5  A    between atoms: C8_10  and  C9_11
REMARK    6  A    between atoms: C9_11  and  C10_12
REMARK    7  A    between atoms: C9_11  and  C11_13
REMARK    8  A    between atoms: C14_17  and  C15_18
REMARK    9  A    between atoms: C17_20  and  C18_21
REMARK   10  A    between atoms: C19_22  and  O4_23
REMARK   11  A    between atoms: C20_24  and  O5_25
REMARK   12  A    between atoms: O5_25  and  C21_26
REMARK   13  A    between atoms: C23_29  and  C24_30
REMARK   14  A    between atoms: C26_32  and  C27_33
REMARK   15  A    between atoms: C33_39  and  C34_40
REMARK   16  A    between atoms: C35_41  and  O13_64
REMARK   17  A    between atoms: C40_46  and  C41_47
REMARK   18  A    between atoms: C42_48  and  O7_49
REMARK   19  A    between atoms: O13_64  and  C51_65
REMARK                            x       y       z     vdW  Elec       q    Type
REMARK                         _______ _______ _______ _____ _____    ______ ____
ROOT
ATOM      1  C11 UNL     1      76.843  63.544 102.118  0.00  0.00    +0.000 C 
ATOM      2  C12 UNL     1      76.974  65.014 101.650  0.00  0.00    +0.000 C 
ATOM      3  C13 UNL     1      77.890  65.173 100.454  0.00  0.00    +0.000 C 
ATOM      4  O3  UNL     1      77.620  64.577  99.419  0.00  0.00    +0.000 OA
ATOM      5  C14 UNL     1      79.123  66.050 100.520  0.00  0.00    +0.000 C 
ATOM      6  C15 UNL     1      80.418  65.242 100.332  0.00  0.00    +0.000 C 
ATOM      7  C16 UNL     1      78.990  67.287  99.641  0.00  0.00    +0.000 C 
ATOM      8  C17 UNL     1      79.237  67.416  98.307  0.00  0.00    +0.000 C 
ATOM      9  C18 UNL     1      79.792  66.280  97.475  0.00  0.00    +0.000 C 
ATOM     10  C19 UNL     1      79.087  68.807  97.672  0.00  0.00    +0.000 C 
ATOM     11  C20 UNL     1      78.239  68.859  96.373  0.00  0.00    +0.000 C 
ATOM     12  C22 UNL     1      76.819  68.389  96.642  0.00  0.00    +0.000 C 
ATOM     13  O6  UNL     1      76.639  67.211  96.917  0.00  0.00    +0.000 OA
ATOM     14  C23 UNL     1      75.613  69.317  96.579  0.00  0.00    +0.000 C 
ATOM     15  C24 UNL     1      74.539  68.708  95.662  0.00  0.00    +0.000 C 
ATOM     16  C25 UNL     1      75.101  69.567  98.013  0.00  0.00    +0.000 C 
ATOM     17  C26 UNL     1      73.876  70.510  98.124  0.00  0.00    +0.000 C 
ATOM     18  C27 UNL     1      74.155  71.935  97.615  0.00  0.00    +0.000 C 
ATOM     19  C28 UNL     1      73.385  70.527  99.551  0.00  0.00    +0.000 C 
ATOM     20  C29 UNL     1      74.117  71.016 100.563  0.00  0.00    +0.000 C 
ATOM     21  C30 UNL     1      73.720  70.883 101.975  0.00  0.00    +0.000 C 
ATOM     22  C31 UNL     1      73.033  69.827 102.431  0.00  0.00    +0.000 C 
ATOM     23  C32 UNL     1      72.751  69.637 103.864  0.00  0.00    +0.000 C 
ATOM     24  C33 UNL     1      72.063  70.507 104.631  0.00  0.00    +0.000 C 
ATOM     25  C34 UNL     1      71.432  71.747 104.047  0.00  0.00    +0.000 C 
ATOM     26  C35 UNL     1      71.759  70.114 106.068  0.00  0.00    +0.000 C 
ATOM     27  C36 UNL     1      70.395  69.377 106.137  0.00  0.00    +0.000 C 
ATOM     28  C37 UNL     1      70.418  68.132 107.041  0.00  0.00    +0.000 C 
ATOM     29  C38 UNL     1      70.657  68.514 108.517  0.00  0.00    +0.000 C 
ATOM     30  C39 UNL     1      70.612  67.273 109.410  0.00  0.00    +0.000 C 
ATOM     31  C40 UNL     1      71.046  65.995 108.656  0.00  0.00    +0.000 C 
ATOM     32  C41 UNL     1      71.644  64.980 109.653  0.00  0.00    +0.000 C 
ATOM     33  C42 UNL     1      71.995  66.344 107.452  0.00  0.00    +0.000 C 
ATOM     34  O8  UNL     1      71.361  67.203 106.506  0.00  0.00    +0.000 OA
ATOM     35  C43 UNL     1      72.385  65.094 106.671  0.00  0.00    +0.000 C 
ATOM     36  O9  UNL     1      71.609  64.099 106.650  0.00  0.00    +0.000 OA
ATOM     37  C44 UNL     1      73.620  65.042 105.862  0.00  0.00    +0.000 C 
ATOM     38  O10 UNL     1      74.153  66.101 105.436  0.00  0.00    +0.000 OA
ATOM     39  N1  UNL     1      74.205  63.777 105.539  0.00  0.00    +0.000 N 
ATOM     40  C45 UNL     1      75.017  63.094 106.550  0.00  0.00    +0.000 C 
ATOM     41  C46 UNL     1      74.293  61.835 107.062  0.00  0.00    +0.000 C 
ATOM     42  C47 UNL     1      73.418  61.152 105.987  0.00  0.00    +0.000 C 
ATOM     43  C48 UNL     1      73.852  61.520 104.563  0.00  0.00    +0.000 C 
ATOM     44  C49 UNL     1      73.754  63.046 104.344  0.00  0.00    +0.000 C 
ATOM     45  C50 UNL     1      74.571  63.442 103.146  0.00  0.00    +0.000 C 
ATOM     46  O11 UNL     1      74.001  63.642 102.039  0.00  0.00    +0.000 OA
ATOM     47  O12 UNL     1      75.966  63.470 103.247  0.00  0.00    +0.000 OA
ENDROOT
BRANCH   1  48
ATOM     48  C9  UNL     1      78.197  62.859 102.471  0.00  0.00    +0.000 C 
ATOM     49  C10 UNL     1      78.240  62.457 103.962  0.00  0.00    +0.000 C 
BRANCH  48  50
ATOM     50  C8  UNL     1      78.467  61.580 101.615  0.00  0.00    +0.000 C 
BRANCH  50  53
ATOM     51  C2  UNL     1      76.323  58.231 101.287  0.00  0.00    +0.000 C 
ATOM     52  C3  UNL     1      77.362  59.225 101.882  0.00  0.00    +0.000 C 
ATOM     53  C4  UNL     1      77.293  60.634 101.239  0.00  0.00    +0.000 C 
ATOM     54  C5  UNL     1      76.980  60.522  99.738  0.00  0.00    +0.000 C 
ATOM     55  C6  UNL     1      75.570  59.933  99.520  0.00  0.00    +0.000 C 
ATOM     56  C7  UNL     1      75.124  58.966 100.650  0.00  0.00    +0.000 C 
BRANCH  51  58
ATOM     57  C1  UNL     1      77.156  56.118 100.749  0.00  0.00    +0.000 C 
ATOM     58  O1  UNL     1      76.953  57.436 100.289  0.00  0.00    +0.000 OA
ENDBRANCH  51  58
BRANCH  56  59
ATOM     59  O2  UNL     1      74.211  58.025 100.147  0.00  0.00    +0.000 OA
ATOM     60  H13 UNL     1      73.946  58.338  99.243  0.00  0.00    +0.000 HD
ENDBRANCH  56  59
ENDBRANCH  50  53
ENDBRANCH  48  50
ENDBRANCH   1  48
BRANCH  10  61
ATOM     61  O4  UNL     1      80.362  69.364  97.453  0.00  0.00    +0.000 OA
ATOM     62  H32 UNL     1      80.944  69.090  98.210  0.00  0.00    +0.000 HD
ENDBRANCH  10  61
BRANCH  11  63
ATOM     63  O5  UNL     1      78.250  70.201  95.907  0.00  0.00    +0.000 OA
ATOM     64  C21 UNL     1      78.771  70.273  94.594  0.00  0.00    +0.000 C 
ENDBRANCH  11  63
BRANCH  33  65
ATOM     65  O7  UNL     1      73.154  66.995 107.928  0.00  0.00    +0.000 OA
ATOM     66  H67 UNL     1      73.935  66.402 107.757  0.00  0.00    +0.000 HD
ENDBRANCH  33  65
BRANCH  26  67
ATOM     67  O13 UNL     1      71.710  71.263 106.902  0.00  0.00    +0.000 OA
ATOM     68  C51 UNL     1      72.904  71.387 107.648  0.00  0.00    +0.000 C 
ENDBRANCH  26  67
TORSDOF 9
ENDMDL
MODEL 2
REMARK VINA RESULT:      -8.2      3.452      4.288
REMARK  Name = ./S1039.pdb
REMARK  19 active torsions:
REMARK  status: ('A' for Active; 'I' for Inactive)
REMARK    1  A    between atoms: C1_1  and  O1_2
REMARK    2  A    between atoms: O1_2  and  C2_3
REMARK    3  A    between atoms: C4_5  and  C8_10
REMARK    4  A    between atoms: C7_8  and  O2_9
REMARK    5  A    between atoms: C8_10  and  C9_11
REMARK    6  A    between atoms: C9_11  and  C10_12
REMARK    7  A    between atoms: C9_11  and  C11_13
REMARK    8  A    between atoms: C14_17  and  C15_18
REMARK    9  A    between atoms: C17_20  and  C18_21
REMARK   10  A    between atoms: C19_22  and  O4_23
REMARK   11  A    between atoms: C20_24  and  O5_25
REMARK   12  A    between atoms: O5_25  and  C21_26
REMARK   13  A    between atoms: C23_29  and  C24_30
REMARK   14  A    between atoms: C26_32  and  C27_33
REMARK   15  A    between atoms: C33_39  and  C34_40
REMARK   16  A    between atoms: C35_41  and  O13_64
REMARK   17  A    between atoms: C40_46  and  C41_47
REMARK   18  A    between atoms: C42_48  and  O7_49
REMARK   19  A    between atoms: O13_64  and  C51_65
REMARK                            x       y       z     vdW  Elec       q    Type
REMARK                         _______ _______ _______ _____ _____    ______ ____
ROOT
ATOM      1  C11 UNL     1      78.908  64.516 102.501  0.00  0.00    +0.000 C 
ATOM      2  C12 UNL     1      78.706  65.731 101.563  0.00  0.00    +0.000 C 
ATOM      3  C13 UNL     1      79.185  65.472 100.150  0.00  0.00    +0.000 C 
ATOM      4  O3  UNL     1      78.689  64.549  99.516  0.00  0.00    +0.000 OA
ATOM      5  C14 UNL     1      80.261  66.330  99.516  0.00  0.00    +0.000 C 
ATOM      6  C15 UNL     1      81.527  65.520  99.186  0.00  0.00    +0.000 C 
ATOM      7  C16 UNL     1      79.712  67.181  98.377  0.00  0.00    +0.000 C 
ATOM      8  C17 UNL     1      79.522  66.839  97.072  0.00  0.00    +0.000 C 
ATOM      9  C18 UNL     1      79.934  65.490  96.523  0.00  0.00    +0.000 C 
ATOM     10  C19 UNL     1      79.013  67.919  96.105  0.00  0.00    +0.000 C 
ATOM     11  C20 UNL     1      77.810  67.505  95.217  0.00  0.00    +0.000 C 
ATOM     12  C22 UNL     1      76.610  67.143  96.076  0.00  0.00    +0.000 C 
ATOM     13  O6  UNL     1      76.670  66.133  96.764  0.00  0.00    +0.000 OA
ATOM     14  C23 UNL     1      75.337  67.978  96.115  0.00  0.00    +0.000 C 
ATOM     15  C24 UNL     1      74.118  67.076  95.856  0.00  0.00    +0.000 C 
ATOM     16  C25 UNL     1      75.261  68.708  97.473  0.00  0.00    +0.000 C 
ATOM     17  C26 UNL     1      74.020  69.617  97.668  0.00  0.00    +0.000 C 
ATOM     18  C27 UNL     1      73.950  70.777  96.660  0.00  0.00    +0.000 C 
ATOM     19  C28 UNL     1      73.991  70.125  99.088  0.00  0.00    +0.000 C 
ATOM     20  C29 UNL     1      74.929  70.944  99.583  0.00  0.00    +0.000 C 
ATOM     21  C30 UNL     1      75.003  71.309 101.009  0.00  0.00    +0.000 C 
ATOM     22  C31 UNL     1      74.625  70.471 101.984  0.00  0.00    +0.000 C 
ATOM     23  C32 UNL     1      74.820  70.790 103.408  0.00  0.00    +0.000 C 
ATOM     24  C33 UNL     1      74.296  71.867 104.031  0.00  0.00    +0.000 C 
ATOM     25  C34 UNL     1      73.368  72.817 103.317  0.00  0.00    +0.000 C 
ATOM     26  C35 UNL     1      74.497  71.996 105.532  0.00  0.00    +0.000 C 
ATOM     27  C36 UNL     1      73.322  71.315 106.283  0.00  0.00    +0.000 C 
ATOM     28  C37 UNL     1      73.775  70.465 107.483  0.00  0.00    +0.000 C 
ATOM     29  C38 UNL     1      74.404  71.340 108.587  0.00  0.00    +0.000 C 
ATOM     30  C39 UNL     1      74.789  70.489 109.798  0.00  0.00    +0.000 C 
ATOM     31  C40 UNL     1      75.127  69.032 109.404  0.00  0.00    +0.000 C 
ATOM     32  C41 UNL     1      76.122  68.436 110.421  0.00  0.00    +0.000 C 
ATOM     33  C42 UNL     1      75.612  68.949 107.911  0.00  0.00    +0.000 C 
ATOM     34  O8  UNL     1      74.617  69.417 107.002  0.00  0.00    +0.000 OA
ATOM     35  C43 UNL     1      75.897  67.510 107.498  0.00  0.00    +0.000 C 
ATOM     36  O9  UNL     1      75.282  66.562 108.060  0.00  0.00    +0.000 OA
ATOM     37  C44 UNL     1      76.823  67.191 106.391  0.00  0.00    +0.000 C 
ATOM     38  O10 UNL     1      77.063  68.040 105.493  0.00  0.00    +0.000 OA
ATOM     39  N1  UNL     1      77.434  65.900 106.325  0.00  0.00    +0.000 N 
ATOM     40  C45 UNL     1      78.594  65.622 107.176  0.00  0.00    +0.000 C 
ATOM     41  C46 UNL     1      78.224  64.613 108.279  0.00  0.00    +0.000 C 
ATOM     42  C47 UNL     1      77.154  63.588 107.838  0.00  0.00    +0.000 C 
ATOM     43  C48 UNL     1      77.083  63.440 106.313  0.00  0.00    +0.000 C 
ATOM     44  C49 UNL     1      76.734  64.792 105.654  0.00  0.00    +0.000 C 
ATOM     45  C50 UNL     1      77.090  64.754 104.194  0.00  0.00    +0.000 C 
ATOM     46  O11 UNL     1      76.189  64.550 103.335  0.00  0.00    +0.000 OA
ATOM     47  O12 UNL     1      78.434  64.830 103.814  0.00  0.00    +0.000 OA
ENDROOT
BRANCH   1  48
ATOM     48  C9  UNL     1      80.380  64.011 102.591  0.00  0.00    +0.000 C 
ATOM     49  C10 UNL     1      81.217  64.914 103.524  0.00  0.00    +0.000 C 
BRANCH  48  50
ATOM     50  C8  UNL     1      80.483  62.543 103.116  0.00  0.00    +0.000 C 
BRANCH  50  53
ATOM     51  C2  UNL     1      82.562  60.552 105.879  0.00  0.00    +0.000 C 
ATOM     52  C3  UNL     1      82.064  60.951 104.459  0.00  0.00    +0.000 C 
ATOM     53  C4  UNL     1      81.210  62.245 104.457  0.00  0.00    +0.000 C 
ATOM     54  C5  UNL     1      80.336  62.312 105.719  0.00  0.00    +0.000 C 
ATOM     55  C6  UNL     1      81.215  62.437 106.982  0.00  0.00    +0.000 C 
ATOM     56  C7  UNL     1      82.607  61.764 106.834  0.00  0.00    +0.000 C 
BRANCH  51  58
ATOM     57  C1  UNL     1      81.341  58.609 105.455  0.00  0.00    +0.000 C 
ATOM     58  O1  UNL     1      81.687  59.573 106.425  0.00  0.00    +0.000 OA
ENDBRANCH  51  58
BRANCH  56  59
ATOM     59  O2  UNL     1      83.080  61.354 108.090  0.00  0.00    +0.000 OA
ATOM     60  H13 UNL     1      83.308  62.179 108.594  0.00  0.00    +0.000 HD
ENDBRANCH  56  59
ENDBRANCH  50  53
ENDBRANCH  48  50
ENDBRANCH   1  48
BRANCH  10  61
ATOM     61  O4  UNL     1      80.081  68.378  95.309  0.00  0.00    +0.000 OA
ATOM     62  H32 UNL     1      80.140  69.363  95.423  0.00  0.00    +0.000 HD
ENDBRANCH  10  61
BRANCH  11  63
ATOM     63  O5  UNL     1      77.511  68.600  94.362  0.00  0.00    +0.000 OA
ATOM     64  C21 UNL     1      77.257  68.154  93.045  0.00  0.00    +0.000 C 
ENDBRANCH  11  63
BRANCH  33  65
ATOM     65  O7  UNL     1      76.770  69.738 107.738  0.00  0.00    +0.000 OA
ATOM     66  H67 UNL     1      77.312  69.680 108.571  0.00  0.00    +0.000 HD
ENDBRANCH  33  65
BRANCH  26  67
ATOM     67  O13 UNL     1      74.562  73.363 105.912  0.00  0.00    +0.000 OA
ATOM     68  C51 UNL     1      75.905  73.766 106.092  0.00  0.00    +0.000 C 
ENDBRANCH  26  67
TORSDOF 9
ENDMDL
MODEL 3
REMARK VINA RESULT:      -8.2      3.668      7.876
REMARK  Name = ./S1039.pdb
REMARK  19 active torsions:
REMARK  status: ('A' for Active; 'I' for Inactive)
REMARK    1  A    between atoms: C1_1  and  O1_2
REMARK    2  A    between atoms: O1_2  and  C2_3
REMARK    3  A    between atoms: C4_5  and  C8_10
REMARK    4  A    between atoms: C7_8  and  O2_9
REMARK    5  A    between atoms: C8_10  and  C9_11
REMARK    6  A    between atoms: C9_11  and  C10_12
REMARK    7  A    between atoms: C9_11  and  C11_13
REMARK    8  A    between atoms: C14_17  and  C15_18
REMARK    9  A    between atoms: C17_20  and  C18_21
REMARK   10  A    between atoms: C19_22  and  O4_23
REMARK   11  A    between atoms: C20_24  and  O5_25
REMARK   12  A    between atoms: O5_25  and  C21_26
REMARK   13  A    between atoms: C23_29  and  C24_30
REMARK   14  A    between atoms: C26_32  and  C27_33
REMARK   15  A    between atoms: C33_39  and  C34_40
REMARK   16  A    between atoms: C35_41  and  O13_64
REMARK   17  A    between atoms: C40_46  and  C41_47
REMARK   18  A    between atoms: C42_48  and  O7_49
REMARK   19  A    between atoms: O13_64  and  C51_65
REMARK                            x       y       z     vdW  Elec       q    Type
REMARK                         _______ _______ _______ _____ _____    ______ ____
ROOT
ATOM      1  C11 UNL     1      75.625  64.593 107.222  0.00  0.00    +0.000 C 
ATOM      2  C12 UNL     1      76.741  65.163 106.312  0.00  0.00    +0.000 C 
ATOM      3  C13 UNL     1      77.966  64.274 106.254  0.00  0.00    +0.000 C 
ATOM      4  O3  UNL     1      77.844  63.123 105.853  0.00  0.00    +0.000 OA
ATOM      5  C14 UNL     1      79.326  64.783 106.682  0.00  0.00    +0.000 C 
ATOM      6  C15 UNL     1      79.875  64.017 107.898  0.00  0.00    +0.000 C 
ATOM      7  C16 UNL     1      80.283  64.911 105.503  0.00  0.00    +0.000 C 
ATOM      8  C17 UNL     1      81.064  63.952 104.931  0.00  0.00    +0.000 C 
ATOM      9  C18 UNL     1      81.149  62.545 105.482  0.00  0.00    +0.000 C 
ATOM     10  C19 UNL     1      82.000  64.367 103.784  0.00  0.00    +0.000 C 
ATOM     11  C20 UNL     1      81.934  63.475 102.515  0.00  0.00    +0.000 C 
ATOM     12  C22 UNL     1      80.537  63.496 101.918  0.00  0.00    +0.000 C 
ATOM     13  O6  UNL     1      79.628  62.970 102.544  0.00  0.00    +0.000 OA
ATOM     14  C23 UNL     1      80.221  64.140 100.574  0.00  0.00    +0.000 C 
ATOM     15  C24 UNL     1      79.465  63.137  99.685  0.00  0.00    +0.000 C 
ATOM     16  C25 UNL     1      79.425  65.439 100.818  0.00  0.00    +0.000 C 
ATOM     17  C26 UNL     1      79.034  66.226  99.541  0.00  0.00    +0.000 C 
ATOM     18  C27 UNL     1      80.247  66.723  98.736  0.00  0.00    +0.000 C 
ATOM     19  C28 UNL     1      78.123  67.369  99.917  0.00  0.00    +0.000 C 
ATOM     20  C29 UNL     1      78.526  68.395 100.679  0.00  0.00    +0.000 C 
ATOM     21  C30 UNL     1      77.604  69.424 101.190  0.00  0.00    +0.000 C 
ATOM     22  C31 UNL     1      76.327  69.155 101.496  0.00  0.00    +0.000 C 
ATOM     23  C32 UNL     1      75.447  70.154 102.126  0.00  0.00    +0.000 C 
ATOM     24  C33 UNL     1      75.142  71.353 101.589  0.00  0.00    +0.000 C 
ATOM     25  C34 UNL     1      75.624  71.748 100.216  0.00  0.00    +0.000 C 
ATOM     26  C35 UNL     1      74.128  72.226 102.311  0.00  0.00    +0.000 C 
ATOM     27  C36 UNL     1      72.699  71.920 101.789  0.00  0.00    +0.000 C 
ATOM     28  C37 UNL     1      71.649  71.816 102.909  0.00  0.00    +0.000 C 
ATOM     29  C38 UNL     1      71.452  73.169 103.623  0.00  0.00    +0.000 C 
ATOM     30  C39 UNL     1      70.359  73.064 104.688  0.00  0.00    +0.000 C 
ATOM     31  C40 UNL     1      70.245  71.635 105.268  0.00  0.00    +0.000 C 
ATOM     32  C41 UNL     1      69.703  71.702 106.711  0.00  0.00    +0.000 C 
ATOM     33  C42 UNL     1      71.605  70.860 105.131  0.00  0.00    +0.000 C 
ATOM     34  O8  UNL     1      72.012  70.736 103.770  0.00  0.00    +0.000 OA
ATOM     35  C43 UNL     1      71.486  69.432 105.653  0.00  0.00    +0.000 C 
ATOM     36  O9  UNL     1      70.370  68.844 105.624  0.00  0.00    +0.000 OA
ATOM     37  C44 UNL     1      72.668  68.678 106.121  0.00  0.00    +0.000 C 
ATOM     38  O10 UNL     1      73.822  68.984 105.722  0.00  0.00    +0.000 OA
ATOM     39  N1  UNL     1      72.498  67.576 107.016  0.00  0.00    +0.000 N 
ATOM     40  C45 UNL     1      72.293  67.848 108.442  0.00  0.00    +0.000 C 
ATOM     41  C46 UNL     1      70.852  67.495 108.856  0.00  0.00    +0.000 C 
ATOM     42  C47 UNL     1      70.260  66.307 108.063  0.00  0.00    +0.000 C 
ATOM     43  C48 UNL     1      71.348  65.417 107.450  0.00  0.00    +0.000 C 
ATOM     44  C49 UNL     1      72.232  66.231 106.480  0.00  0.00    +0.000 C 
ATOM     45  C50 UNL     1      73.521  65.501 106.231  0.00  0.00    +0.000 C 
ATOM     46  O11 UNL     1      73.665  64.828 105.173  0.00  0.00    +0.000 OA
ATOM     47  O12 UNL     1      74.503  65.481 107.228  0.00  0.00    +0.000 OA
ENDROOT
BRANCH   1  48
ATOM     48  C9  UNL     1      76.071  64.315 108.689  0.00  0.00    +0.000 C 
ATOM     49  C10 UNL     1      76.424  65.631 109.417  0.00  0.00    +0.000 C 
BRANCH  48  50
ATOM     50  C8  UNL     1      74.974  63.577 109.522  0.00  0.00    +0.000 C 
BRANCH  50  53
ATOM     51  C2  UNL     1      73.802  64.308 113.266  0.00  0.00    +0.000 C 
ATOM     52  C3  UNL     1      74.687  63.745 112.116  0.00  0.00    +0.000 C 
ATOM     53  C4  UNL     1      74.294  64.296 110.721  0.00  0.00    +0.000 C 
ATOM     54  C5  UNL     1      72.769  64.462 110.622  0.00  0.00    +0.000 C 
ATOM     55  C6  UNL     1      72.276  65.539 111.611  0.00  0.00    +0.000 C 
ATOM     56  C7  UNL     1      73.156  65.656 112.886  0.00  0.00    +0.000 C 
BRANCH  51  58
ATOM     57  C1  UNL     1      73.020  62.718 114.785  0.00  0.00    +0.000 C 
ATOM     58  O1  UNL     1      72.770  63.375 113.562  0.00  0.00    +0.000 OA
ENDBRANCH  51  58
BRANCH  56  59
ATOM     59  O2  UNL     1      72.386  66.128 113.961  0.00  0.00    +0.000 OA
ATOM     60  H13 UNL     1      71.510  66.407 113.586  0.00  0.00    +0.000 HD
ENDBRANCH  56  59
ENDBRANCH  50  53
ENDBRANCH  48  50
ENDBRANCH   1  48
BRANCH  10  61
ATOM     61  O4  UNL     1      83.321  64.450 104.263  0.00  0.00    +0.000 OA
ATOM     62  H32 UNL     1      83.639  65.379 104.109  0.00  0.00    +0.000 HD
ENDBRANCH  10  61
BRANCH  11  63
ATOM     63  O5  UNL     1      82.890  63.974 101.590  0.00  0.00    +0.000 OA
ATOM     64  C21 UNL     1      83.736  62.937 101.133  0.00  0.00    +0.000 C 
ENDBRANCH  11  63
BRANCH  33  65
ATOM     65  O7  UNL     1      72.621  71.545 105.832  0.00  0.00    +0.000 OA
ATOM     66  H67 UNL     1      72.408  72.517 105.817  0.00  0.00    +0.000 HD
ENDBRANCH  33  65
BRANCH  26  67
ATOM     67  O13 UNL     1      74.415  73.602 102.104  0.00  0.00    +0.000 OA
ATOM     68  C51 UNL     1      75.101  74.141 103.216  0.00  0.00    +0.000 C 
ENDBRANCH  26  67
TORSDOF 9
ENDMDL
MODEL 4
REMARK VINA RESULT:      -8.1      2.833     10.173
REMARK  Name = ./S1039.pdb
REMARK  19 active torsions:
REMARK  status: ('A' for Active; 'I' for Inactive)
REMARK    1  A    between atoms: C1_1  and  O1_2
REMARK    2  A    between atoms: O1_2  and  C2_3
REMARK    3  A    between atoms: C4_5  and  C8_10
REMARK    4  A    between atoms: C7_8  and  O2_9
REMARK    5  A    between atoms: C8_10  and  C9_11
REMARK    6  A    between atoms: C9_11  and  C10_12
REMARK    7  A    between atoms: C9_11  and  C11_13
REMARK    8  A    between atoms: C14_17  and  C15_18
REMARK    9  A    between atoms: C17_20  and  C18_21
REMARK   10  A    between atoms: C19_22  and  O4_23
REMARK   11  A    between atoms: C20_24  and  O5_25
REMARK   12  A    between atoms: O5_25  and  C21_26
REMARK   13  A    between atoms: C23_29  and  C24_30
REMARK   14  A    between atoms: C26_32  and  C27_33
REMARK   15  A    between atoms: C33_39  and  C34_40
REMARK   16  A    between atoms: C35_41  and  O13_64
REMARK   17  A    between atoms: C40_46  and  C41_47
REMARK   18  A    between atoms: C42_48  and  O7_49
REMARK   19  A    between atoms: O13_64  and  C51_65
REMARK                            x       y       z     vdW  Elec       q    Type
REMARK                         _______ _______ _______ _____ _____    ______ ____
ROOT
ATOM      1  C11 UNL     1      75.367  65.227 106.562  0.00  0.00    +0.000 C 
ATOM      2  C12 UNL     1      74.442  66.267 105.885  0.00  0.00    +0.000 C 
ATOM      3  C13 UNL     1      73.338  66.758 106.799  0.00  0.00    +0.000 C 
ATOM      4  O3  UNL     1      73.640  67.303 107.853  0.00  0.00    +0.000 OA
ATOM      5  C14 UNL     1      71.879  66.584 106.430  0.00  0.00    +0.000 C 
ATOM      6  C15 UNL     1      71.135  65.675 107.423  0.00  0.00    +0.000 C 
ATOM      7  C16 UNL     1      71.205  67.918 106.132  0.00  0.00    +0.000 C 
ATOM      8  C17 UNL     1      70.653  68.809 107.004  0.00  0.00    +0.000 C 
ATOM      9  C18 UNL     1      70.562  68.533 108.489  0.00  0.00    +0.000 C 
ATOM     10  C19 UNL     1      69.969  70.059 106.429  0.00  0.00    +0.000 C 
ATOM     11  C20 UNL     1      70.391  71.405 107.075  0.00  0.00    +0.000 C 
ATOM     12  C22 UNL     1      71.880  71.645 106.890  0.00  0.00    +0.000 C 
ATOM     13  O6  UNL     1      72.665  70.917 107.483  0.00  0.00    +0.000 OA
ATOM     14  C23 UNL     1      72.436  72.752 106.004  0.00  0.00    +0.000 C 
ATOM     15  C24 UNL     1      73.452  73.590 106.799  0.00  0.00    +0.000 C 
ATOM     16  C25 UNL     1      73.049  72.116 104.738  0.00  0.00    +0.000 C 
ATOM     17  C26 UNL     1      73.651  73.117 103.719  0.00  0.00    +0.000 C 
ATOM     18  C27 UNL     1      72.614  74.092 103.136  0.00  0.00    +0.000 C 
ATOM     19  C28 UNL     1      74.358  72.354 102.627  0.00  0.00    +0.000 C 
ATOM     20  C29 UNL     1      73.711  71.550 101.771  0.00  0.00    +0.000 C 
ATOM     21  C30 UNL     1      74.408  70.673 100.813  0.00  0.00    +0.000 C 
ATOM     22  C31 UNL     1      75.601  70.124 101.080  0.00  0.00    +0.000 C 
ATOM     23  C32 UNL     1      76.232  69.149 100.176  0.00  0.00    +0.000 C 
ATOM     24  C33 UNL     1      76.553  69.393  98.888  0.00  0.00    +0.000 C 
ATOM     25  C34 UNL     1      76.361  70.757  98.273  0.00  0.00    +0.000 C 
ATOM     26  C35 UNL     1      77.303  68.319  98.118  0.00  0.00    +0.000 C 
ATOM     27  C36 UNL     1      78.832  68.532  98.267  0.00  0.00    +0.000 C 
ATOM     28  C37 UNL     1      79.609  67.230  98.527  0.00  0.00    +0.000 C 
ATOM     29  C38 UNL     1      79.529  66.276  97.316  0.00  0.00    +0.000 C 
ATOM     30  C39 UNL     1      80.360  65.016  97.565  0.00  0.00    +0.000 C 
ATOM     31  C40 UNL     1      80.457  64.669  99.069  0.00  0.00    +0.000 C 
ATOM     32  C41 UNL     1      80.653  63.148  99.241  0.00  0.00    +0.000 C 
ATOM     33  C42 UNL     1      79.230  65.249  99.863  0.00  0.00    +0.000 C 
ATOM     34  O8  UNL     1      79.151  66.669  99.757  0.00  0.00    +0.000 OA
ATOM     35  C43 UNL     1      79.345  64.956 101.355  0.00  0.00    +0.000 C 
ATOM     36  O9  UNL     1      80.483  64.817 101.882  0.00  0.00    +0.000 OA
ATOM     37  C44 UNL     1      78.154  64.911 102.228  0.00  0.00    +0.000 C 
ATOM     38  O10 UNL     1      77.097  65.514 101.903  0.00  0.00    +0.000 OA
ATOM     39  N1  UNL     1      78.207  64.195 103.465  0.00  0.00    +0.000 N 
ATOM     40  C45 UNL     1      78.063  62.736 103.445  0.00  0.00    +0.000 C 
ATOM     41  C46 UNL     1      79.397  62.059 103.807  0.00  0.00    +0.000 C 
ATOM     42  C47 UNL     1      80.247  62.874 104.808  0.00  0.00    +0.000 C 
ATOM     43  C48 UNL     1      79.402  63.865 105.618  0.00  0.00    +0.000 C 
ATOM     44  C49 UNL     1      78.696  64.868 104.680  0.00  0.00    +0.000 C 
ATOM     45  C50 UNL     1      77.559  65.530 105.406  0.00  0.00    +0.000 C 
ATOM     46  O11 UNL     1      77.712  66.688 105.884  0.00  0.00    +0.000 OA
ATOM     47  O12 UNL     1      76.383  64.810 105.644  0.00  0.00    +0.000 OA
ENDROOT
BRANCH   1  48
ATOM     48  C9  UNL     1      74.627  63.973 107.116  0.00  0.00    +0.000 C 
ATOM     49  C10 UNL     1      74.894  62.737 106.228  0.00  0.00    +0.000 C 
BRANCH  48  50
ATOM     50  C8  UNL     1      75.051  63.620 108.579  0.00  0.00    +0.000 C 
BRANCH  50  53
ATOM     51  C2  UNL     1      74.192  64.595 112.351  0.00  0.00    +0.000 C 
ATOM     52  C3  UNL     1      75.042  64.081 111.153  0.00  0.00    +0.000 C 
ATOM     53  C4  UNL     1      74.369  64.336 109.779  0.00  0.00    +0.000 C 
ATOM     54  C5  UNL     1      72.847  64.156 109.887  0.00  0.00    +0.000 C 
ATOM     55  C6  UNL     1      72.239  65.230 110.814  0.00  0.00    +0.000 C 
ATOM     56  C7  UNL     1      73.212  65.708 111.926  0.00  0.00    +0.000 C 
BRANCH  51  58
ATOM     57  C1  UNL     1      74.009  63.074 114.112  0.00  0.00    +0.000 C 
ATOM     58  O1  UNL     1      73.446  63.513 112.896  0.00  0.00    +0.000 OA
ENDBRANCH  51  58
BRANCH  56  59
ATOM     59  O2  UNL     1      72.487  66.148 113.045  0.00  0.00    +0.000 OA
ATOM     60  H13 UNL     1      71.962  65.371 113.370  0.00  0.00    +0.000 HD
ENDBRANCH  56  59
ENDBRANCH  50  53
ENDBRANCH  48  50
ENDBRANCH   1  48
BRANCH  10  61
ATOM     61  O4  UNL     1      68.571  69.898 106.487  0.00  0.00    +0.000 OA
ATOM     62  H32 UNL     1      68.234  70.459 107.234  0.00  0.00    +0.000 HD
ENDBRANCH  10  61
BRANCH  11  63
ATOM     63  O5  UNL     1      69.630  72.434 106.458  0.00  0.00    +0.000 OA
ATOM     64  C21 UNL     1      69.020  73.260 107.431  0.00  0.00    +0.000 C 
ENDBRANCH  11  63
BRANCH  33  65
ATOM     65  O7  UNL     1      78.030  64.703  99.357  0.00  0.00    +0.000 OA
ATOM     66  H67 UNL     1      78.040  63.722  99.524  0.00  0.00    +0.000 HD
ENDBRANCH  33  65
BRANCH  26  67
ATOM     67  O13 UNL     1      76.959  68.358  96.740  0.00  0.00    +0.000 OA
ATOM     68  C51 UNL     1      76.025  67.343  96.431  0.00  0.00    +0.000 C 
ENDBRANCH  26  67
TORSDOF 9
ENDMDL
MODEL 5
REMARK VINA RESULT:      -8.1      2.531      3.494
REMARK  Name = ./S1039.pdb
REMARK  19 active torsions:
REMARK  status: ('A' for Active; 'I' for Inactive)
REMARK    1  A    between atoms: C1_1  and  O1_2
REMARK    2  A    between atoms: O1_2  and  C2_3
REMARK    3  A    between atoms: C4_5  and  C8_10
REMARK    4  A    between atoms: C7_8  and  O2_9
REMARK    5  A    between atoms: C8_10  and  C9_11
REMARK    6  A    between atoms: C9_11  and  C10_12
REMARK    7  A    between atoms: C9_11  and  C11_13
REMARK    8  A    between atoms: C14_17  and  C15_18
REMARK    9  A    between atoms: C17_20  and  C18_21
REMARK   10  A    between atoms: C19_22  and  O4_23
REMARK   11  A    between atoms: C20_24  and  O5_25
REMARK   12  A    between atoms: O5_25  and  C21_26
REMARK   13  A    between atoms: C23_29  and  C24_30
REMARK   14  A    between atoms: C26_32  and  C27_33
REMARK   15  A    between atoms: C33_39  and  C34_40
REMARK   16  A    between atoms: C35_41  and  O13_64
REMARK   17  A    between atoms: C40_46  and  C41_47
REMARK   18  A    between atoms: C42_48  and  O7_49
REMARK   19  A    between atoms: O13_64  and  C51_65
REMARK                            x       y       z     vdW  Elec       q    Type
REMARK                         _______ _______ _______ _____ _____    ______ ____
ROOT
ATOM      1  C11 UNL     1      78.365  64.839 102.748  0.00  0.00    +0.000 C 
ATOM      2  C12 UNL     1      78.232  66.321 102.322  0.00  0.00    +0.000 C 
ATOM      3  C13 UNL     1      79.213  66.714 101.237  0.00  0.00    +0.000 C 
ATOM      4  O3  UNL     1      79.185  66.116 100.169  0.00  0.00    +0.000 OA
ATOM      5  C14 UNL     1      80.220  67.824 101.455  0.00  0.00    +0.000 C 
ATOM      6  C15 UNL     1      81.669  67.311 101.397  0.00  0.00    +0.000 C 
ATOM      7  C16 UNL     1      79.922  69.041 100.586  0.00  0.00    +0.000 C 
ATOM      8  C17 UNL     1      80.275  69.271  99.290  0.00  0.00    +0.000 C 
ATOM      9  C18 UNL     1      81.141  68.309  98.507  0.00  0.00    +0.000 C 
ATOM     10  C19 UNL     1      79.903  70.625  98.666  0.00  0.00    +0.000 C 
ATOM     11  C20 UNL     1      79.203  70.551  97.283  0.00  0.00    +0.000 C 
ATOM     12  C22 UNL     1      77.894  69.786  97.385  0.00  0.00    +0.000 C 
ATOM     13  O6  UNL     1      77.938  68.586  97.619  0.00  0.00    +0.000 OA
ATOM     14  C23 UNL     1      76.534  70.446  97.205  0.00  0.00    +0.000 C 
ATOM     15  C24 UNL     1      75.713  69.664  96.165  0.00  0.00    +0.000 C 
ATOM     16  C25 UNL     1      75.833  70.527  98.578  0.00  0.00    +0.000 C 
ATOM     17  C26 UNL     1      74.432  71.190  98.568  0.00  0.00    +0.000 C 
ATOM     18  C27 UNL     1      74.456  72.661  98.117  0.00  0.00    +0.000 C 
ATOM     19  C28 UNL     1      73.802  71.048  99.932  0.00  0.00    +0.000 C 
ATOM     20  C29 UNL     1      74.305  71.638 101.027  0.00  0.00    +0.000 C 
ATOM     21  C30 UNL     1      73.799  71.370 102.384  0.00  0.00    +0.000 C 
ATOM     22  C31 UNL     1      73.306  70.177 102.744  0.00  0.00    +0.000 C 
ATOM     23  C32 UNL     1      72.922  69.876 104.133  0.00  0.00    +0.000 C 
ATOM     24  C33 UNL     1      71.990  70.554 104.834  0.00  0.00    +0.000 C 
ATOM     25  C34 UNL     1      71.177  71.657 104.205  0.00  0.00    +0.000 C 
ATOM     26  C35 UNL     1      71.627  70.049 106.222  0.00  0.00    +0.000 C 
ATOM     27  C36 UNL     1      70.450  69.043 106.127  0.00  0.00    +0.000 C 
ATOM     28  C37 UNL     1      70.639  67.796 107.007  0.00  0.00    +0.000 C 
ATOM     29  C38 UNL     1      70.637  68.160 108.507  0.00  0.00    +0.000 C 
ATOM     30  C39 UNL     1      70.761  66.902 109.369  0.00  0.00    +0.000 C 
ATOM     31  C40 UNL     1      71.531  65.773 108.645  0.00  0.00    +0.000 C 
ATOM     32  C41 UNL     1      72.221  64.865 109.685  0.00  0.00    +0.000 C 
ATOM     33  C42 UNL     1      72.505  66.358 107.560  0.00  0.00    +0.000 C 
ATOM     34  O8  UNL     1      71.807  67.104 106.564  0.00  0.00    +0.000 OA
ATOM     35  C43 UNL     1      73.229  65.249 106.806  0.00  0.00    +0.000 C 
ATOM     36  O9  UNL     1      72.687  64.116 106.683  0.00  0.00    +0.000 OA
ATOM     37  C44 UNL     1      74.526  65.486 106.137  0.00  0.00    +0.000 C 
ATOM     38  O10 UNL     1      74.865  66.648 105.791  0.00  0.00    +0.000 OA
ATOM     39  N1  UNL     1      75.394  64.384 105.860  0.00  0.00    +0.000 N 
ATOM     40  C45 UNL     1      76.221  63.845 106.943  0.00  0.00    +0.000 C 
ATOM     41  C46 UNL     1      75.729  62.444 107.351  0.00  0.00    +0.000 C 
ATOM     42  C47 UNL     1      75.134  61.637 106.174  0.00  0.00    +0.000 C 
ATOM     43  C48 UNL     1      75.628  62.143 104.813  0.00  0.00    +0.000 C 
ATOM     44  C49 UNL     1      75.234  63.623 104.610  0.00  0.00    +0.000 C 
ATOM     45  C50 UNL     1      76.071  64.226 103.517  0.00  0.00    +0.000 C 
ATOM     46  O11 UNL     1      75.590  64.348 102.357  0.00  0.00    +0.000 OA
ATOM     47  O12 UNL     1      77.410  64.539 103.771  0.00  0.00    +0.000 OA
ENDROOT
BRANCH   1  48
ATOM     48  C9  UNL     1      79.788  64.436 103.237  0.00  0.00    +0.000 C 
ATOM     49  C10 UNL     1      80.231  65.312 104.431  0.00  0.00    +0.000 C 
BRANCH  48  50
ATOM     50  C8  UNL     1      79.874  62.939 103.676  0.00  0.00    +0.000 C 
BRANCH  50  53
ATOM     51  C2  UNL     1      82.373  60.745 105.881  0.00  0.00    +0.000 C 
ATOM     52  C3  UNL     1      81.669  61.275 104.598  0.00  0.00    +0.000 C 
ATOM     53  C4  UNL     1      80.791  62.526 104.861  0.00  0.00    +0.000 C 
ATOM     54  C5  UNL     1      80.104  62.419 106.231  0.00  0.00    +0.000 C 
ATOM     55  C6  UNL     1      81.150  62.441 107.366  0.00  0.00    +0.000 C 
ATOM     56  C7  UNL     1      82.523  61.846 106.952  0.00  0.00    +0.000 C 
BRANCH  51  58
ATOM     57  C1  UNL     1      81.244  58.754 105.426  0.00  0.00    +0.000 C 
ATOM     58  O1  UNL     1      81.609  59.677 106.427  0.00  0.00    +0.000 OA
ENDBRANCH  51  58
BRANCH  56  59
ATOM     59  O2  UNL     1      83.179  61.321 108.076  0.00  0.00    +0.000 OA
ATOM     60  H13 UNL     1      84.103  61.683 108.064  0.00  0.00    +0.000 HD
ENDBRANCH  56  59
ENDBRANCH  50  53
ENDBRANCH  48  50
ENDBRANCH   1  48
BRANCH  10  61
ATOM     61  O4  UNL     1      81.048  71.442  98.599  0.00  0.00    +0.000 OA
ATOM     62  H32 UNL     1      80.853  72.275  99.104  0.00  0.00    +0.000 HD
ENDBRANCH  10  61
BRANCH  11  63
ATOM     63  O5  UNL     1      78.980  71.884  96.843  0.00  0.00    +0.000 OA
ATOM     64  C21 UNL     1      79.457  72.064  95.525  0.00  0.00    +0.000 C 
ENDBRANCH  11  63
BRANCH  33  65
ATOM     65  O7  UNL     1      73.445  67.217 108.172  0.00  0.00    +0.000 OA
ATOM     66  H67 UNL     1      72.949  67.858 108.749  0.00  0.00    +0.000 HD
ENDBRANCH  33  65
BRANCH  26  67
ATOM     67  O13 UNL     1      71.251  71.130 107.064  0.00  0.00    +0.000 OA
ATOM     68  C51 UNL     1      72.316  71.487 107.921  0.00  0.00    +0.000 C 
ENDBRANCH  26  67
TORSDOF 9
ENDMDL
MODEL 6
REMARK VINA RESULT:      -8.1      2.647      6.503
REMARK  Name = ./S1039.pdb
REMARK  19 active torsions:
REMARK  status: ('A' for Active; 'I' for Inactive)
REMARK    1  A    between atoms: C1_1  and  O1_2
REMARK    2  A    between atoms: O1_2  and  C2_3
REMARK    3  A    between atoms: C4_5  and  C8_10
REMARK    4  A    between atoms: C7_8  and  O2_9
REMARK    5  A    between atoms: C8_10  and  C9_11
REMARK    6  A    between atoms: C9_11  and  C10_12
REMARK    7  A    between atoms: C9_11  and  C11_13
REMARK    8  A    between atoms: C14_17  and  C15_18
REMARK    9  A    between atoms: C17_20  and  C18_21
REMARK   10  A    between atoms: C19_22  and  O4_23
REMARK   11  A    between atoms: C20_24  and  O5_25
REMARK   12  A    between atoms: O5_25  and  C21_26
REMARK   13  A    between atoms: C23_29  and  C24_30
REMARK   14  A    between atoms: C26_32  and  C27_33
REMARK   15  A    between atoms: C33_39  and  C34_40
REMARK   16  A    between atoms: C35_41  and  O13_64
REMARK   17  A    between atoms: C40_46  and  C41_47
REMARK   18  A    between atoms: C42_48  and  O7_49
REMARK   19  A    between atoms: O13_64  and  C51_65
REMARK                            x       y       z     vdW  Elec       q    Type
REMARK                         _______ _______ _______ _____ _____    ______ ____
ROOT
ATOM      1  C11 UNL     1      78.104  64.351 100.132  0.00  0.00    +0.000 C 
ATOM      2  C12 UNL     1      77.773  65.554 101.049  0.00  0.00    +0.000 C 
ATOM      3  C13 UNL     1      78.392  66.850 100.568  0.00  0.00    +0.000 C 
ATOM      4  O3  UNL     1      78.103  67.266  99.453  0.00  0.00    +0.000 OA
ATOM      5  C14 UNL     1      79.354  67.631 101.438  0.00  0.00    +0.000 C 
ATOM      6  C15 UNL     1      80.758  67.719 100.814  0.00  0.00    +0.000 C 
ATOM      7  C16 UNL     1      78.758  68.956 101.899  0.00  0.00    +0.000 C 
ATOM      8  C17 UNL     1      78.724  70.150 101.244  0.00  0.00    +0.000 C 
ATOM      9  C18 UNL     1      79.393  70.353  99.902  0.00  0.00    +0.000 C 
ATOM     10  C19 UNL     1      78.117  71.360 101.970  0.00  0.00    +0.000 C 
ATOM     11  C20 UNL     1      77.067  72.165 101.159  0.00  0.00    +0.000 C 
ATOM     12  C22 UNL     1      75.884  71.286 100.792  0.00  0.00    +0.000 C 
ATOM     13  O6  UNL     1      76.059  70.379  99.991  0.00  0.00    +0.000 OA
ATOM     14  C23 UNL     1      74.491  71.487 101.374  0.00  0.00    +0.000 C 
ATOM     15  C24 UNL     1      73.461  71.568 100.235  0.00  0.00    +0.000 C 
ATOM     16  C25 UNL     1      74.194  70.342 102.366  0.00  0.00    +0.000 C 
ATOM     17  C26 UNL     1      72.810  70.407 103.059  0.00  0.00    +0.000 C 
ATOM     18  C27 UNL     1      72.624  71.661 103.931  0.00  0.00    +0.000 C 
ATOM     19  C28 UNL     1      72.592  69.148 103.861  0.00  0.00    +0.000 C 
ATOM     20  C29 UNL     1      73.343  68.827 104.924  0.00  0.00    +0.000 C 
ATOM     21  C30 UNL     1      73.249  67.526 105.608  0.00  0.00    +0.000 C 
ATOM     22  C31 UNL     1      72.944  66.394 104.957  0.00  0.00    +0.000 C 
ATOM     23  C32 UNL     1      72.978  65.079 105.619  0.00  0.00    +0.000 C 
ATOM     24  C33 UNL     1      72.239  64.744 106.697  0.00  0.00    +0.000 C 
ATOM     25  C34 UNL     1      71.221  65.692 107.281  0.00  0.00    +0.000 C 
ATOM     26  C35 UNL     1      72.303  63.309 107.195  0.00  0.00    +0.000 C 
ATOM     27  C36 UNL     1      71.206  62.459 106.502  0.00  0.00    +0.000 C 
ATOM     28  C37 UNL     1      71.703  61.079 106.039  0.00  0.00    +0.000 C 
ATOM     29  C38 UNL     1      72.095  60.191 107.238  0.00  0.00    +0.000 C 
ATOM     30  C39 UNL     1      72.524  58.801 106.763  0.00  0.00    +0.000 C 
ATOM     31  C40 UNL     1      73.127  58.831 105.340  0.00  0.00    +0.000 C 
ATOM     32  C41 UNL     1      74.129  57.670 105.175  0.00  0.00    +0.000 C 
ATOM     33  C42 UNL     1      73.728  60.246 105.011  0.00  0.00    +0.000 C 
ATOM     34  O8  UNL     1      72.740  61.272 105.077  0.00  0.00    +0.000 OA
ATOM     35  C43 UNL     1      74.278  60.300 103.589  0.00  0.00    +0.000 C 
ATOM     36  O9  UNL     1      73.788  59.552 102.698  0.00  0.00    +0.000 OA
ATOM     37  C44 UNL     1      75.322  61.269 103.200  0.00  0.00    +0.000 C 
ATOM     38  O10 UNL     1      75.485  62.333 103.854  0.00  0.00    +0.000 OA
ATOM     39  N1  UNL     1      76.142  61.010 102.057  0.00  0.00    +0.000 N 
ATOM     40  C45 UNL     1      77.266  60.079 102.189  0.00  0.00    +0.000 C 
ATOM     41  C46 UNL     1      76.987  58.783 101.405  0.00  0.00    +0.000 C 
ATOM     42  C47 UNL     1      76.137  59.007 100.133  0.00  0.00    +0.000 C 
ATOM     43  C48 UNL     1      76.205  60.456  99.636  0.00  0.00    +0.000 C 
ATOM     44  C49 UNL     1      75.686  61.425 100.720  0.00  0.00    +0.000 C 
ATOM     45  C50 UNL     1      76.151  62.823 100.418  0.00  0.00    +0.000 C 
ATOM     46  O11 UNL     1      75.362  63.639  99.868  0.00  0.00    +0.000 OA
ATOM     47  O12 UNL     1      77.488  63.165 100.645  0.00  0.00    +0.000 OA
ENDROOT
BRANCH   1  48
ATOM     48  C9  UNL     1      79.628  64.095  99.931  0.00  0.00    +0.000 C 
ATOM     49  C10 UNL     1      80.060  62.774 100.605  0.00  0.00    +0.000 C 
BRANCH  48  50
ATOM     50  C8  UNL     1      80.034  64.028  98.424  0.00  0.00    +0.000 C 
BRANCH  50  53
ATOM     51  C2  UNL     1      79.936  66.414  95.228  0.00  0.00    +0.000 C 
ATOM     52  C3  UNL     1      79.622  65.170  96.108  0.00  0.00    +0.000 C 
ATOM     53  C4  UNL     1      80.095  65.329  97.575  0.00  0.00    +0.000 C 
ATOM     54  C5  UNL     1      81.424  66.099  97.629  0.00  0.00    +0.000 C 
ATOM     55  C6  UNL     1      81.231  67.547  97.130  0.00  0.00    +0.000 C 
ATOM     56  C7  UNL     1      80.100  67.692  96.076  0.00  0.00    +0.000 C 
BRANCH  51  58
ATOM     57  C1  UNL     1      80.905  65.398  93.363  0.00  0.00    +0.000 C 
ATOM     58  O1  UNL     1      81.142  66.187  94.508  0.00  0.00    +0.000 OA
ENDBRANCH  51  58
BRANCH  56  59
ATOM     59  O2  UNL     1      80.362  68.784  95.235  0.00  0.00    +0.000 OA
ATOM     60  H13 UNL     1      79.623  69.434  95.368  0.00  0.00    +0.000 HD
ENDBRANCH  56  59
ENDBRANCH  50  53
ENDBRANCH  48  50
ENDBRANCH   1  48
BRANCH  10  61
ATOM     61  O4  UNL     1      79.150  72.204 102.421  0.00  0.00    +0.000 OA
ATOM     62  H32 UNL     1      79.901  72.133 101.774  0.00  0.00    +0.000 HD
ENDBRANCH  10  61
BRANCH  11  63
ATOM     63  O5  UNL     1      76.655  73.263 101.963  0.00  0.00    +0.000 OA
ATOM     64  C21 UNL     1      76.679  74.466 101.220  0.00  0.00    +0.000 C 
ENDBRANCH  11  63
BRANCH  33  65
ATOM     65  O7  UNL     1      74.750  60.560 105.934  0.00  0.00    +0.000 OA
ATOM     66  H67 UNL     1      75.257  59.726 106.130  0.00  0.00    +0.000 HD
ENDBRANCH  33  65
BRANCH  26  67
ATOM     67  O13 UNL     1      72.114  63.259 108.602  0.00  0.00    +0.000 OA
ATOM     68  C51 UNL     1      73.327  63.523 109.277  0.00  0.00    +0.000 C 
ENDBRANCH  26  67
TORSDOF 9
ENDMDL
MODEL 7
REMARK VINA RESULT:      -8.0      3.347     10.301
REMARK  Name = ./S1039.pdb
REMARK  19 active torsions:
REMARK  status: ('A' for Active; 'I' for Inactive)
REMARK    1  A    between atoms: C1_1  and  O1_2
REMARK    2  A    between atoms: O1_2  and  C2_3
REMARK    3  A    between atoms: C4_5  and  C8_10
REMARK    4  A    between atoms: C7_8  and  O2_9
REMARK    5  A    between atoms: C8_10  and  C9_11
REMARK    6  A    between atoms: C9_11  and  C10_12
REMARK    7  A    between atoms: C9_11  and  C11_13
REMARK    8  A    between atoms: C14_17  and  C15_18
REMARK    9  A    between atoms: C17_20  and  C18_21
REMARK   10  A    between atoms: C19_22  and  O4_23
REMARK   11  A    between atoms: C20_24  and  O5_25
REMARK   12  A    between atoms: O5_25  and  C21_26
REMARK   13  A    between atoms: C23_29  and  C24_30
REMARK   14  A    between atoms: C26_32  and  C27_33
REMARK   15  A    between atoms: C33_39  and  C34_40
REMARK   16  A    between atoms: C35_41  and  O13_64
REMARK   17  A    between atoms: C40_46  and  C41_47
REMARK   18  A    between atoms: C42_48  and  O7_49
REMARK   19  A    between atoms: O13_64  and  C51_65
REMARK                            x       y       z     vdW  Elec       q    Type
REMARK                         _______ _______ _______ _____ _____    ______ ____
ROOT
ATOM      1  C11 UNL     1      75.226  67.560 105.931  0.00  0.00    +0.000 C 
ATOM      2  C12 UNL     1      74.174  68.294 105.065  0.00  0.00    +0.000 C 
ATOM      3  C13 UNL     1      73.099  68.971 105.891  0.00  0.00    +0.000 C 
ATOM      4  O3  UNL     1      73.428  69.822 106.708  0.00  0.00    +0.000 OA
ATOM      5  C14 UNL     1      71.637  68.610 105.724  0.00  0.00    +0.000 C 
ATOM      6  C15 UNL     1      71.042  67.998 107.003  0.00  0.00    +0.000 C 
ATOM      7  C16 UNL     1      70.836  69.753 105.111  0.00  0.00    +0.000 C 
ATOM      8  C17 UNL     1      70.275  70.829 105.729  0.00  0.00    +0.000 C 
ATOM      9  C18 UNL     1      70.310  71.005 107.232  0.00  0.00    +0.000 C 
ATOM     10  C19 UNL     1      69.452  71.808 104.878  0.00  0.00    +0.000 C 
ATOM     11  C20 UNL     1      69.805  73.308 105.060  0.00  0.00    +0.000 C 
ATOM     12  C22 UNL     1      71.252  73.568 104.678  0.00  0.00    +0.000 C 
ATOM     13  O6  UNL     1      72.134  73.098 105.384  0.00  0.00    +0.000 OA
ATOM     14  C23 UNL     1      71.652  74.390 103.460  0.00  0.00    +0.000 C 
ATOM     15  C24 UNL     1      72.648  75.485 103.879  0.00  0.00    +0.000 C 
ATOM     16  C25 UNL     1      72.226  73.442 102.386  0.00  0.00    +0.000 C 
ATOM     17  C26 UNL     1      72.672  74.126 101.068  0.00  0.00    +0.000 C 
ATOM     18  C27 UNL     1      71.520  74.820 100.322  0.00  0.00    +0.000 C 
ATOM     19  C28 UNL     1      73.362  73.113 100.188  0.00  0.00    +0.000 C 
ATOM     20  C29 UNL     1      72.726  72.054  99.667  0.00  0.00    +0.000 C 
ATOM     21  C30 UNL     1      73.424  70.973  98.950  0.00  0.00    +0.000 C 
ATOM     22  C31 UNL     1      74.674  70.599  99.257  0.00  0.00    +0.000 C 
ATOM     23  C32 UNL     1      75.320  69.437  98.624  0.00  0.00    +0.000 C 
ATOM     24  C33 UNL     1      75.528  69.303  97.298  0.00  0.00    +0.000 C 
ATOM     25  C34 UNL     1      75.183  70.407  96.330  0.00  0.00    +0.000 C 
ATOM     26  C35 UNL     1      76.310  68.093  96.812  0.00  0.00    +0.000 C 
ATOM     27  C36 UNL     1      77.823  68.430  96.752  0.00  0.00    +0.000 C 
ATOM     28  C37 UNL     1      78.721  67.313  97.311  0.00  0.00    +0.000 C 
ATOM     29  C38 UNL     1      78.636  66.038  96.446  0.00  0.00    +0.000 C 
ATOM     30  C39 UNL     1      79.583  64.960  96.977  0.00  0.00    +0.000 C 
ATOM     31  C40 UNL     1      79.813  65.085  98.502  0.00  0.00    +0.000 C 
ATOM     32  C41 UNL     1      80.146  63.699  99.092  0.00  0.00    +0.000 C 
ATOM     33  C42 UNL     1      78.601  65.803  99.198  0.00  0.00    +0.000 C 
ATOM     34  O8  UNL     1      78.397  67.120  98.688  0.00  0.00    +0.000 OA
ATOM     35  C43 UNL     1      78.842  65.978 100.693  0.00  0.00    +0.000 C 
ATOM     36  O9  UNL     1      80.021  66.069 101.132  0.00  0.00    +0.000 OA
ATOM     37  C44 UNL     1      77.722  66.126 101.646  0.00  0.00    +0.000 C 
ATOM     38  O10 UNL     1      76.599  66.542 101.256  0.00  0.00    +0.000 OA
ATOM     39  N1  UNL     1      77.920  65.817 103.028  0.00  0.00    +0.000 N 
ATOM     40  C45 UNL     1      77.896  64.413 103.450  0.00  0.00    +0.000 C 
ATOM     41  C46 UNL     1      79.304  63.954 103.872  0.00  0.00    +0.000 C 
ATOM     42  C47 UNL     1      80.151  65.079 104.508  0.00  0.00    +0.000 C 
ATOM     43  C48 UNL     1      79.284  66.215 105.066  0.00  0.00    +0.000 C 
ATOM     44  C49 UNL     1      78.435  66.849 103.943  0.00  0.00    +0.000 C 
ATOM     45  C50 UNL     1      77.300  67.631 104.543  0.00  0.00    +0.000 C 
ATOM     46  O11 UNL     1      77.390  68.886 104.644  0.00  0.00    +0.000 OA
ATOM     47  O12 UNL     1      76.208  66.948 105.087  0.00  0.00    +0.000 OA
ENDROOT
BRANCH   1  48
ATOM     48  C9  UNL     1      74.633  66.488 106.893  0.00  0.00    +0.000 C 
ATOM     49  C10 UNL     1      74.182  65.234 106.112  0.00  0.00    +0.000 C 
BRANCH  48  50
ATOM     50  C8  UNL     1      75.648  66.037 107.993  0.00  0.00    +0.000 C 
BRANCH  50  53
ATOM     51  C2  UNL     1      75.063  66.150 111.938  0.00  0.00    +0.000 C 
ATOM     52  C3  UNL     1      75.425  65.544 110.551  0.00  0.00    +0.000 C 
ATOM     53  C4  UNL     1      75.541  66.612 109.433  0.00  0.00    +0.000 C 
ATOM     54  C5  UNL     1      74.490  67.715 109.635  0.00  0.00    +0.000 C 
ATOM     55  C6  UNL     1      74.767  68.494 110.938  0.00  0.00    +0.000 C 
ATOM     56  C7  UNL     1      75.458  67.639 112.035  0.00  0.00    +0.000 C 
BRANCH  51  58
ATOM     57  C1  UNL     1      73.181  64.795 111.679  0.00  0.00    +0.000 C 
ATOM     58  O1  UNL     1      73.662  66.035 112.149  0.00  0.00    +0.000 OA
ENDBRANCH  51  58
BRANCH  56  59
ATOM     59  O2  UNL     1      75.129  68.130 113.308  0.00  0.00    +0.000 OA
ATOM     60  H13 UNL     1      75.197  69.120 113.260  0.00  0.00    +0.000 HD
ENDBRANCH  56  59
ENDBRANCH  50  53
ENDBRANCH  48  50
ENDBRANCH   1  48
BRANCH  10  61
ATOM     61  O4  UNL     1      68.079  71.591 105.107  0.00  0.00    +0.000 OA
ATOM     62  H32 UNL     1      67.724  72.385 105.588  0.00  0.00    +0.000 HD
ENDBRANCH  10  61
BRANCH  11  63
ATOM     63  O5  UNL     1      68.920  74.060 104.240  0.00  0.00    +0.000 OA
ATOM     64  C21 UNL     1      68.317  75.104 104.978  0.00  0.00    +0.000 C 
ENDBRANCH  11  63
BRANCH  33  65
ATOM     65  O7  UNL     1      77.417  65.063  98.985  0.00  0.00    +0.000 OA
ATOM     66  H67 UNL     1      77.111  65.228  98.052  0.00  0.00    +0.000 HD
ENDBRANCH  33  65
BRANCH  26  67
ATOM     67  O13 UNL     1      75.869  67.699  95.520  0.00  0.00    +0.000 OA
ATOM     68  C51 UNL     1      74.767  66.819  95.617  0.00  0.00    +0.000 C 
ENDBRANCH  26  67
TORSDOF 9
ENDMDL
MODEL 8
REMARK VINA RESULT:      -7.9      4.510     11.028
REMARK  Name = ./S1039.pdb
REMARK  19 active torsions:
REMARK  status: ('A' for Active; 'I' for Inactive)
REMARK    1  A    between atoms: C1_1  and  O1_2
REMARK    2  A    between atoms: O1_2  and  C2_3
REMARK    3  A    between atoms: C4_5  and  C8_10
REMARK    4  A    between atoms: C7_8  and  O2_9
REMARK    5  A    between atoms: C8_10  and  C9_11
REMARK    6  A    between atoms: C9_11  and  C10_12
REMARK    7  A    between atoms: C9_11  and  C11_13
REMARK    8  A    between atoms: C14_17  and  C15_18
REMARK    9  A    between atoms: C17_20  and  C18_21
REMARK   10  A    between atoms: C19_22  and  O4_23
REMARK   11  A    between atoms: C20_24  and  O5_25
REMARK   12  A    between atoms: O5_25  and  C21_26
REMARK   13  A    between atoms: C23_29  and  C24_30
REMARK   14  A    between atoms: C26_32  and  C27_33
REMARK   15  A    between atoms: C33_39  and  C34_40
REMARK   16  A    between atoms: C35_41  and  O13_64
REMARK   17  A    between atoms: C40_46  and  C41_47
REMARK   18  A    between atoms: C42_48  and  O7_49
REMARK   19  A    between atoms: O13_64  and  C51_65
REMARK                            x       y       z     vdW  Elec       q    Type
REMARK                         _______ _______ _______ _____ _____    ______ ____
ROOT
ATOM      1  C11 UNL     1      74.061  63.574 107.556  0.00  0.00    +0.000 C 
ATOM      2  C12 UNL     1      74.746  62.504 106.671  0.00  0.00    +0.000 C 
ATOM      3  C13 UNL     1      74.025  61.172 106.691  0.00  0.00    +0.000 C 
ATOM      4  O3  UNL     1      72.857  61.126 106.325  0.00  0.00    +0.000 OA
ATOM      5  C14 UNL     1      74.722  59.910 107.152  0.00  0.00    +0.000 C 
ATOM      6  C15 UNL     1      74.071  59.318 108.414  0.00  0.00    +0.000 C 
ATOM      7  C16 UNL     1      74.940  58.928 106.007  0.00  0.00    +0.000 C 
ATOM      8  C17 UNL     1      74.077  58.005 105.499  0.00  0.00    +0.000 C 
ATOM      9  C18 UNL     1      72.710  57.761 106.101  0.00  0.00    +0.000 C 
ATOM     10  C19 UNL     1      74.577  57.084 104.375  0.00  0.00    +0.000 C 
ATOM     11  C20 UNL     1      73.648  56.979 103.137  0.00  0.00    +0.000 C 
ATOM     12  C22 UNL     1      73.466  58.339 102.485  0.00  0.00    +0.000 C 
ATOM     13  O6  UNL     1      72.843  59.198 103.095  0.00  0.00    +0.000 OA
ATOM     14  C23 UNL     1      74.023  58.679 101.109  0.00  0.00    +0.000 C 
ATOM     15  C24 UNL     1      72.904  59.259 100.227  0.00  0.00    +0.000 C 
ATOM     16  C25 UNL     1      75.212  59.648 101.277  0.00  0.00    +0.000 C 
ATOM     17  C26 UNL     1      75.903  60.084  99.959  0.00  0.00    +0.000 C 
ATOM     18  C27 UNL     1      76.532  58.913  99.185  0.00  0.00    +0.000 C 
ATOM     19  C28 UNL     1      76.926  61.151 100.260  0.00  0.00    +0.000 C 
ATOM     20  C29 UNL     1      78.019  60.919 101.001  0.00  0.00    +0.000 C 
ATOM     21  C30 UNL     1      78.932  61.988 101.440  0.00  0.00    +0.000 C 
ATOM     22  C31 UNL     1      78.505  63.231 101.706  0.00  0.00    +0.000 C 
ATOM     23  C32 UNL     1      79.397  64.260 102.267  0.00  0.00    +0.000 C 
ATOM     24  C33 UNL     1      80.529  64.697 101.677  0.00  0.00    +0.000 C 
ATOM     25  C34 UNL     1      80.944  64.212 100.311  0.00  0.00    +0.000 C 
ATOM     26  C35 UNL     1      81.282  65.845 102.329  0.00  0.00    +0.000 C 
ATOM     27  C36 UNL     1      80.774  67.198 101.764  0.00  0.00    +0.000 C 
ATOM     28  C37 UNL     1      80.565  68.273 102.845  0.00  0.00    +0.000 C 
ATOM     29  C38 UNL     1      81.901  68.675 103.504  0.00  0.00    +0.000 C 
ATOM     30  C39 UNL     1      81.684  69.789 104.529  0.00  0.00    +0.000 C 
ATOM     31  C40 UNL     1      80.270  69.740 105.154  0.00  0.00    +0.000 C 
ATOM     32  C41 UNL     1      80.307  70.348 106.572  0.00  0.00    +0.000 C 
ATOM     33  C42 UNL     1      79.677  68.286 105.096  0.00  0.00    +0.000 C 
ATOM     34  O8  UNL     1      79.568  67.809 103.757  0.00  0.00    +0.000 OA
ATOM     35  C43 UNL     1      78.262  68.240 105.662  0.00  0.00    +0.000 C 
ATOM     36  O9  UNL     1      77.532  69.267 105.611  0.00  0.00    +0.000 OA
ATOM     37  C44 UNL     1      77.686  66.991 106.201  0.00  0.00    +0.000 C 
ATOM     38  O10 UNL     1      78.130  65.870 105.837  0.00  0.00    +0.000 OA
ATOM     39  N1  UNL     1      76.597  67.053 107.127  0.00  0.00    +0.000 N 
ATOM     40  C45 UNL     1      76.881  67.351 108.534  0.00  0.00    +0.000 C 
ATOM     41  C46 UNL     1      76.354  68.750 108.904  0.00  0.00    +0.000 C 
ATOM     42  C47 UNL     1      75.076  69.148 108.130  0.00  0.00    +0.000 C 
ATOM     43  C48 UNL     1      74.319  67.928 107.591  0.00  0.00    +0.000 C 
ATOM     44  C49 UNL     1      75.214  67.118 106.628  0.00  0.00    +0.000 C 
ATOM     45  C50 UNL     1      74.653  65.734 106.454  0.00  0.00    +0.000 C 
ATOM     46  O11 UNL     1      73.974  65.459 105.427  0.00  0.00    +0.000 OA
ATOM     47  O12 UNL     1      74.792  64.802 107.488  0.00  0.00    +0.000 OA
ENDROOT
BRANCH   1  48
ATOM     48  C9  UNL     1      73.888  63.159 109.047  0.00  0.00    +0.000 C 
ATOM     49  C10 UNL     1      75.259  63.009 109.742  0.00  0.00    +0.000 C 
BRANCH  48  50
ATOM     50  C8  UNL     1      73.039  64.186 109.864  0.00  0.00    +0.000 C 
BRANCH  50  53
ATOM     51  C2  UNL     1      74.452  65.909 113.174  0.00  0.00    +0.000 C 
ATOM     52  C3  UNL     1      73.983  64.760 112.234  0.00  0.00    +0.000 C 
ATOM     53  C4  UNL     1      73.746  65.228 110.776  0.00  0.00    +0.000 C 
ATOM     54  C5  UNL     1      73.147  66.644 110.758  0.00  0.00    +0.000 C 
ATOM     55  C6  UNL     1      74.156  67.665 111.328  0.00  0.00    +0.000 C 
ATOM     56  C7  UNL     1      75.114  67.060 112.389  0.00  0.00    +0.000 C 
BRANCH  51  58
ATOM     57  C1  UNL     1      73.422  66.130 115.257  0.00  0.00    +0.000 C 
ATOM     58  O1  UNL     1      73.330  66.424 113.880  0.00  0.00    +0.000 OA
ENDBRANCH  51  58
BRANCH  56  59
ATOM     59  O2  UNL     1      75.535  68.057 113.283  0.00  0.00    +0.000 OA
ATOM     60  H13 UNL     1      75.151  68.914 112.959  0.00  0.00    +0.000 HD
ENDBRANCH  56  59
ENDBRANCH  50  53
ENDBRANCH  48  50
ENDBRANCH   1  48
BRANCH  10  61
ATOM     61  O4  UNL     1      74.848  55.806 104.901  0.00  0.00    +0.000 OA
ATOM     62  H32 UNL     1      75.651  55.453 104.434  0.00  0.00    +0.000 HD
ENDBRANCH  10  61
BRANCH  11  63
ATOM     63  O5  UNL     1      74.241  56.057 102.232  0.00  0.00    +0.000 OA
ATOM     64  C21 UNL     1      73.297  55.095 101.803  0.00  0.00    +0.000 C 
ENDBRANCH  11  63
BRANCH  33  65
ATOM     65  O7  UNL     1      80.511  67.399 105.812  0.00  0.00    +0.000 OA
ATOM     66  H67 UNL     1      81.218  67.934 106.265  0.00  0.00    +0.000 HD
ENDBRANCH  33  65
BRANCH  26  67
ATOM     67  O13 UNL     1      82.676  65.732 102.085  0.00  0.00    +0.000 OA
ATOM     68  C51 UNL     1      83.337  65.192 103.212  0.00  0.00    +0.000 C 
ENDBRANCH  26  67
TORSDOF 9
ENDMDL
MODEL 9
REMARK VINA RESULT:      -7.9      3.470      9.587
REMARK  Name = ./S1039.pdb
REMARK  19 active torsions:
REMARK  status: ('A' for Active; 'I' for Inactive)
REMARK    1  A    between atoms: C1_1  and  O1_2
REMARK    2  A    between atoms: O1_2  and  C2_3
REMARK    3  A    between atoms: C4_5  and  C8_10
REMARK    4  A    between atoms: C7_8  and  O2_9
REMARK    5  A    between atoms: C8_10  and  C9_11
REMARK    6  A    between atoms: C9_11  and  C10_12
REMARK    7  A    between atoms: C9_11  and  C11_13
REMARK    8  A    between atoms: C14_17  and  C15_18
REMARK    9  A    between atoms: C17_20  and  C18_21
REMARK   10  A    between atoms: C19_22  and  O4_23
REMARK   11  A    between atoms: C20_24  and  O5_25
REMARK   12  A    between atoms: O5_25  and  C21_26
REMARK   13  A    between atoms: C23_29  and  C24_30
REMARK   14  A    between atoms: C26_32  and  C27_33
REMARK   15  A    between atoms: C33_39  and  C34_40
REMARK   16  A    between atoms: C35_41  and  O13_64
REMARK   17  A    between atoms: C40_46  and  C41_47
REMARK   18  A    between atoms: C42_48  and  O7_49
REMARK   19  A    between atoms: O13_64  and  C51_65
REMARK                            x       y       z     vdW  Elec       q    Type
REMARK                         _______ _______ _______ _____ _____    ______ ____
ROOT
ATOM      1  C11 UNL     1      78.913  64.917 103.168  0.00  0.00    +0.000 C 
ATOM      2  C12 UNL     1      77.709  65.476 103.966  0.00  0.00    +0.000 C 
ATOM      3  C13 UNL     1      77.710  65.041 105.416  0.00  0.00    +0.000 C 
ATOM      4  O3  UNL     1      78.668  65.333 106.122  0.00  0.00    +0.000 OA
ATOM      5  C14 UNL     1      76.554  64.256 106.001  0.00  0.00    +0.000 C 
ATOM      6  C15 UNL     1      76.982  62.853 106.464  0.00  0.00    +0.000 C 
ATOM      7  C16 UNL     1      75.771  65.072 107.023  0.00  0.00    +0.000 C 
ATOM      8  C17 UNL     1      76.032  65.256 108.348  0.00  0.00    +0.000 C 
ATOM      9  C18 UNL     1      77.177  64.558 109.049  0.00  0.00    +0.000 C 
ATOM     10  C19 UNL     1      75.034  66.079 109.176  0.00  0.00    +0.000 C 
ATOM     11  C20 UNL     1      75.658  67.197 110.053  0.00  0.00    +0.000 C 
ATOM     12  C22 UNL     1      76.389  68.210 109.188  0.00  0.00    +0.000 C 
ATOM     13  O6  UNL     1      77.407  67.856 108.611  0.00  0.00    +0.000 OA
ATOM     14  C23 UNL     1      75.910  69.646 109.012  0.00  0.00    +0.000 C 
ATOM     15  C24 UNL     1      77.065  70.616 109.314  0.00  0.00    +0.000 C 
ATOM     16  C25 UNL     1      75.349  69.813 107.584  0.00  0.00    +0.000 C 
ATOM     17  C26 UNL     1      74.806  71.225 107.246  0.00  0.00    +0.000 C 
ATOM     18  C27 UNL     1      73.616  71.646 108.125  0.00  0.00    +0.000 C 
ATOM     19  C28 UNL     1      74.452  71.287 105.781  0.00  0.00    +0.000 C 
ATOM     20  C29 UNL     1      73.469  70.551 105.242  0.00  0.00    +0.000 C 
ATOM     21  C30 UNL     1      73.227  70.478 103.790  0.00  0.00    +0.000 C 
ATOM     22  C31 UNL     1      74.218  70.572 102.892  0.00  0.00    +0.000 C 
ATOM     23  C32 UNL     1      73.989  70.369 101.452  0.00  0.00    +0.000 C 
ATOM     24  C33 UNL     1      73.142  71.103 100.701  0.00  0.00    +0.000 C 
ATOM     25  C34 UNL     1      72.398  72.282 101.275  0.00  0.00    +0.000 C 
ATOM     26  C35 UNL     1      73.101  70.843  99.203  0.00  0.00    +0.000 C 
ATOM     27  C36 UNL     1      74.123  71.760  98.480  0.00  0.00    +0.000 C 
ATOM     28  C37 UNL     1      74.935  71.033  97.394  0.00  0.00    +0.000 C 
ATOM     29  C38 UNL     1      74.031  70.571  96.231  0.00  0.00    +0.000 C 
ATOM     30  C39 UNL     1      74.862  69.909  95.131  0.00  0.00    +0.000 C 
ATOM     31  C40 UNL     1      76.144  69.245  95.688  0.00  0.00    +0.000 C 
ATOM     32  C41 UNL     1      76.557  68.069  94.778  0.00  0.00    +0.000 C 
ATOM     33  C42 UNL     1      75.966  68.853  97.199  0.00  0.00    +0.000 C 
ATOM     34  O8  UNL     1      75.686  69.990  98.014  0.00  0.00    +0.000 OA
ATOM     35  C43 UNL     1      77.243  68.246  97.770  0.00  0.00    +0.000 C 
ATOM     36  O9  UNL     1      78.363  68.568  97.285  0.00  0.00    +0.000 OA
ATOM     37  C44 UNL     1      77.215  67.345  98.940  0.00  0.00    +0.000 C 
ATOM     38  O10 UNL     1      76.256  67.382  99.755  0.00  0.00    +0.000 OA
ATOM     39  N1  UNL     1      78.298  66.438  99.164  0.00  0.00    +0.000 N 
ATOM     40  C45 UNL     1      78.348  65.191  98.394  0.00  0.00    +0.000 C 
ATOM     41  C46 UNL     1      79.512  65.227  97.387  0.00  0.00    +0.000 C 
ATOM     42  C47 UNL     1      80.731  66.035  97.889  0.00  0.00    +0.000 C 
ATOM     43  C48 UNL     1      80.754  66.166  99.416  0.00  0.00    +0.000 C 
ATOM     44  C49 UNL     1      79.482  66.882  99.918  0.00  0.00    +0.000 C 
ATOM     45  C50 UNL     1      79.297  66.623 101.387  0.00  0.00    +0.000 C 
ATOM     46  O11 UNL     1      79.645  67.499 102.225  0.00  0.00    +0.000 OA
ATOM     47  O12 UNL     1      78.848  65.368 101.811  0.00  0.00    +0.000 OA
ENDROOT
BRANCH   1  48
ATOM     48  C9  UNL     1      79.033  63.364 103.190  0.00  0.00    +0.000 C 
ATOM     49  C10 UNL     1      78.284  62.735 101.994  0.00  0.00    +0.000 C 
BRANCH  48  50
ATOM     50  C8  UNL     1      80.516  62.873 103.146  0.00  0.00    +0.000 C 
BRANCH  50  53
ATOM     51  C2  UNL     1      82.449  60.547 105.749  0.00  0.00    +0.000 C 
ATOM     52  C3  UNL     1      81.972  61.075 104.364  0.00  0.00    +0.000 C 
ATOM     53  C4  UNL     1      81.228  62.432 104.456  0.00  0.00    +0.000 C 
ATOM     54  C5  UNL     1      80.374  62.489 105.732  0.00  0.00    +0.000 C 
ATOM     55  C6  UNL     1      81.272  62.461 106.987  0.00  0.00    +0.000 C 
ATOM     56  C7  UNL     1      82.602  61.687 106.777  0.00  0.00    +0.000 C 
BRANCH  51  58
ATOM     57  C1  UNL     1      81.471  58.450 105.442  0.00  0.00    +0.000 C 
ATOM     58  O1  UNL     1      81.501  59.610 106.245  0.00  0.00    +0.000 OA
ENDBRANCH  51  58
BRANCH  56  59
ATOM     59  O2  UNL     1      83.051  61.160 107.999  0.00  0.00    +0.000 OA
ATOM     60  H13 UNL     1      83.351  61.930 108.550  0.00  0.00    +0.000 HD
ENDBRANCH  56  59
ENDBRANCH  50  53
ENDBRANCH  48  50
ENDBRANCH   1  48
BRANCH  10  61
ATOM     61  O4  UNL     1      74.249  65.213 109.963  0.00  0.00    +0.000 OA
ATOM     62  H32 UNL     1      74.836  64.473 110.273  0.00  0.00    +0.000 HD
ENDBRANCH  10  61
BRANCH  11  63
ATOM     63  O5  UNL     1      74.602  67.814 110.777  0.00  0.00    +0.000 OA
ATOM     64  C21 UNL     1      74.864  67.789 112.166  0.00  0.00    +0.000 C 
ENDBRANCH  11  63
BRANCH  33  65
ATOM     65  O7  UNL     1      74.897  67.941  97.336  0.00  0.00    +0.000 OA
ATOM     66  H67 UNL     1      75.225  67.153  97.849  0.00  0.00    +0.000 HD
ENDBRANCH  33  65
BRANCH  26  67
ATOM     67  O13 UNL     1      71.802  71.095  98.687  0.00  0.00    +0.000 OA
ATOM     68  C51 UNL     1      71.116  69.882  98.451  0.00  0.00    +0.000 C 
ENDBRANCH  26  67
TORSDOF 9
ENDMDL
MODEL 10
REMARK VINA RESULT:      -7.8      2.775      6.851
REMARK  Name = ./S1039.pdb
REMARK  19 active torsions:
REMARK  status: ('A' for Active; 'I' for Inactive)
REMARK    1  A    between atoms: C1_1  and  O1_2
REMARK    2  A    between atoms: O1_2  and  C2_3
REMARK    3  A    between atoms: C4_5  and  C8_10
REMARK    4  A    between atoms: C7_8  and  O2_9
REMARK    5  A    between atoms: C8_10  and  C9_11
REMARK    6  A    between atoms: C9_11  and  C10_12
REMARK    7  A    between atoms: C9_11  and  C11_13
REMARK    8  A    between atoms: C14_17  and  C15_18
REMARK    9  A    between atoms: C17_20  and  C18_21
REMARK   10  A    between atoms: C19_22  and  O4_23
REMARK   11  A    between atoms: C20_24  and  O5_25
REMARK   12  A    between atoms: O5_25  and  C21_26
REMARK   13  A    between atoms: C23_29  and  C24_30
REMARK   14  A    between atoms: C26_32  and  C27_33
REMARK   15  A    between atoms: C33_39  and  C34_40
REMARK   16  A    between atoms: C35_41  and  O13_64
REMARK   17  A    between atoms: C40_46  and  C41_47
REMARK   18  A    between atoms: C42_48  and  O7_49
REMARK   19  A    between atoms: O13_64  and  C51_65
REMARK                            x       y       z     vdW  Elec       q    Type
REMARK                         _______ _______ _______ _____ _____    ______ ____
ROOT
ATOM      1  C11 UNL     1      78.211  66.783 101.173  0.00  0.00    +0.000 C 
ATOM      2  C12 UNL     1      77.488  67.815 102.073  0.00  0.00    +0.000 C 
ATOM      3  C13 UNL     1      77.778  69.248 101.677  0.00  0.00    +0.000 C 
ATOM      4  O3  UNL     1      77.491  69.620 100.546  0.00  0.00    +0.000 OA
ATOM      5  C14 UNL     1      78.412  70.218 102.652  0.00  0.00    +0.000 C 
ATOM      6  C15 UNL     1      79.792  70.702 102.172  0.00  0.00    +0.000 C 
ATOM      7  C16 UNL     1      77.444  71.317 103.073  0.00  0.00    +0.000 C 
ATOM      8  C17 UNL     1      77.151  72.486 102.437  0.00  0.00    +0.000 C 
ATOM      9  C18 UNL     1      77.862  72.916 101.172  0.00  0.00    +0.000 C 
ATOM     10  C19 UNL     1      76.179  73.460 103.120  0.00  0.00    +0.000 C 
ATOM     11  C20 UNL     1      75.030  73.993 102.222  0.00  0.00    +0.000 C 
ATOM     12  C22 UNL     1      74.164  72.848 101.724  0.00  0.00    +0.000 C 
ATOM     13  O6  UNL     1      74.649  72.055 100.930  0.00  0.00    +0.000 OA
ATOM     14  C23 UNL     1      72.721  72.648 102.169  0.00  0.00    +0.000 C 
ATOM     15  C24 UNL     1      71.815  72.502 100.934  0.00  0.00    +0.000 C 
ATOM     16  C25 UNL     1      72.653  71.424 103.106  0.00  0.00    +0.000 C 
ATOM     17  C26 UNL     1      71.244  71.091 103.660  0.00  0.00    +0.000 C 
ATOM     18  C27 UNL     1      70.650  72.212 104.529  0.00  0.00    +0.000 C 
ATOM     19  C28 UNL     1      71.298  69.786 104.414  0.00  0.00    +0.000 C 
ATOM     20  C29 UNL     1      72.007  69.631 105.542  0.00  0.00    +0.000 C 
ATOM     21  C30 UNL     1      72.203  68.323 106.191  0.00  0.00    +0.000 C 
ATOM     22  C31 UNL     1      72.273  67.179 105.494  0.00  0.00    +0.000 C 
ATOM     23  C32 UNL     1      72.597  65.893 106.134  0.00  0.00    +0.000 C 
ATOM     24  C33 UNL     1      71.879  65.329 107.127  0.00  0.00    +0.000 C 
ATOM     25  C34 UNL     1      70.596  65.948 107.623  0.00  0.00    +0.000 C 
ATOM     26  C35 UNL     1      72.280  63.943 107.605  0.00  0.00    +0.000 C 
ATOM     27  C36 UNL     1      71.518  62.863 106.793  0.00  0.00    +0.000 C 
ATOM     28  C37 UNL     1      72.406  61.684 106.358  0.00  0.00    +0.000 C 
ATOM     29  C38 UNL     1      72.911  60.882 107.576  0.00  0.00    +0.000 C 
ATOM     30  C39 UNL     1      73.738  59.677 107.123  0.00  0.00    +0.000 C 
ATOM     31  C40 UNL     1      74.439  59.926 105.767  0.00  0.00    +0.000 C 
ATOM     32  C41 UNL     1      75.726  59.079 105.683  0.00  0.00    +0.000 C 
ATOM     33  C42 UNL     1      74.666  61.462 105.523  0.00  0.00    +0.000 C 
ATOM     34  O8  UNL     1      73.438  62.186 105.507  0.00  0.00    +0.000 OA
ATOM     35  C43 UNL     1      75.309  61.720 104.165  0.00  0.00    +0.000 C 
ATOM     36  O9  UNL     1      75.121  60.908 103.217  0.00  0.00    +0.000 OA
ATOM     37  C44 UNL     1      76.087  62.947 103.897  0.00  0.00    +0.000 C 
ATOM     38  O10 UNL     1      75.898  63.988 104.582  0.00  0.00    +0.000 OA
ATOM     39  N1  UNL     1      77.047  62.963 102.837  0.00  0.00    +0.000 N 
ATOM     40  C45 UNL     1      78.363  62.358 103.065  0.00  0.00    +0.000 C 
ATOM     41  C46 UNL     1      78.514  61.069 102.236  0.00  0.00    +0.000 C 
ATOM     42  C47 UNL     1      77.755  61.114 100.890  0.00  0.00    +0.000 C 
ATOM     43  C48 UNL     1      77.477  62.549 100.426  0.00  0.00    +0.000 C 
ATOM     44  C49 UNL     1      76.621  63.300 101.469  0.00  0.00    +0.000 C 
ATOM     45  C50 UNL     1      76.721  64.782 101.238  0.00  0.00    +0.000 C 
ATOM     46  O11 UNL     1      75.796  65.383 100.626  0.00  0.00    +0.000 OA
ATOM     47  O12 UNL     1      77.891  65.456 101.602  0.00  0.00    +0.000 OA
ENDROOT
BRANCH   1  48
ATOM     48  C9  UNL     1      79.759  66.949 101.121  0.00  0.00    +0.000 C 
ATOM     49  C10 UNL     1      80.467  65.594 101.336  0.00  0.00    +0.000 C 
BRANCH  48  50
ATOM     50  C8  UNL     1      80.256  67.547  99.765  0.00  0.00    +0.000 C 
BRANCH  50  53
ATOM     51  C2  UNL     1      80.963  66.150  96.095  0.00  0.00    +0.000 C 
ATOM     52  C3  UNL     1      81.284  66.724  97.505  0.00  0.00    +0.000 C 
ATOM     53  C4  UNL     1      80.050  66.754  98.444  0.00  0.00    +0.000 C 
ATOM     54  C5  UNL     1      78.781  67.101  97.648  0.00  0.00    +0.000 C 
ATOM     55  C6  UNL     1      78.459  65.987  96.630  0.00  0.00    +0.000 C 
ATOM     56  C7  UNL     1      79.718  65.238  96.115  0.00  0.00    +0.000 C 
BRANCH  51  58
ATOM     57  C1  UNL     1      81.812  67.388  94.308  0.00  0.00    +0.000 C 
ATOM     58  O1  UNL     1      80.726  67.225  95.194  0.00  0.00    +0.000 OA
ENDBRANCH  51  58
BRANCH  56  59
ATOM     59  O2  UNL     1      79.486  64.733  94.826  0.00  0.00    +0.000 OA
ATOM     60  H13 UNL     1      79.937  63.850  94.778  0.00  0.00    +0.000 HD
ENDBRANCH  56  59
ENDBRANCH  50  53
ENDBRANCH  48  50
ENDBRANCH   1  48
BRANCH  10  61
ATOM     61  O4  UNL     1      76.902  74.528 103.685  0.00  0.00    +0.000 OA
ATOM     62  H32 UNL     1      76.716  74.535 104.661  0.00  0.00    +0.000 HD
ENDBRANCH  10  61
BRANCH  11  63
ATOM     63  O5  UNL     1      74.268  74.907 102.999  0.00  0.00    +0.000 OA
ATOM     64  C21 UNL     1      74.054  76.112 102.290  0.00  0.00    +0.000 C 
ENDBRANCH  11  63
BRANCH  33  65
ATOM     65  O7  UNL     1      75.478  61.996 106.548  0.00  0.00    +0.000 OA
ATOM     66  H67 UNL     1      74.896  62.198 107.330  0.00  0.00    +0.000 HD
ENDBRANCH  33  65
BRANCH  26  67
ATOM     67  O13 UNL     1      71.983  63.784 108.985  0.00  0.00    +0.000 OA
ATOM     68  C51 UNL     1      73.094  64.149 109.779  0.00  0.00    +0.000 C 
ENDBRANCH  26  67
TORSDOF 9
ENDMDL
MODEL 11
REMARK VINA RESULT:      -7.8      2.960      9.368
REMARK  Name = ./S1039.pdb
REMARK  19 active torsions:
REMARK  status: ('A' for Active; 'I' for Inactive)
REMARK    1  A    between atoms: C1_1  and  O1_2
REMARK    2  A    between atoms: O1_2  and  C2_3
REMARK    3  A    between atoms: C4_5  and  C8_10
REMARK    4  A    between atoms: C7_8  and  O2_9
REMARK    5  A    between atoms: C8_10  and  C9_11
REMARK    6  A    between atoms: C9_11  and  C10_12
REMARK    7  A    between atoms: C9_11  and  C11_13
REMARK    8  A    between atoms: C14_17  and  C15_18
REMARK    9  A    between atoms: C17_20  and  C18_21
REMARK   10  A    between atoms: C19_22  and  O4_23
REMARK   11  A    between atoms: C20_24  and  O5_25
REMARK   12  A    between atoms: O5_25  and  C21_26
REMARK   13  A    between atoms: C23_29  and  C24_30
REMARK   14  A    between atoms: C26_32  and  C27_33
REMARK   15  A    between atoms: C33_39  and  C34_40
REMARK   16  A    between atoms: C35_41  and  O13_64
REMARK   17  A    between atoms: C40_46  and  C41_47
REMARK   18  A    between atoms: C42_48  and  O7_49
REMARK   19  A    between atoms: O13_64  and  C51_65
REMARK                            x       y       z     vdW  Elec       q    Type
REMARK                         _______ _______ _______ _____ _____    ______ ____
ROOT
ATOM      1  C11 UNL     1      77.191  65.655 102.117  0.00  0.00    +0.000 C 
ATOM      2  C12 UNL     1      75.984  65.175 102.958  0.00  0.00    +0.000 C 
ATOM      3  C13 UNL     1      76.113  63.733 103.405  0.00  0.00    +0.000 C 
ATOM      4  O3  UNL     1      77.073  63.411 104.093  0.00  0.00    +0.000 OA
ATOM      5  C14 UNL     1      75.080  62.696 103.017  0.00  0.00    +0.000 C 
ATOM      6  C15 UNL     1      75.678  61.586 102.136  0.00  0.00    +0.000 C 
ATOM      7  C16 UNL     1      74.276  62.215 104.219  0.00  0.00    +0.000 C 
ATOM      8  C17 UNL     1      74.591  61.246 105.124  0.00  0.00    +0.000 C 
ATOM      9  C18 UNL     1      75.841  60.402 105.000  0.00  0.00    +0.000 C 
ATOM     10  C19 UNL     1      73.561  60.907 106.212  0.00  0.00    +0.000 C 
ATOM     11  C20 UNL     1      74.114  60.862 107.662  0.00  0.00    +0.000 C 
ATOM     12  C22 UNL     1      74.685  62.212 108.060  0.00  0.00    +0.000 C 
ATOM     13  O6  UNL     1      75.700  62.603 107.501  0.00  0.00    +0.000 OA
ATOM     14  C23 UNL     1      74.050  63.097 109.125  0.00  0.00    +0.000 C 
ATOM     15  C24 UNL     1      75.113  63.503 110.161  0.00  0.00    +0.000 C 
ATOM     16  C25 UNL     1      73.394  64.313 108.437  0.00  0.00    +0.000 C 
ATOM     17  C26 UNL     1      72.688  65.312 109.389  0.00  0.00    +0.000 C 
ATOM     18  C27 UNL     1      71.513  64.690 110.162  0.00  0.00    +0.000 C 
ATOM     19  C28 UNL     1      72.247  66.523 108.605  0.00  0.00    +0.000 C 
ATOM     20  C29 UNL     1      71.317  66.462 107.641  0.00  0.00    +0.000 C 
ATOM     21  C30 UNL     1      71.002  67.599 106.758  0.00  0.00    +0.000 C 
ATOM     22  C31 UNL     1      71.925  68.498 106.390  0.00  0.00    +0.000 C 
ATOM     23  C32 UNL     1      71.636  69.556 105.408  0.00  0.00    +0.000 C 
ATOM     24  C33 UNL     1      70.675  70.493 105.551  0.00  0.00    +0.000 C 
ATOM     25  C34 UNL     1      69.846  70.588 106.807  0.00  0.00    +0.000 C 
ATOM     26  C35 UNL     1      70.576  71.587 104.499  0.00  0.00    +0.000 C 
ATOM     27  C36 UNL     1      71.454  72.798 104.912  0.00  0.00    +0.000 C 
ATOM     28  C37 UNL     1      72.274  73.383 103.750  0.00  0.00    +0.000 C 
ATOM     29  C38 UNL     1      71.359  73.997 102.669  0.00  0.00    +0.000 C 
ATOM     30  C39 UNL     1      72.191  74.632 101.553  0.00  0.00    +0.000 C 
ATOM     31  C40 UNL     1      73.564  73.941 101.384  0.00  0.00    +0.000 C 
ATOM     32  C41 UNL     1      74.045  74.091  99.926  0.00  0.00    +0.000 C 
ATOM     33  C42 UNL     1      73.515  72.455 101.892  0.00  0.00    +0.000 C 
ATOM     34  O8  UNL     1      73.165  72.375 103.272  0.00  0.00    +0.000 OA
ATOM     35  C43 UNL     1      74.878  71.783 101.777  0.00  0.00    +0.000 C 
ATOM     36  O9  UNL     1      75.929  72.479 101.835  0.00  0.00    +0.000 OA
ATOM     37  C44 UNL     1      75.011  70.314 101.680  0.00  0.00    +0.000 C 
ATOM     38  O10 UNL     1      74.101  69.558 102.112  0.00  0.00    +0.000 OA
ATOM     39  N1  UNL     1      76.194  69.744 101.113  0.00  0.00    +0.000 N 
ATOM     40  C45 UNL     1      76.329  69.702  99.654  0.00  0.00    +0.000 C 
ATOM     41  C46 UNL     1      77.425  70.678  99.187  0.00  0.00    +0.000 C 
ATOM     42  C47 UNL     1      78.579  70.836 100.202  0.00  0.00    +0.000 C 
ATOM     43  C48 UNL     1      78.676  69.644 101.163  0.00  0.00    +0.000 C 
ATOM     44  C49 UNL     1      77.366  69.489 101.966  0.00  0.00    +0.000 C 
ATOM     45  C50 UNL     1      77.293  68.110 102.560  0.00  0.00    +0.000 C 
ATOM     46  O11 UNL     1      77.596  67.934 103.772  0.00  0.00    +0.000 OA
ATOM     47  O12 UNL     1      77.003  67.021 101.731  0.00  0.00    +0.000 OA
ENDROOT
BRANCH   1  48
ATOM     48  C9  UNL     1      77.474  64.796 100.848  0.00  0.00    +0.000 C 
ATOM     49  C10 UNL     1      76.302  64.887  99.847  0.00  0.00    +0.000 C 
BRANCH  48  50
ATOM     50  C8  UNL     1      78.781  65.227 100.107  0.00  0.00    +0.000 C 
BRANCH  50  53
ATOM     51  C2  UNL     1      79.929  65.634  96.308  0.00  0.00    +0.000 C 
ATOM     52  C3  UNL     1      79.863  65.019  97.736  0.00  0.00    +0.000 C 
ATOM     53  C4  UNL     1      78.729  65.620  98.604  0.00  0.00    +0.000 C 
ATOM     54  C5  UNL     1      78.569  67.121  98.312  0.00  0.00    +0.000 C 
ATOM     55  C6  UNL     1      78.097  67.343  96.859  0.00  0.00    +0.000 C 
ATOM     56  C7  UNL     1      78.575  66.238  95.879  0.00  0.00    +0.000 C 
BRANCH  51  58
ATOM     57  C1  UNL     1      81.988  66.347  97.143  0.00  0.00    +0.000 C 
ATOM     58  O1  UNL     1      80.914  66.659  96.284  0.00  0.00    +0.000 OA
ENDBRANCH  51  58
BRANCH  56  59
ATOM     59  O2  UNL     1      78.684  66.760  94.580  0.00  0.00    +0.000 OA
ATOM     60  H13 UNL     1      77.945  67.413  94.471  0.00  0.00    +0.000 HD
ENDBRANCH  56  59
ENDBRANCH  50  53
ENDBRANCH  48  50
ENDBRANCH   1  48
BRANCH  10  61
ATOM     61  O4  UNL     1      72.917  59.697 105.890  0.00  0.00    +0.000 OA
ATOM     62  H32 UNL     1      73.622  59.021 105.704  0.00  0.00    +0.000 HD
ENDBRANCH  10  61
BRANCH  11  63
ATOM     63  O5  UNL     1      73.043  60.490 108.518  0.00  0.00    +0.000 OA
ATOM     64  C21 UNL     1      73.350  59.300 109.219  0.00  0.00    +0.000 C 
ENDBRANCH  11  63
BRANCH  33  65
ATOM     65  O7  UNL     1      72.556  71.727 101.153  0.00  0.00    +0.000 OA
ATOM     66  H67 UNL     1      72.483  72.138 100.249  0.00  0.00    +0.000 HD
ENDBRANCH  33  65
BRANCH  26  67
ATOM     67  O13 UNL     1      69.231  72.016 104.349  0.00  0.00    +0.000 OA
ATOM     68  C51 UNL     1      68.508  71.114 103.535  0.00  0.00    +0.000 C 
ENDBRANCH  26  67
TORSDOF 9
ENDMDL
MODEL 12
REMARK VINA RESULT:      -7.8      1.742      3.549
REMARK  Name = ./S1039.pdb
REMARK  19 active torsions:
REMARK  status: ('A' for Active; 'I' for Inactive)
REMARK    1  A    between atoms: C1_1  and  O1_2
REMARK    2  A    between atoms: O1_2  and  C2_3
REMARK    3  A    between atoms: C4_5  and  C8_10
REMARK    4  A    between atoms: C7_8  and  O2_9
REMARK    5  A    between atoms: C8_10  and  C9_11
REMARK    6  A    between atoms: C9_11  and  C10_12
REMARK    7  A    between atoms: C9_11  and  C11_13
REMARK    8  A    between atoms: C14_17  and  C15_18
REMARK    9  A    between atoms: C17_20  and  C18_21
REMARK   10  A    between atoms: C19_22  and  O4_23
REMARK   11  A    between atoms: C20_24  and  O5_25
REMARK   12  A    between atoms: O5_25  and  C21_26
REMARK   13  A    between atoms: C23_29  and  C24_30
REMARK   14  A    between atoms: C26_32  and  C27_33
REMARK   15  A    between atoms: C33_39  and  C34_40
REMARK   16  A    between atoms: C35_41  and  O13_64
REMARK   17  A    between atoms: C40_46  and  C41_47
REMARK   18  A    between atoms: C42_48  and  O7_49
REMARK   19  A    between atoms: O13_64  and  C51_65
REMARK                            x       y       z     vdW  Elec       q    Type
REMARK                         _______ _______ _______ _____ _____    ______ ____
ROOT
ATOM      1  C11 UNL     1      76.587  63.325 102.132  0.00  0.00    +0.000 C 
ATOM      2  C12 UNL     1      76.774  64.792 101.675  0.00  0.00    +0.000 C 
ATOM      3  C13 UNL     1      77.688  64.924 100.475  0.00  0.00    +0.000 C 
ATOM      4  O3  UNL     1      77.390  64.347  99.437  0.00  0.00    +0.000 OA
ATOM      5  C14 UNL     1      78.955  65.751 100.541  0.00  0.00    +0.000 C 
ATOM      6  C15 UNL     1      80.217  64.894 100.340  0.00  0.00    +0.000 C 
ATOM      7  C16 UNL     1      78.866  67.000  99.672  0.00  0.00    +0.000 C 
ATOM      8  C17 UNL     1      79.111  67.129  98.338  0.00  0.00    +0.000 C 
ATOM      9  C18 UNL     1      79.617  65.979  97.495  0.00  0.00    +0.000 C 
ATOM     10  C19 UNL     1      79.013  68.530  97.715  0.00  0.00    +0.000 C 
ATOM     11  C20 UNL     1      78.161  68.626  96.421  0.00  0.00    +0.000 C 
ATOM     12  C22 UNL     1      76.725  68.209  96.694  0.00  0.00    +0.000 C 
ATOM     13  O6  UNL     1      76.500  67.037  96.961  0.00  0.00    +0.000 OA
ATOM     14  C23 UNL     1      75.557  69.185  96.645  0.00  0.00    +0.000 C 
ATOM     15  C24 UNL     1      74.454  68.626  95.729  0.00  0.00    +0.000 C 
ATOM     16  C25 UNL     1      75.062  69.444  98.084  0.00  0.00    +0.000 C 
ATOM     17  C26 UNL     1      73.876  70.433  98.209  0.00  0.00    +0.000 C 
ATOM     18  C27 UNL     1      74.208  71.849  97.709  0.00  0.00    +0.000 C 
ATOM     19  C28 UNL     1      73.393  70.457  99.638  0.00  0.00    +0.000 C 
ATOM     20  C29 UNL     1      74.149  70.909 100.650  0.00  0.00    +0.000 C 
ATOM     21  C30 UNL     1      73.755  70.781 102.063  0.00  0.00    +0.000 C 
ATOM     22  C31 UNL     1      73.029  69.749 102.515  0.00  0.00    +0.000 C 
ATOM     23  C32 UNL     1      72.747  69.559 103.948  0.00  0.00    +0.000 C 
ATOM     24  C33 UNL     1      72.098  70.450 104.726  0.00  0.00    +0.000 C 
ATOM     25  C34 UNL     1      71.513  71.717 104.154  0.00  0.00    +0.000 C 
ATOM     26  C35 UNL     1      71.786  70.057 106.161  0.00  0.00    +0.000 C 
ATOM     27  C36 UNL     1      70.395  69.374 106.231  0.00  0.00    +0.000 C 
ATOM     28  C37 UNL     1      70.373  68.122 107.126  0.00  0.00    +0.000 C 
ATOM     29  C38 UNL     1      70.635  68.483 108.603  0.00  0.00    +0.000 C 
ATOM     30  C39 UNL     1      70.546  67.237 109.487  0.00  0.00    +0.000 C 
ATOM     31  C40 UNL     1      70.925  65.949 108.720  0.00  0.00    +0.000 C 
ATOM     32  C41 UNL     1      71.487  64.903 109.706  0.00  0.00    +0.000 C 
ATOM     33  C42 UNL     1      71.880  66.270 107.515  0.00  0.00    +0.000 C 
ATOM     34  O8  UNL     1      71.276  67.160 106.579  0.00  0.00    +0.000 OA
ATOM     35  C43 UNL     1      72.217  65.012 106.722  0.00  0.00    +0.000 C 
ATOM     36  O9  UNL     1      71.403  64.048 106.697  0.00  0.00    +0.000 OA
ATOM     37  C44 UNL     1      73.445  64.918 105.905  0.00  0.00    +0.000 C 
ATOM     38  O10 UNL     1      74.017  65.958 105.484  0.00  0.00    +0.000 OA
ATOM     39  N1  UNL     1      73.978  63.634 105.570  0.00  0.00    +0.000 N 
ATOM     40  C45 UNL     1      74.768  62.911 106.571  0.00  0.00    +0.000 C 
ATOM     41  C46 UNL     1      73.997  61.678 107.077  0.00  0.00    +0.000 C 
ATOM     42  C47 UNL     1      73.090  61.038 106.001  0.00  0.00    +0.000 C 
ATOM     43  C48 UNL     1      73.531  61.400 104.578  0.00  0.00    +0.000 C 
ATOM     44  C49 UNL     1      73.492  62.930 104.371  0.00  0.00    +0.000 C 
ATOM     45  C50 UNL     1      74.318  63.303 103.172  0.00  0.00    +0.000 C 
ATOM     46  O11 UNL     1      73.751  63.535 102.070  0.00  0.00    +0.000 OA
ATOM     47  O12 UNL     1      75.714  63.275 103.265  0.00  0.00    +0.000 OA
ENDROOT
BRANCH   1  48
ATOM     48  C9  UNL     1      77.915  62.584 102.473  0.00  0.00    +0.000 C 
ATOM     49  C10 UNL     1      78.557  61.988 101.200  0.00  0.00    +0.000 C 
BRANCH  48  50
ATOM     50  C8  UNL     1      78.967  63.514 103.158  0.00  0.00    +0.000 C 
BRANCH  50  53
ATOM     51  C2  UNL     1      78.325  65.020 106.797  0.00  0.00    +0.000 C 
ATOM     52  C3  UNL     1      78.076  64.748 105.285  0.00  0.00    +0.000 C 
ATOM     53  C4  UNL     1      78.999  63.644 104.707  0.00  0.00    +0.000 C 
ATOM     54  C5  UNL     1      80.396  63.728 105.341  0.00  0.00    +0.000 C 
ATOM     55  C6  UNL     1      80.326  63.414 106.851  0.00  0.00    +0.000 C 
ATOM     56  C7  UNL     1      78.971  63.807 107.500  0.00  0.00    +0.000 C 
BRANCH  51  58
ATOM     57  C1  UNL     1      78.465  67.349 106.853  0.00  0.00    +0.000 C 
ATOM     58  O1  UNL     1      79.189  66.141 106.936  0.00  0.00    +0.000 OA
ENDBRANCH  51  58
BRANCH  56  59
ATOM     59  O2  UNL     1      79.156  64.098 108.861  0.00  0.00    +0.000 OA
ATOM     60  H13 UNL     1      79.529  63.279 109.281  0.00  0.00    +0.000 HD
ENDBRANCH  56  59
ENDBRANCH  50  53
ENDBRANCH  48  50
ENDBRANCH   1  48
BRANCH  10  61
ATOM     61  O4  UNL     1      80.308  69.038  97.493  0.00  0.00    +0.000 OA
ATOM     62  H32 UNL     1      80.952  68.296  97.642  0.00  0.00    +0.000 HD
ENDBRANCH  10  61
BRANCH  11  63
ATOM     63  O5  UNL     1      78.222  69.970  95.965  0.00  0.00    +0.000 OA
ATOM     64  C21 UNL     1      78.578  70.021  94.598  0.00  0.00    +0.000 C 
ENDBRANCH  11  63
BRANCH  33  65
ATOM     65  O7  UNL     1      73.067  66.872 107.989  0.00  0.00    +0.000 OA
ATOM     66  H67 UNL     1      72.815  67.599 108.621  0.00  0.00    +0.000 HD
ENDBRANCH  33  65
BRANCH  26  67
ATOM     67  O13 UNL     1      71.787  71.201 107.004  0.00  0.00    +0.000 OA
ATOM     68  C51 UNL     1      72.991  71.276 107.740  0.00  0.00    +0.000 C 
ENDBRANCH  26  67
TORSDOF 9
ENDMDL
MODEL 13
REMARK VINA RESULT:      -7.8      3.024      9.264
REMARK  Name = ./S1039.pdb
REMARK  19 active torsions:
REMARK  status: ('A' for Active; 'I' for Inactive)
REMARK    1  A    between atoms: C1_1  and  O1_2
REMARK    2  A    between atoms: O1_2  and  C2_3
REMARK    3  A    between atoms: C4_5  and  C8_10
REMARK    4  A    between atoms: C7_8  and  O2_9
REMARK    5  A    between atoms: C8_10  and  C9_11
REMARK    6  A    between atoms: C9_11  and  C10_12
REMARK    7  A    between atoms: C9_11  and  C11_13
REMARK    8  A    between atoms: C14_17  and  C15_18
REMARK    9  A    between atoms: C17_20  and  C18_21
REMARK   10  A    between atoms: C19_22  and  O4_23
REMARK   11  A    between atoms: C20_24  and  O5_25
REMARK   12  A    between atoms: O5_25  and  C21_26
REMARK   13  A    between atoms: C23_29  and  C24_30
REMARK   14  A    between atoms: C26_32  and  C27_33
REMARK   15  A    between atoms: C33_39  and  C34_40
REMARK   16  A    between atoms: C35_41  and  O13_64
REMARK   17  A    between atoms: C40_46  and  C41_47
REMARK   18  A    between atoms: C42_48  and  O7_49
REMARK   19  A    between atoms: O13_64  and  C51_65
REMARK                            x       y       z     vdW  Elec       q    Type
REMARK                         _______ _______ _______ _____ _____    ______ ____
ROOT
ATOM      1  C11 UNL     1      74.397  71.135 100.351  0.00  0.00    +0.000 C 
ATOM      2  C12 UNL     1      75.151  69.870  99.874  0.00  0.00    +0.000 C 
ATOM      3  C13 UNL     1      75.798  70.045  98.515  0.00  0.00    +0.000 C 
ATOM      4  O3  UNL     1      76.628  70.933  98.365  0.00  0.00    +0.000 OA
ATOM      5  C14 UNL     1      75.435  69.146  97.351  0.00  0.00    +0.000 C 
ATOM      6  C15 UNL     1      74.784  69.928  96.198  0.00  0.00    +0.000 C 
ATOM      7  C16 UNL     1      76.591  68.235  96.954  0.00  0.00    +0.000 C 
ATOM      8  C17 UNL     1      77.646  68.503  96.136  0.00  0.00    +0.000 C 
ATOM      9  C18 UNL     1      77.779  69.816  95.395  0.00  0.00    +0.000 C 
ATOM     10  C19 UNL     1      78.645  67.373  95.844  0.00  0.00    +0.000 C 
ATOM     11  C20 UNL     1      80.141  67.742  96.027  0.00  0.00    +0.000 C 
ATOM     12  C22 UNL     1      80.419  68.160  97.461  0.00  0.00    +0.000 C 
ATOM     13  O6  UNL     1      79.933  69.206  97.867  0.00  0.00    +0.000 OA
ATOM     14  C23 UNL     1      81.276  67.335  98.412  0.00  0.00    +0.000 C 
ATOM     15  C24 UNL     1      82.364  68.227  99.033  0.00  0.00    +0.000 C 
ATOM     16  C25 UNL     1      80.362  66.684  99.471  0.00  0.00    +0.000 C 
ATOM     17  C26 UNL     1      81.085  65.794 100.515  0.00  0.00    +0.000 C 
ATOM     18  C27 UNL     1      81.794  64.580  99.892  0.00  0.00    +0.000 C 
ATOM     19  C28 UNL     1      80.102  65.368 101.576  0.00  0.00    +0.000 C 
ATOM     20  C29 UNL     1      79.054  64.573 101.315  0.00  0.00    +0.000 C 
ATOM     21  C30 UNL     1      77.998  64.290 102.302  0.00  0.00    +0.000 C 
ATOM     22  C31 UNL     1      77.622  65.184 103.227  0.00  0.00    +0.000 C 
ATOM     23  C32 UNL     1      76.481  64.945 104.126  0.00  0.00    +0.000 C 
ATOM     24  C33 UNL     1      76.386  63.909 104.985  0.00  0.00    +0.000 C 
ATOM     25  C34 UNL     1      77.515  62.925 105.162  0.00  0.00    +0.000 C 
ATOM     26  C35 UNL     1      75.194  63.864 105.928  0.00  0.00    +0.000 C 
ATOM     27  C36 UNL     1      75.541  64.593 107.253  0.00  0.00    +0.000 C 
ATOM     28  C37 UNL     1      74.412  65.508 107.760  0.00  0.00    +0.000 C 
ATOM     29  C38 UNL     1      73.162  64.693 108.154  0.00  0.00    +0.000 C 
ATOM     30  C39 UNL     1      72.074  65.610 108.716  0.00  0.00    +0.000 C 
ATOM     31  C40 UNL     1      72.157  67.040 108.133  0.00  0.00    +0.000 C 
ATOM     32  C41 UNL     1      70.757  67.688 108.143  0.00  0.00    +0.000 C 
ATOM     33  C42 UNL     1      72.849  67.035 106.722  0.00  0.00    +0.000 C 
ATOM     34  O8  UNL     1      74.178  66.522 106.782  0.00  0.00    +0.000 OA
ATOM     35  C43 UNL     1      72.982  68.447 106.163  0.00  0.00    +0.000 C 
ATOM     36  O9  UNL     1      73.067  69.429 106.951  0.00  0.00    +0.000 OA
ATOM     37  C44 UNL     1      73.098  68.696 104.711  0.00  0.00    +0.000 C 
ATOM     38  O10 UNL     1      73.519  67.797 103.937  0.00  0.00    +0.000 OA
ATOM     39  N1  UNL     1      72.750  69.979 104.181  0.00  0.00    +0.000 N 
ATOM     40  C45 UNL     1      71.335  70.298 103.971  0.00  0.00    +0.000 C 
ATOM     41  C46 UNL     1      70.871  71.370 104.974  0.00  0.00    +0.000 C 
ATOM     42  C47 UNL     1      71.983  72.375 105.357  0.00  0.00    +0.000 C 
ATOM     43  C48 UNL     1      73.098  72.436 104.306  0.00  0.00    +0.000 C 
ATOM     44  C49 UNL     1      73.759  71.050 104.137  0.00  0.00    +0.000 C 
ATOM     45  C50 UNL     1      74.518  71.004 102.840  0.00  0.00    +0.000 C 
ATOM     46  O11 UNL     1      75.770  71.164 102.842  0.00  0.00    +0.000 OA
ATOM     47  O12 UNL     1      73.814  70.898 101.636  0.00  0.00    +0.000 OA
ENDROOT
BRANCH   1  48
ATOM     48  C9  UNL     1      73.296  71.636  99.369  0.00  0.00    +0.000 C 
ATOM     49  C10 UNL     1      71.961  70.897  99.614  0.00  0.00    +0.000 C 
BRANCH  48  50
ATOM     50  C8  UNL     1      73.031  73.171  99.492  0.00  0.00    +0.000 C 
BRANCH  50  53
ATOM     51  C2  UNL     1      74.562  76.584  98.104  0.00  0.00    +0.000 C 
ATOM     52  C3  UNL     1      73.582  75.651  98.873  0.00  0.00    +0.000 C 
ATOM     53  C4  UNL     1      74.082  74.186  98.962  0.00  0.00    +0.000 C 
ATOM     54  C5  UNL     1      74.800  73.786  97.663  0.00  0.00    +0.000 C 
ATOM     55  C6  UNL     1      76.087  74.618  97.478  0.00  0.00    +0.000 C 
ATOM     56  C7  UNL     1      76.004  76.034  98.111  0.00  0.00    +0.000 C 
BRANCH  51  58
ATOM     57  C1  UNL     1      73.093  77.662  96.646  0.00  0.00    +0.000 C 
ATOM     58  O1  UNL     1      74.129  76.710  96.756  0.00  0.00    +0.000 OA
ENDBRANCH  51  58
BRANCH  56  59
ATOM     59  O2  UNL     1      76.848  76.920  97.423  0.00  0.00    +0.000 OA
ATOM     60  H13 UNL     1      76.404  77.808  97.437  0.00  0.00    +0.000 HD
ENDBRANCH  56  59
ENDBRANCH  50  53
ENDBRANCH  48  50
ENDBRANCH   1  48
BRANCH  10  61
ATOM     61  O4  UNL     1      78.414  66.863  94.552  0.00  0.00    +0.000 OA
ATOM     62  H32 UNL     1      78.864  67.469  93.905  0.00  0.00    +0.000 HD
ENDBRANCH  10  61
BRANCH  11  63
ATOM     63  O5  UNL     1      80.911  66.602  95.671  0.00  0.00    +0.000 OA
ATOM     64  C21 UNL     1      81.947  66.955  94.776  0.00  0.00    +0.000 C 
ENDBRANCH  11  63
BRANCH  33  65
ATOM     65  O7  UNL     1      72.109  66.231 105.827  0.00  0.00    +0.000 OA
ATOM     66  H67 UNL     1      71.154  66.251 106.110  0.00  0.00    +0.000 HD
ENDBRANCH  33  65
BRANCH  26  67
ATOM     67  O13 UNL     1      74.835  62.520 106.216  0.00  0.00    +0.000 OA
ATOM     68  C51 UNL     1      73.734  62.119 105.426  0.00  0.00    +0.000 C 
ENDBRANCH  26  67
TORSDOF 9
ENDMDL
MODEL 14
REMARK VINA RESULT:      -7.7      3.797      8.581
REMARK  Name = ./S1039.pdb
REMARK  19 active torsions:
REMARK  status: ('A' for Active; 'I' for Inactive)
REMARK    1  A    between atoms: C1_1  and  O1_2
REMARK    2  A    between atoms: O1_2  and  C2_3
REMARK    3  A    between atoms: C4_5  and  C8_10
REMARK    4  A    between atoms: C7_8  and  O2_9
REMARK    5  A    between atoms: C8_10  and  C9_11
REMARK    6  A    between atoms: C9_11  and  C10_12
REMARK    7  A    between atoms: C9_11  and  C11_13
REMARK    8  A    between atoms: C14_17  and  C15_18
REMARK    9  A    between atoms: C17_20  and  C18_21
REMARK   10  A    between atoms: C19_22  and  O4_23
REMARK   11  A    between atoms: C20_24  and  O5_25
REMARK   12  A    between atoms: O5_25  and  C21_26
REMARK   13  A    between atoms: C23_29  and  C24_30
REMARK   14  A    between atoms: C26_32  and  C27_33
REMARK   15  A    between atoms: C33_39  and  C34_40
REMARK   16  A    between atoms: C35_41  and  O13_64
REMARK   17  A    between atoms: C40_46  and  C41_47
REMARK   18  A    between atoms: C42_48  and  O7_49
REMARK   19  A    between atoms: O13_64  and  C51_65
REMARK                            x       y       z     vdW  Elec       q    Type
REMARK                         _______ _______ _______ _____ _____    ______ ____
ROOT
ATOM      1  C11 UNL     1      73.417  68.971 104.895  0.00  0.00    +0.000 C 
ATOM      2  C12 UNL     1      74.481  69.185 103.791  0.00  0.00    +0.000 C 
ATOM      3  C13 UNL     1      75.374  67.977 103.591  0.00  0.00    +0.000 C 
ATOM      4  O3  UNL     1      74.863  66.909 103.279  0.00  0.00    +0.000 OA
ATOM      5  C14 UNL     1      76.874  68.073 103.770  0.00  0.00    +0.000 C 
ATOM      6  C15 UNL     1      77.377  67.191 104.925  0.00  0.00    +0.000 C 
ATOM      7  C16 UNL     1      77.617  67.908 102.449  0.00  0.00    +0.000 C 
ATOM      8  C17 UNL     1      77.985  66.759 101.816  0.00  0.00    +0.000 C 
ATOM      9  C18 UNL     1      77.756  65.393 102.425  0.00  0.00    +0.000 C 
ATOM     10  C19 UNL     1      78.794  66.875 100.515  0.00  0.00    +0.000 C 
ATOM     11  C20 UNL     1      78.266  66.031  99.325  0.00  0.00    +0.000 C 
ATOM     12  C22 UNL     1      76.854  66.452  98.954  0.00  0.00    +0.000 C 
ATOM     13  O6  UNL     1      75.951  66.218  99.744  0.00  0.00    +0.000 OA
ATOM     14  C23 UNL     1      76.516  67.149  97.643  0.00  0.00    +0.000 C 
ATOM     15  C24 UNL     1      75.367  66.403  96.942  0.00  0.00    +0.000 C 
ATOM     16  C25 UNL     1      76.175  68.626  97.936  0.00  0.00    +0.000 C 
ATOM     17  C26 UNL     1      75.817  69.482  96.695  0.00  0.00    +0.000 C 
ATOM     18  C27 UNL     1      76.969  69.599  95.682  0.00  0.00    +0.000 C 
ATOM     19  C28 UNL     1      75.346  70.843  97.145  0.00  0.00    +0.000 C 
ATOM     20  C29 UNL     1      76.147  71.714  97.775  0.00  0.00    +0.000 C 
ATOM     21  C30 UNL     1      75.656  72.971  98.367  0.00  0.00    +0.000 C 
ATOM     22  C31 UNL     1      74.425  73.087  98.885  0.00  0.00    +0.000 C 
ATOM     23  C32 UNL     1      73.984  74.303  99.588  0.00  0.00    +0.000 C 
ATOM     24  C33 UNL     1      73.948  75.535  99.040  0.00  0.00    +0.000 C 
ATOM     25  C34 UNL     1      74.287  75.762  97.588  0.00  0.00    +0.000 C 
ATOM     26  C35 UNL     1      73.361  76.671  99.863  0.00  0.00    +0.000 C 
ATOM     27  C36 UNL     1      71.838  76.788  99.591  0.00  0.00    +0.000 C 
ATOM     28  C37 UNL     1      71.004  77.003 100.865  0.00  0.00    +0.000 C 
ATOM     29  C38 UNL     1      71.324  78.361 101.525  0.00  0.00    +0.000 C 
ATOM     30  C39 UNL     1      70.440  78.586 102.753  0.00  0.00    +0.000 C 
ATOM     31  C40 UNL     1      70.021  77.257 103.423  0.00  0.00    +0.000 C 
ATOM     32  C41 UNL     1      69.769  77.489 104.927  0.00  0.00    +0.000 C 
ATOM     33  C42 UNL     1      71.061  76.119 103.117  0.00  0.00    +0.000 C 
ATOM     34  O8  UNL     1      71.183  75.871 101.718  0.00  0.00    +0.000 OA
ATOM     35  C43 UNL     1      70.628  74.791 103.730  0.00  0.00    +0.000 C 
ATOM     36  O9  UNL     1      69.403  74.553 103.911  0.00  0.00    +0.000 OA
ATOM     37  C44 UNL     1      71.607  73.731 104.047  0.00  0.00    +0.000 C 
ATOM     38  O10 UNL     1      72.718  73.685 103.456  0.00  0.00    +0.000 OA
ATOM     39  N1  UNL     1      71.282  72.732 105.019  0.00  0.00    +0.000 N 
ATOM     40  C45 UNL     1      71.404  73.063 106.441  0.00  0.00    +0.000 C 
ATOM     41  C46 UNL     1      70.013  73.147 107.096  0.00  0.00    +0.000 C 
ATOM     42  C47 UNL     1      68.983  72.177 106.474  0.00  0.00    +0.000 C 
ATOM     43  C48 UNL     1      69.653  71.004 105.748  0.00  0.00    +0.000 C 
ATOM     44  C49 UNL     1      70.557  71.519 104.607  0.00  0.00    +0.000 C 
ATOM     45  C50 UNL     1      71.525  70.443 104.199  0.00  0.00    +0.000 C 
ATOM     46  O11 UNL     1      71.292  69.749 103.172  0.00  0.00    +0.000 OA
ATOM     47  O12 UNL     1      72.612  70.147 105.029  0.00  0.00    +0.000 OA
ENDROOT
BRANCH   1  48
ATOM     48  C9  UNL     1      74.003  68.587 106.287  0.00  0.00    +0.000 C 
ATOM     49  C10 UNL     1      73.340  69.412 107.412  0.00  0.00    +0.000 C 
BRANCH  48  50
ATOM     50  C8  UNL     1      73.818  67.072 106.622  0.00  0.00    +0.000 C 
BRANCH  50  53
ATOM     51  C2  UNL     1      72.608  65.068 109.853  0.00  0.00    +0.000 C 
ATOM     52  C3  UNL     1      73.603  65.672 108.820  0.00  0.00    +0.000 C 
ATOM     53  C4  UNL     1      72.925  66.644 107.821  0.00  0.00    +0.000 C 
ATOM     54  C5  UNL     1      71.518  66.144 107.459  0.00  0.00    +0.000 C 
ATOM     55  C6  UNL     1      70.599  66.170 108.699  0.00  0.00    +0.000 C 
ATOM     56  C7  UNL     1      71.360  65.957 110.036  0.00  0.00    +0.000 C 
BRANCH  51  58
ATOM     57  C1  UNL     1      73.254  63.098 108.782  0.00  0.00    +0.000 C 
ATOM     58  O1  UNL     1      72.192  63.783 109.408  0.00  0.00    +0.000 OA
ENDBRANCH  51  58
BRANCH  56  59
ATOM     59  O2  UNL     1      70.507  65.378 110.989  0.00  0.00    +0.000 OA
ATOM     60  H13 UNL     1      69.582  65.468 110.639  0.00  0.00    +0.000 HD
ENDBRANCH  56  59
ENDBRANCH  50  53
ENDBRANCH  48  50
ENDBRANCH   1  48
BRANCH  10  61
ATOM     61  O4  UNL     1      80.146  66.575 100.774  0.00  0.00    +0.000 OA
ATOM     62  H32 UNL     1      80.430  67.117 101.557  0.00  0.00    +0.000 HD
ENDBRANCH  10  61
BRANCH  11  63
ATOM     63  O5  UNL     1      79.157  66.224  98.234  0.00  0.00    +0.000 OA
ATOM     64  C21 UNL     1      79.632  64.983  97.749  0.00  0.00    +0.000 C 
ENDBRANCH  11  63
BRANCH  33  65
ATOM     65  O7  UNL     1      72.333  76.484 103.610  0.00  0.00    +0.000 OA
ATOM     66  H67 UNL     1      72.304  77.449 103.855  0.00  0.00    +0.000 HD
ENDBRANCH  33  65
BRANCH  26  67
ATOM     67  O13 UNL     1      73.990  77.902  99.536  0.00  0.00    +0.000 OA
ATOM     68  C51 UNL     1      75.015  78.198 100.462  0.00  0.00    +0.000 C 
ENDBRANCH  26  67
TORSDOF 9
ENDMDL
MODEL 15
REMARK VINA RESULT:      -7.6      3.107      9.897
REMARK  Name = ./S1039.pdb
REMARK  19 active torsions:
REMARK  status: ('A' for Active; 'I' for Inactive)
REMARK    1  A    between atoms: C1_1  and  O1_2
REMARK    2  A    between atoms: O1_2  and  C2_3
REMARK    3  A    between atoms: C4_5  and  C8_10
REMARK    4  A    between atoms: C7_8  and  O2_9
REMARK    5  A    between atoms: C8_10  and  C9_11
REMARK    6  A    between atoms: C9_11  and  C10_12
REMARK    7  A    between atoms: C9_11  and  C11_13
REMARK    8  A    between atoms: C14_17  and  C15_18
REMARK    9  A    between atoms: C17_20  and  C18_21
REMARK   10  A    between atoms: C19_22  and  O4_23
REMARK   11  A    between atoms: C20_24  and  O5_25
REMARK   12  A    between atoms: O5_25  and  C21_26
REMARK   13  A    between atoms: C23_29  and  C24_30
REMARK   14  A    between atoms: C26_32  and  C27_33
REMARK   15  A    between atoms: C33_39  and  C34_40
REMARK   16  A    between atoms: C35_41  and  O13_64
REMARK   17  A    between atoms: C40_46  and  C41_47
REMARK   18  A    between atoms: C42_48  and  O7_49
REMARK   19  A    between atoms: O13_64  and  C51_65
REMARK                            x       y       z     vdW  Elec       q    Type
REMARK                         _______ _______ _______ _____ _____    ______ ____
ROOT
ATOM      1  C11 UNL     1      76.278  65.952 104.963  0.00  0.00    +0.000 C 
ATOM      2  C12 UNL     1      75.093  66.885 104.616  0.00  0.00    +0.000 C 
ATOM      3  C13 UNL     1      74.186  67.153 105.799  0.00  0.00    +0.000 C 
ATOM      4  O3  UNL     1      74.659  67.671 106.803  0.00  0.00    +0.000 OA
ATOM      5  C14 UNL     1      72.716  66.791 105.759  0.00  0.00    +0.000 C 
ATOM      6  C15 UNL     1      72.353  65.724 106.806  0.00  0.00    +0.000 C 
ATOM      7  C16 UNL     1      71.825  68.028 105.749  0.00  0.00    +0.000 C 
ATOM      8  C17 UNL     1      71.389  68.773 106.803  0.00  0.00    +0.000 C 
ATOM      9  C18 UNL     1      71.691  68.397 108.238  0.00  0.00    +0.000 C 
ATOM     10  C19 UNL     1      70.434  69.943 106.520  0.00  0.00    +0.000 C 
ATOM     11  C20 UNL     1      70.823  71.295 107.176  0.00  0.00    +0.000 C 
ATOM     12  C22 UNL     1      72.181  71.760 106.679  0.00  0.00    +0.000 C 
ATOM     13  O6  UNL     1      73.171  71.120 107.006  0.00  0.00    +0.000 OA
ATOM     14  C23 UNL     1      72.364  72.988 105.797  0.00  0.00    +0.000 C 
ATOM     15  C24 UNL     1      73.425  73.915 106.414  0.00  0.00    +0.000 C 
ATOM     16  C25 UNL     1      72.732  72.528 104.371  0.00  0.00    +0.000 C 
ATOM     17  C26 UNL     1      72.941  73.666 103.340  0.00  0.00    +0.000 C 
ATOM     18  C27 UNL     1      71.679  74.513 103.103  0.00  0.00    +0.000 C 
ATOM     19  C28 UNL     1      73.457  73.083 102.048  0.00  0.00    +0.000 C 
ATOM     20  C29 UNL     1      72.733  72.246 101.291  0.00  0.00    +0.000 C 
ATOM     21  C30 UNL     1      73.286  71.541 100.121  0.00  0.00    +0.000 C 
ATOM     22  C31 UNL     1      74.569  71.157 100.057  0.00  0.00    +0.000 C 
ATOM     23  C32 UNL     1      75.085  70.341  98.945  0.00  0.00    +0.000 C 
ATOM     24  C33 UNL     1      75.054  70.708  97.647  0.00  0.00    +0.000 C 
ATOM     25  C34 UNL     1      74.549  72.064  97.222  0.00  0.00    +0.000 C 
ATOM     26  C35 UNL     1      75.729  69.804  96.628  0.00  0.00    +0.000 C 
ATOM     27  C36 UNL     1      77.210  70.229  96.444  0.00  0.00    +0.000 C 
ATOM     28  C37 UNL     1      78.186  69.040  96.397  0.00  0.00    +0.000 C 
ATOM     29  C38 UNL     1      77.941  68.161  95.152  0.00  0.00    +0.000 C 
ATOM     30  C39 UNL     1      78.961  67.022  95.086  0.00  0.00    +0.000 C 
ATOM     31  C40 UNL     1      79.458  66.602  96.489  0.00  0.00    +0.000 C 
ATOM     32  C41 UNL     1      79.882  65.119  96.468  0.00  0.00    +0.000 C 
ATOM     33  C42 UNL     1      78.393  66.947  97.592  0.00  0.00    +0.000 C 
ATOM     34  O8  UNL     1      78.111  68.344  97.641  0.00  0.00    +0.000 OA
ATOM     35  C43 UNL     1      78.897  66.584  98.985  0.00  0.00    +0.000 C 
ATOM     36  O9  UNL     1      80.136  66.581  99.223  0.00  0.00    +0.000 OA
ATOM     37  C44 UNL     1      77.965  66.312 100.098  0.00  0.00    +0.000 C 
ATOM     38  O10 UNL     1      76.793  66.773 100.081  0.00  0.00    +0.000 OA
ATOM     39  N1  UNL     1      78.403  65.537 101.218  0.00  0.00    +0.000 N 
ATOM     40  C45 UNL     1      78.445  64.077 101.095  0.00  0.00    +0.000 C 
ATOM     41  C46 UNL     1      79.903  63.580 101.077  0.00  0.00    +0.000 C 
ATOM     42  C47 UNL     1      80.857  64.449 101.930  0.00  0.00    +0.000 C 
ATOM     43  C48 UNL     1      80.110  65.254 103.001  0.00  0.00    +0.000 C 
ATOM     44  C49 UNL     1      79.078  66.198 102.347  0.00  0.00    +0.000 C 
ATOM     45  C50 UNL     1      78.073  66.642 103.372  0.00  0.00    +0.000 C 
ATOM     46  O11 UNL     1      78.187  67.778 103.908  0.00  0.00    +0.000 OA
ATOM     47  O12 UNL     1      77.090  65.745 103.803  0.00  0.00    +0.000 OA
ENDROOT
BRANCH   1  48
ATOM     48  C9  UNL     1      75.858  64.572 105.552  0.00  0.00    +0.000 C 
ATOM     49  C10 UNL     1      75.890  63.475 104.465  0.00  0.00    +0.000 C 
BRANCH  48  50
ATOM     50  C8  UNL     1      76.776  64.114 106.731  0.00  0.00    +0.000 C 
BRANCH  50  53
ATOM     51  C2  UNL     1      74.564  62.025 109.311  0.00  0.00    +0.000 C 
ATOM     52  C3  UNL     1      75.392  62.313 108.025  0.00  0.00    +0.000 C 
ATOM     53  C4  UNL     1      76.146  63.666 108.079  0.00  0.00    +0.000 C 
ATOM     54  C5  UNL     1      75.296  64.723 108.803  0.00  0.00    +0.000 C 
ATOM     55  C6  UNL     1      75.098  64.337 110.284  0.00  0.00    +0.000 C 
ATOM     56  C7  UNL     1      75.103  62.804 110.529  0.00  0.00    +0.000 C 
BRANCH  51  58
ATOM     57  C1  UNL     1      72.814  62.109 107.769  0.00  0.00    +0.000 C 
ATOM     58  O1  UNL     1      73.210  62.402 109.091  0.00  0.00    +0.000 OA
ENDBRANCH  51  58
BRANCH  56  59
ATOM     59  O2  UNL     1      74.334  62.494 111.662  0.00  0.00    +0.000 OA
ATOM     60  H13 UNL     1      74.157  61.518 111.631  0.00  0.00    +0.000 HD
ENDBRANCH  56  59
ENDBRANCH  50  53
ENDBRANCH  48  50
ENDBRANCH   1  48
BRANCH  10  61
ATOM     61  O4  UNL     1      69.122  69.577 106.879  0.00  0.00    +0.000 OA
ATOM     62  H32 UNL     1      69.155  69.205 107.800  0.00  0.00    +0.000 HD
ENDBRANCH  10  61
BRANCH  11  63
ATOM     63  O5  UNL     1      69.811  72.237 106.848  0.00  0.00    +0.000 OA
ATOM     64  C21 UNL     1      69.483  73.033 107.970  0.00  0.00    +0.000 C 
ENDBRANCH  11  63
BRANCH  33  65
ATOM     65  O7  UNL     1      77.186  66.264  97.324  0.00  0.00    +0.000 OA
ATOM     66  H67 UNL     1      77.308  65.309  97.574  0.00  0.00    +0.000 HD
ENDBRANCH  33  65
BRANCH  26  67
ATOM     67  O13 UNL     1      75.064  69.877  95.375  0.00  0.00    +0.000 OA
ATOM     68  C51 UNL     1      74.093  68.856  95.267  0.00  0.00    +0.000 C 
ENDBRANCH  26  67
TORSDOF 9
ENDMDL
MODEL 16
REMARK VINA RESULT:      -7.6      2.865      9.836
REMARK  Name = ./S1039.pdb
REMARK  19 active torsions:
REMARK  status: ('A' for Active; 'I' for Inactive)
REMARK    1  A    between atoms: C1_1  and  O1_2
REMARK    2  A    between atoms: O1_2  and  C2_3
REMARK    3  A    between atoms: C4_5  and  C8_10
REMARK    4  A    between atoms: C7_8  and  O2_9
REMARK    5  A    between atoms: C8_10  and  C9_11
REMARK    6  A    between atoms: C9_11  and  C10_12
REMARK    7  A    between atoms: C9_11  and  C11_13
REMARK    8  A    between atoms: C14_17  and  C15_18
REMARK    9  A    between atoms: C17_20  and  C18_21
REMARK   10  A    between atoms: C19_22  and  O4_23
REMARK   11  A    between atoms: C20_24  and  O5_25
REMARK   12  A    between atoms: O5_25  and  C21_26
REMARK   13  A    between atoms: C23_29  and  C24_30
REMARK   14  A    between atoms: C26_32  and  C27_33
REMARK   15  A    between atoms: C33_39  and  C34_40
REMARK   16  A    between atoms: C35_41  and  O13_64
REMARK   17  A    between atoms: C40_46  and  C41_47
REMARK   18  A    between atoms: C42_48  and  O7_49
REMARK   19  A    between atoms: O13_64  and  C51_65
REMARK                            x       y       z     vdW  Elec       q    Type
REMARK                         _______ _______ _______ _____ _____    ______ ____
ROOT
ATOM      1  C11 UNL     1      77.687  64.720 103.516  0.00  0.00    +0.000 C 
ATOM      2  C12 UNL     1      76.408  65.588 103.428  0.00  0.00    +0.000 C 
ATOM      3  C13 UNL     1      75.632  65.629 104.728  0.00  0.00    +0.000 C 
ATOM      4  O3  UNL     1      76.185  66.054 105.735  0.00  0.00    +0.000 OA
ATOM      5  C14 UNL     1      74.195  65.155 104.799  0.00  0.00    +0.000 C 
ATOM      6  C15 UNL     1      74.032  63.939 105.727  0.00  0.00    +0.000 C 
ATOM      7  C16 UNL     1      73.228  66.306 105.053  0.00  0.00    +0.000 C 
ATOM      8  C17 UNL     1      72.870  66.874 106.238  0.00  0.00    +0.000 C 
ATOM      9  C18 UNL     1      73.365  66.347 107.568  0.00  0.00    +0.000 C 
ATOM     10  C19 UNL     1      71.812  67.987 106.220  0.00  0.00    +0.000 C 
ATOM     11  C20 UNL     1      72.183  69.273 107.005  0.00  0.00    +0.000 C 
ATOM     12  C22 UNL     1      73.438  69.908 106.431  0.00  0.00    +0.000 C 
ATOM     13  O6  UNL     1      74.501  69.316 106.560  0.00  0.00    +0.000 OA
ATOM     14  C23 UNL     1      73.431  71.248 105.708  0.00  0.00    +0.000 C 
ATOM     15  C24 UNL     1      74.493  72.175 106.325  0.00  0.00    +0.000 C 
ATOM     16  C25 UNL     1      73.659  71.002 104.201  0.00  0.00    +0.000 C 
ATOM     17  C26 UNL     1      73.666  72.275 103.316  0.00  0.00    +0.000 C 
ATOM     18  C27 UNL     1      72.331  73.038 103.333  0.00  0.00    +0.000 C 
ATOM     19  C28 UNL     1      74.065  71.903 101.909  0.00  0.00    +0.000 C 
ATOM     20  C29 UNL     1      73.314  71.111 101.129  0.00  0.00    +0.000 C 
ATOM     21  C30 UNL     1      73.771  70.607  99.823  0.00  0.00    +0.000 C 
ATOM     22  C31 UNL     1      75.060  70.341  99.568  0.00  0.00    +0.000 C 
ATOM     23  C32 UNL     1      75.495  69.717  98.307  0.00  0.00    +0.000 C 
ATOM     24  C33 UNL     1      75.285  70.240  97.081  0.00  0.00    +0.000 C 
ATOM     25  C34 UNL     1      74.643  71.593  96.900  0.00  0.00    +0.000 C 
ATOM     26  C35 UNL     1      75.895  69.530  95.883  0.00  0.00    +0.000 C 
ATOM     27  C36 UNL     1      77.311  70.096  95.598  0.00  0.00    +0.000 C 
ATOM     28  C37 UNL     1      78.353  69.007  95.286  0.00  0.00    +0.000 C 
ATOM     29  C38 UNL     1      78.023  68.274  93.969  0.00  0.00    +0.000 C 
ATOM     30  C39 UNL     1      79.102  67.241  93.640  0.00  0.00    +0.000 C 
ATOM     31  C40 UNL     1      79.789  66.690  94.911  0.00  0.00    +0.000 C 
ATOM     32  C41 UNL     1      80.307  65.261  94.645  0.00  0.00    +0.000 C 
ATOM     33  C42 UNL     1      78.841  66.805  96.160  0.00  0.00    +0.000 C 
ATOM     34  O8  UNL     1      78.473  68.156  96.426  0.00  0.00    +0.000 OA
ATOM     35  C43 UNL     1      79.530  66.312  97.428  0.00  0.00    +0.000 C 
ATOM     36  O9  UNL     1      80.786  66.381  97.527  0.00  0.00    +0.000 OA
ATOM     37  C44 UNL     1      78.757  65.826  98.589  0.00  0.00    +0.000 C 
ATOM     38  O10 UNL     1      77.563  66.188  98.762  0.00  0.00    +0.000 OA
ATOM     39  N1  UNL     1      79.376  64.956  99.540  0.00  0.00    +0.000 N 
ATOM     40  C45 UNL     1      79.502  63.531  99.219  0.00  0.00    +0.000 C 
ATOM     41  C46 UNL     1      80.978  63.163  98.977  0.00  0.00    +0.000 C 
ATOM     42  C47 UNL     1      81.965  63.993  99.829  0.00  0.00    +0.000 C 
ATOM     43  C48 UNL     1      81.297  64.592 101.073  0.00  0.00    +0.000 C 
ATOM     44  C49 UNL     1      80.134  65.523 100.668  0.00  0.00    +0.000 C 
ATOM     45  C50 UNL     1      79.229  65.750 101.847  0.00  0.00    +0.000 C 
ATOM     46  O11 UNL     1      79.329  66.816 102.515  0.00  0.00    +0.000 OA
ATOM     47  O12 UNL     1      78.368  64.728 102.258  0.00  0.00    +0.000 OA
ENDROOT
BRANCH   1  48
ATOM     48  C9  UNL     1      77.434  63.247 103.956  0.00  0.00    +0.000 C 
ATOM     49  C10 UNL     1      77.576  62.281 102.759  0.00  0.00    +0.000 C 
BRANCH  48  50
ATOM     50  C8  UNL     1      78.413  62.776 105.080  0.00  0.00    +0.000 C 
BRANCH  50  53
ATOM     51  C2  UNL     1      82.232  61.636 105.268  0.00  0.00    +0.000 C 
ATOM     52  C3  UNL     1      80.682  61.496 105.305  0.00  0.00    +0.000 C 
ATOM     53  C4  UNL     1      79.947  62.773 104.824  0.00  0.00    +0.000 C 
ATOM     54  C5  UNL     1      80.702  64.031 105.281  0.00  0.00    +0.000 C 
ATOM     55  C6  UNL     1      82.086  64.109 104.601  0.00  0.00    +0.000 C 
ATOM     56  C7  UNL     1      82.688  62.717 104.267  0.00  0.00    +0.000 C 
BRANCH  51  58
ATOM     57  C1  UNL     1      83.078  60.838 107.292  0.00  0.00    +0.000 C 
ATOM     58  O1  UNL     1      82.702  61.986 106.564  0.00  0.00    +0.000 OA
ENDBRANCH  51  58
BRANCH  56  59
ATOM     59  O2  UNL     1      84.090  62.788 104.259  0.00  0.00    +0.000 OA
ATOM     60  H13 UNL     1      84.425  61.854 104.296  0.00  0.00    +0.000 HD
ENDBRANCH  56  59
ENDBRANCH  50  53
ENDBRANCH  48  50
ENDBRANCH   1  48
BRANCH  10  61
ATOM     61  O4  UNL     1      70.580  67.472 106.668  0.00  0.00    +0.000 OA
ATOM     62  H32 UNL     1      70.757  66.588 107.086  0.00  0.00    +0.000 HD
ENDBRANCH  10  61
BRANCH  11  63
ATOM     63  O5  UNL     1      71.078  70.163 106.919  0.00  0.00    +0.000 OA
ATOM     64  C21 UNL     1      71.006  70.987 108.066  0.00  0.00    +0.000 C 
ENDBRANCH  11  63
BRANCH  33  65
ATOM     65  O7  UNL     1      77.660  66.064  95.936  0.00  0.00    +0.000 OA
ATOM     66  H67 UNL     1      77.701  65.239  96.491  0.00  0.00    +0.000 HD
ENDBRANCH  33  65
BRANCH  26  67
ATOM     67  O13 UNL     1      75.082  69.705  94.731  0.00  0.00    +0.000 OA
ATOM     68  C51 UNL     1      73.876  68.979  94.858  0.00  0.00    +0.000 C 
ENDBRANCH  26  67
TORSDOF 9
ENDMDL
MODEL 17
REMARK VINA RESULT:      -7.5      6.800     14.795
REMARK  Name = ./S1039.pdb
REMARK  19 active torsions:
REMARK  status: ('A' for Active; 'I' for Inactive)
REMARK    1  A    between atoms: C1_1  and  O1_2
REMARK    2  A    between atoms: O1_2  and  C2_3
REMARK    3  A    between atoms: C4_5  and  C8_10
REMARK    4  A    between atoms: C7_8  and  O2_9
REMARK    5  A    between atoms: C8_10  and  C9_11
REMARK    6  A    between atoms: C9_11  and  C10_12
REMARK    7  A    between atoms: C9_11  and  C11_13
REMARK    8  A    between atoms: C14_17  and  C15_18
REMARK    9  A    between atoms: C17_20  and  C18_21
REMARK   10  A    between atoms: C19_22  and  O4_23
REMARK   11  A    between atoms: C20_24  and  O5_25
REMARK   12  A    between atoms: O5_25  and  C21_26
REMARK   13  A    between atoms: C23_29  and  C24_30
REMARK   14  A    between atoms: C26_32  and  C27_33
REMARK   15  A    between atoms: C33_39  and  C34_40
REMARK   16  A    between atoms: C35_41  and  O13_64
REMARK   17  A    between atoms: C40_46  and  C41_47
REMARK   18  A    between atoms: C42_48  and  O7_49
REMARK   19  A    between atoms: O13_64  and  C51_65
REMARK                            x       y       z     vdW  Elec       q    Type
REMARK                         _______ _______ _______ _____ _____    ______ ____
ROOT
ATOM      1  C11 UNL     1      72.183  59.507 100.744  0.00  0.00    +0.000 C 
ATOM      2  C12 UNL     1      73.195  58.336 100.693  0.00  0.00    +0.000 C 
ATOM      3  C13 UNL     1      74.021  58.215 101.957  0.00  0.00    +0.000 C 
ATOM      4  O3  UNL     1      73.448  58.038 103.025  0.00  0.00    +0.000 OA
ATOM      5  C14 UNL     1      75.532  58.309 101.918  0.00  0.00    +0.000 C 
ATOM      6  C15 UNL     1      76.057  59.522 102.706  0.00  0.00    +0.000 C 
ATOM      7  C16 UNL     1      76.195  56.977 102.249  0.00  0.00    +0.000 C 
ATOM      8  C17 UNL     1      76.477  56.445 103.471  0.00  0.00    +0.000 C 
ATOM      9  C18 UNL     1      76.221  57.200 104.758  0.00  0.00    +0.000 C 
ATOM     10  C19 UNL     1      77.220  55.101 103.524  0.00  0.00    +0.000 C 
ATOM     11  C20 UNL     1      76.591  54.030 104.454  0.00  0.00    +0.000 C 
ATOM     12  C22 UNL     1      75.181  53.688 104.003  0.00  0.00    +0.000 C 
ATOM     13  O6  UNL     1      74.312  54.542 104.114  0.00  0.00    +0.000 OA
ATOM     14  C23 UNL     1      74.803  52.332 103.423  0.00  0.00    +0.000 C 
ATOM     15  C24 UNL     1      73.587  51.767 104.178  0.00  0.00    +0.000 C 
ATOM     16  C25 UNL     1      74.545  52.491 101.910  0.00  0.00    +0.000 C 
ATOM     17  C26 UNL     1      74.159  51.188 101.163  0.00  0.00    +0.000 C 
ATOM     18  C27 UNL     1      75.258  50.113 101.204  0.00  0.00    +0.000 C 
ATOM     19  C28 UNL     1      73.773  51.521  99.744  0.00  0.00    +0.000 C 
ATOM     20  C29 UNL     1      74.644  52.020  98.855  0.00  0.00    +0.000 C 
ATOM     21  C30 UNL     1      74.241  52.505  97.523  0.00  0.00    +0.000 C 
ATOM     22  C31 UNL     1      73.046  53.068  97.296  0.00  0.00    +0.000 C 
ATOM     23  C32 UNL     1      72.698  53.666  95.997  0.00  0.00    +0.000 C 
ATOM     24  C33 UNL     1      72.686  52.998  94.824  0.00  0.00    +0.000 C 
ATOM     25  C34 UNL     1      72.956  51.516  94.758  0.00  0.00    +0.000 C 
ATOM     26  C35 UNL     1      72.195  53.730  93.586  0.00  0.00    +0.000 C 
ATOM     27  C36 UNL     1      70.667  53.523  93.421  0.00  0.00    +0.000 C 
ATOM     28  C37 UNL     1      69.913  54.809  93.041  0.00  0.00    +0.000 C 
ATOM     29  C38 UNL     1      70.327  55.311  91.641  0.00  0.00    +0.000 C 
ATOM     30  C39 UNL     1      69.522  56.552  91.252  0.00  0.00    +0.000 C 
ATOM     31  C40 UNL     1      69.081  57.373  92.487  0.00  0.00    +0.000 C 
ATOM     32  C41 UNL     1      68.921  58.857  92.095  0.00  0.00    +0.000 C 
ATOM     33  C42 UNL     1      70.052  57.133  93.700  0.00  0.00    +0.000 C 
ATOM     34  O8  UNL     1      70.087  55.761  94.090  0.00  0.00    +0.000 OA
ATOM     35  C43 UNL     1      69.595  57.897  94.937  0.00  0.00    +0.000 C 
ATOM     36  O9  UNL     1      68.371  58.161  95.096  0.00  0.00    +0.000 OA
ATOM     37  C44 UNL     1      70.542  58.272  96.008  0.00  0.00    +0.000 C 
ATOM     38  O10 UNL     1      71.616  57.634  96.167  0.00  0.00    +0.000 OA
ATOM     39  N1  UNL     1      70.226  59.354  96.889  0.00  0.00    +0.000 N 
ATOM     40  C45 UNL     1      70.439  60.728  96.426  0.00  0.00    +0.000 C 
ATOM     41  C46 UNL     1      69.090  61.439  96.209  0.00  0.00    +0.000 C 
ATOM     42  C47 UNL     1      67.986  60.970  97.184  0.00  0.00    +0.000 C 
ATOM     43  C48 UNL     1      68.564  60.334  98.455  0.00  0.00    +0.000 C 
ATOM     44  C49 UNL     1      69.427  59.103  98.100  0.00  0.00    +0.000 C 
ATOM     45  C50 UNL     1      70.323  58.759  99.257  0.00  0.00    +0.000 C 
ATOM     46  O11 UNL     1      70.005  57.820 100.037  0.00  0.00    +0.000 OA
ATOM     47  O12 UNL     1      71.439  59.560  99.523  0.00  0.00    +0.000 OA
ENDROOT
BRANCH   1  48
ATOM     48  C9  UNL     1      72.826  60.900 101.017  0.00  0.00    +0.000 C 
ATOM     49  C10 UNL     1      73.469  61.472  99.734  0.00  0.00    +0.000 C 
BRANCH  48  50
ATOM     50  C8  UNL     1      71.796  61.945 101.553  0.00  0.00    +0.000 C 
BRANCH  50  53
ATOM     51  C2  UNL     1      72.093  61.321 105.482  0.00  0.00    +0.000 C 
ATOM     52  C3  UNL     1      72.448  61.198 103.972  0.00  0.00    +0.000 C 
ATOM     53  C4  UNL     1      71.667  62.198 103.081  0.00  0.00    +0.000 C 
ATOM     54  C5  UNL     1      70.236  62.381 103.610  0.00  0.00    +0.000 C 
ATOM     55  C6  UNL     1      70.254  63.045 105.003  0.00  0.00    +0.000 C 
ATOM     56  C7  UNL     1      71.527  62.715 105.828  0.00  0.00    +0.000 C 
BRANCH  51  58
ATOM     57  C1  UNL     1      71.732  59.099 106.098  0.00  0.00    +0.000 C 
ATOM     58  O1  UNL     1      71.120  60.339 105.817  0.00  0.00    +0.000 OA
ENDBRANCH  51  58
BRANCH  56  59
ATOM     59  O2  UNL     1      71.242  62.779 107.201  0.00  0.00    +0.000 OA
ATOM     60  H13 UNL     1      70.540  63.472 107.317  0.00  0.00    +0.000 HD
ENDBRANCH  56  59
ENDBRANCH  50  53
ENDBRANCH  48  50
ENDBRANCH   1  48
BRANCH  10  61
ATOM     61  O4  UNL     1      78.569  55.323 103.864  0.00  0.00    +0.000 OA
ATOM     62  H32 UNL     1      79.007  55.758 103.086  0.00  0.00    +0.000 HD
ENDBRANCH  10  61
BRANCH  11  63
ATOM     63  O5  UNL     1      77.429  52.883 104.415  0.00  0.00    +0.000 OA
ATOM     64  C21 UNL     1      77.511  52.276 105.689  0.00  0.00    +0.000 C 
ENDBRANCH  11  63
BRANCH  33  65
ATOM     65  O7  UNL     1      71.363  57.523  93.350  0.00  0.00    +0.000 OA
ATOM     66  H67 UNL     1      71.541  58.413  93.759  0.00  0.00    +0.000 HD
ENDBRANCH  33  65
BRANCH  26  67
ATOM     67  O13 UNL     1      72.859  53.250  92.425  0.00  0.00    +0.000 OA
ATOM     68  C51 UNL     1      73.886  54.140  92.035  0.00  0.00    +0.000 C 
ENDBRANCH  26  67
TORSDOF 9
ENDMDL
MODEL 18
REMARK VINA RESULT:      -7.5      2.377      6.204
REMARK  Name = ./S1039.pdb
REMARK  19 active torsions:
REMARK  status: ('A' for Active; 'I' for Inactive)
REMARK    1  A    between atoms: C1_1  and  O1_2
REMARK    2  A    between atoms: O1_2  and  C2_3
REMARK    3  A    between atoms: C4_5  and  C8_10
REMARK    4  A    between atoms: C7_8  and  O2_9
REMARK    5  A    between atoms: C8_10  and  C9_11
REMARK    6  A    between atoms: C9_11  and  C10_12
REMARK    7  A    between atoms: C9_11  and  C11_13
REMARK    8  A    between atoms: C14_17  and  C15_18
REMARK    9  A    between atoms: C17_20  and  C18_21
REMARK   10  A    between atoms: C19_22  and  O4_23
REMARK   11  A    between atoms: C20_24  and  O5_25
REMARK   12  A    between atoms: O5_25  and  C21_26
REMARK   13  A    between atoms: C23_29  and  C24_30
REMARK   14  A    between atoms: C26_32  and  C27_33
REMARK   15  A    between atoms: C33_39  and  C34_40
REMARK   16  A    between atoms: C35_41  and  O13_64
REMARK   17  A    between atoms: C40_46  and  C41_47
REMARK   18  A    between atoms: C42_48  and  O7_49
REMARK   19  A    between atoms: O13_64  and  C51_65
REMARK                            x       y       z     vdW  Elec       q    Type
REMARK                         _______ _______ _______ _____ _____    ______ ____
ROOT
ATOM      1  C11 UNL     1      78.086  65.547  99.515  0.00  0.00    +0.000 C 
ATOM      2  C12 UNL     1      77.619  66.853 100.203  0.00  0.00    +0.000 C 
ATOM      3  C13 UNL     1      77.990  68.097  99.422  0.00  0.00    +0.000 C 
ATOM      4  O3  UNL     1      77.573  68.224  98.278  0.00  0.00    +0.000 OA
ATOM      5  C14 UNL     1      78.862  69.175 100.032  0.00  0.00    +0.000 C 
ATOM      6  C15 UNL     1      80.193  69.336  99.278  0.00  0.00    +0.000 C 
ATOM      7  C16 UNL     1      78.086  70.465 100.274  0.00  0.00    +0.000 C 
ATOM      8  C17 UNL     1      77.821  71.477  99.402  0.00  0.00    +0.000 C 
ATOM      9  C18 UNL     1      78.369  71.492  97.991  0.00  0.00    +0.000 C 
ATOM     10  C19 UNL     1      77.069  72.709  99.927  0.00  0.00    +0.000 C 
ATOM     11  C20 UNL     1      75.857  73.165  99.072  0.00  0.00    +0.000 C 
ATOM     12  C22 UNL     1      74.813  72.064  98.993  0.00  0.00    +0.000 C 
ATOM     13  O6  UNL     1      75.086  71.046  98.374  0.00  0.00    +0.000 OA
ATOM     14  C23 UNL     1      73.442  72.176  99.647  0.00  0.00    +0.000 C 
ATOM     15  C24 UNL     1      72.348  71.865  98.612  0.00  0.00    +0.000 C 
ATOM     16  C25 UNL     1      73.393  71.231 100.868  0.00  0.00    +0.000 C 
ATOM     17  C26 UNL     1      72.059  71.236 101.657  0.00  0.00    +0.000 C 
ATOM     18  C27 UNL     1      71.723  72.603 102.277  0.00  0.00    +0.000 C 
ATOM     19  C28 UNL     1      72.095  70.154 102.707  0.00  0.00    +0.000 C 
ATOM     20  C29 UNL     1      72.949  70.176 103.741  0.00  0.00    +0.000 C 
ATOM     21  C30 UNL     1      73.108  69.047 104.673  0.00  0.00    +0.000 C 
ATOM     22  C31 UNL     1      72.953  67.772 104.288  0.00  0.00    +0.000 C 
ATOM     23  C32 UNL     1      73.238  66.644 105.190  0.00  0.00    +0.000 C 
ATOM     24  C33 UNL     1      72.627  66.436 106.375  0.00  0.00    +0.000 C 
ATOM     25  C34 UNL     1      71.505  67.325 106.850  0.00  0.00    +0.000 C 
ATOM     26  C35 UNL     1      72.953  65.162 107.138  0.00  0.00    +0.000 C 
ATOM     27  C36 UNL     1      71.969  64.035 106.728  0.00  0.00    +0.000 C 
ATOM     28  C37 UNL     1      72.655  62.676 106.503  0.00  0.00    +0.000 C 
ATOM     29  C38 UNL     1      73.256  62.125 107.814  0.00  0.00    +0.000 C 
ATOM     30  C39 UNL     1      73.877  60.746 107.586  0.00  0.00    +0.000 C 
ATOM     31  C40 UNL     1      74.383  60.566 106.135  0.00  0.00    +0.000 C 
ATOM     32  C41 UNL     1      75.549  59.556 106.113  0.00  0.00    +0.000 C 
ATOM     33  C42 UNL     1      74.726  61.954 105.481  0.00  0.00    +0.000 C 
ATOM     34  O8  UNL     1      73.590  62.815 105.432  0.00  0.00    +0.000 OA
ATOM     35  C43 UNL     1      75.176  61.790 104.033  0.00  0.00    +0.000 C 
ATOM     36  O9  UNL     1      74.763  60.809 103.355  0.00  0.00    +0.000 OA
ATOM     37  C44 UNL     1      76.025  62.800 103.368  0.00  0.00    +0.000 C 
ATOM     38  O10 UNL     1      76.051  63.989 103.782  0.00  0.00    +0.000 OA
ATOM     39  N1  UNL     1      76.808  62.430 102.230  0.00  0.00    +0.000 N 
ATOM     40  C45 UNL     1      78.074  61.723 102.440  0.00  0.00    +0.000 C 
ATOM     41  C46 UNL     1      77.964  60.265 101.956  0.00  0.00    +0.000 C 
ATOM     42  C47 UNL     1      77.016  60.092 100.747  0.00  0.00    +0.000 C 
ATOM     43  C48 UNL     1      76.819  61.399  99.969  0.00  0.00    +0.000 C 
ATOM     44  C49 UNL     1      76.214  62.486 100.884  0.00  0.00    +0.000 C 
ATOM     45  C50 UNL     1      76.427  63.842 100.272  0.00  0.00    +0.000 C 
ATOM     46  O11 UNL     1      75.486  64.401  99.645  0.00  0.00    +0.000 OA
ATOM     47  O12 UNL     1      77.702  64.417 100.305  0.00  0.00    +0.000 OA
ENDROOT
BRANCH   1  48
ATOM     48  C9  UNL     1      79.617  65.482  99.232  0.00  0.00    +0.000 C 
ATOM     49  C10 UNL     1      80.374  64.860 100.427  0.00  0.00    +0.000 C 
BRANCH  48  50
ATOM     50  C8  UNL     1      79.959  64.651  97.954  0.00  0.00    +0.000 C 
BRANCH  50  53
ATOM     51  C2  UNL     1      80.742  67.624  95.411  0.00  0.00    +0.000 C 
ATOM     52  C3  UNL     1      80.555  66.911  96.782  0.00  0.00    +0.000 C 
ATOM     53  C4  UNL     1      80.400  65.374  96.650  0.00  0.00    +0.000 C 
ATOM     54  C5  UNL     1      79.596  65.023  95.388  0.00  0.00    +0.000 C 
ATOM     55  C6  UNL     1      80.371  65.438  94.119  0.00  0.00    +0.000 C 
ATOM     56  C7  UNL     1      81.297  66.666  94.336  0.00  0.00    +0.000 C 
BRANCH  51  58
ATOM     57  C1  UNL     1      79.454  69.535  95.050  0.00  0.00    +0.000 C 
ATOM     58  O1  UNL     1      79.488  68.128  94.969  0.00  0.00    +0.000 OA
ENDBRANCH  51  58
BRANCH  56  59
ATOM     59  O2  UNL     1      81.465  67.361  93.128  0.00  0.00    +0.000 OA
ATOM     60  H13 UNL     1      82.355  67.800  93.170  0.00  0.00    +0.000 HD
ENDBRANCH  56  59
ENDBRANCH  50  53
ENDBRANCH  48  50
ENDBRANCH   1  48
BRANCH  10  61
ATOM     61  O4  UNL     1      77.976  73.772 100.108  0.00  0.00    +0.000 OA
ATOM     62  H32 UNL     1      78.831  73.515  99.672  0.00  0.00    +0.000 HD
ENDBRANCH  10  61
BRANCH  11  63
ATOM     63  O5  UNL     1      75.320  74.333  99.677  0.00  0.00    +0.000 OA
ATOM     64  C21 UNL     1      75.219  75.385  98.737  0.00  0.00    +0.000 C 
ENDBRANCH  11  63
BRANCH  33  65
ATOM     65  O7  UNL     1      75.735  62.600 106.228  0.00  0.00    +0.000 OA
ATOM     66  H67 UNL     1      75.581  62.405 107.192  0.00  0.00    +0.000 HD
ENDBRANCH  33  65
BRANCH  26  67
ATOM     67  O13 UNL     1      72.856  65.380 108.539  0.00  0.00    +0.000 OA
ATOM     68  C51 UNL     1      74.134  65.602 109.097  0.00  0.00    +0.000 C 
ENDBRANCH  26  67
TORSDOF 9
ENDMDL
MODEL 19
REMARK VINA RESULT:      -7.4      2.468      9.290
REMARK  Name = ./S1039.pdb
REMARK  19 active torsions:
REMARK  status: ('A' for Active; 'I' for Inactive)
REMARK    1  A    between atoms: C1_1  and  O1_2
REMARK    2  A    between atoms: O1_2  and  C2_3
REMARK    3  A    between atoms: C4_5  and  C8_10
REMARK    4  A    between atoms: C7_8  and  O2_9
REMARK    5  A    between atoms: C8_10  and  C9_11
REMARK    6  A    between atoms: C9_11  and  C10_12
REMARK    7  A    between atoms: C9_11  and  C11_13
REMARK    8  A    between atoms: C14_17  and  C15_18
REMARK    9  A    between atoms: C17_20  and  C18_21
REMARK   10  A    between atoms: C19_22  and  O4_23
REMARK   11  A    between atoms: C20_24  and  O5_25
REMARK   12  A    between atoms: O5_25  and  C21_26
REMARK   13  A    between atoms: C23_29  and  C24_30
REMARK   14  A    between atoms: C26_32  and  C27_33
REMARK   15  A    between atoms: C33_39  and  C34_40
REMARK   16  A    between atoms: C35_41  and  O13_64
REMARK   17  A    between atoms: C40_46  and  C41_47
REMARK   18  A    between atoms: C42_48  and  O7_49
REMARK   19  A    between atoms: O13_64  and  C51_65
REMARK                            x       y       z     vdW  Elec       q    Type
REMARK                         _______ _______ _______ _____ _____    ______ ____
ROOT
ATOM      1  C11 UNL     1      72.644  71.004 102.678  0.00  0.00    +0.000 C 
ATOM      2  C12 UNL     1      73.078  70.034 101.551  0.00  0.00    +0.000 C 
ATOM      3  C13 UNL     1      73.173  70.707 100.198  0.00  0.00    +0.000 C 
ATOM      4  O3  UNL     1      73.940  71.652 100.059  0.00  0.00    +0.000 OA
ATOM      5  C14 UNL     1      72.339  70.233  99.025  0.00  0.00    +0.000 C 
ATOM      6  C15 UNL     1      71.352  71.310  98.544  0.00  0.00    +0.000 C 
ATOM      7  C16 UNL     1      73.197  69.598  97.937  0.00  0.00    +0.000 C 
ATOM      8  C17 UNL     1      73.880  70.205  96.926  0.00  0.00    +0.000 C 
ATOM      9  C18 UNL     1      73.807  71.697  96.686  0.00  0.00    +0.000 C 
ATOM     10  C19 UNL     1      74.618  69.317  95.913  0.00  0.00    +0.000 C 
ATOM     11  C20 UNL     1      76.093  69.711  95.633  0.00  0.00    +0.000 C 
ATOM     12  C22 UNL     1      76.919  69.636  96.906  0.00  0.00    +0.000 C 
ATOM     13  O6  UNL     1      76.692  70.444  97.795  0.00  0.00    +0.000 OA
ATOM     14  C23 UNL     1      78.017  68.603  97.120  0.00  0.00    +0.000 C 
ATOM     15  C24 UNL     1      79.315  69.309  97.550  0.00  0.00    +0.000 C 
ATOM     16  C25 UNL     1      77.532  67.566  98.155  0.00  0.00    +0.000 C 
ATOM     17  C26 UNL     1      78.537  66.431  98.477  0.00  0.00    +0.000 C 
ATOM     18  C27 UNL     1      78.878  65.555  97.260  0.00  0.00    +0.000 C 
ATOM     19  C28 UNL     1      78.003  65.599  99.617  0.00  0.00    +0.000 C 
ATOM     20  C29 UNL     1      76.885  64.865  99.515  0.00  0.00    +0.000 C 
ATOM     21  C30 UNL     1      76.265  64.186 100.666  0.00  0.00    +0.000 C 
ATOM     22  C31 UNL     1      76.325  64.683 101.910  0.00  0.00    +0.000 C 
ATOM     23  C32 UNL     1      75.596  64.070 103.033  0.00  0.00    +0.000 C 
ATOM     24  C33 UNL     1      75.767  62.800 103.455  0.00  0.00    +0.000 C 
ATOM     25  C34 UNL     1      76.813  61.900 102.845  0.00  0.00    +0.000 C 
ATOM     26  C35 UNL     1      75.020  62.351 104.700  0.00  0.00    +0.000 C 
ATOM     27  C36 UNL     1      75.888  62.610 105.960  0.00  0.00    +0.000 C 
ATOM     28  C37 UNL     1      75.097  63.213 107.134  0.00  0.00    +0.000 C 
ATOM     29  C38 UNL     1      74.039  62.224 107.665  0.00  0.00    +0.000 C 
ATOM     30  C39 UNL     1      73.307  62.813 108.873  0.00  0.00    +0.000 C 
ATOM     31  C40 UNL     1      73.255  64.358 108.827  0.00  0.00    +0.000 C 
ATOM     32  C41 UNL     1      72.008  64.859 109.584  0.00  0.00    +0.000 C 
ATOM     33  C42 UNL     1      73.360  64.883 107.349  0.00  0.00    +0.000 C 
ATOM     34  O8  UNL     1      74.577  64.479 106.726  0.00  0.00    +0.000 OA
ATOM     35  C43 UNL     1      73.362  66.407 107.299  0.00  0.00    +0.000 C 
ATOM     36  O9  UNL     1      73.802  67.066 108.281  0.00  0.00    +0.000 OA
ATOM     37  C44 UNL     1      72.936  67.142 106.090  0.00  0.00    +0.000 C 
ATOM     38  O10 UNL     1      72.974  66.591 104.958  0.00  0.00    +0.000 OA
ATOM     39  N1  UNL     1      72.498  68.499 106.202  0.00  0.00    +0.000 N 
ATOM     40  C45 UNL     1      71.132  68.766 106.664  0.00  0.00    +0.000 C 
ATOM     41  C46 UNL     1      71.152  69.396 108.068  0.00  0.00    +0.000 C 
ATOM     42  C47 UNL     1      72.388  70.290 108.321  0.00  0.00    +0.000 C 
ATOM     43  C48 UNL     1      73.025  70.786 107.017  0.00  0.00    +0.000 C 
ATOM     44  C49 UNL     1      73.482  69.592 106.150  0.00  0.00    +0.000 C 
ATOM     45  C50 UNL     1      73.689  70.044 104.732  0.00  0.00    +0.000 C 
ATOM     46  O11 UNL     1      74.856  70.286 104.317  0.00  0.00    +0.000 OA
ATOM     47  O12 UNL     1      72.577  70.303 103.924  0.00  0.00    +0.000 OA
ENDROOT
BRANCH   1  48
ATOM     48  C9  UNL     1      71.288  71.725 102.418  0.00  0.00    +0.000 C 
ATOM     49  C10 UNL     1      70.107  70.734 102.516  0.00  0.00    +0.000 C 
BRANCH  48  50
ATOM     50  C8  UNL     1      71.025  72.895 103.421  0.00  0.00    +0.000 C 
BRANCH  50  53
ATOM     51  C2  UNL     1      68.020  74.130 105.737  0.00  0.00    +0.000 C 
ATOM     52  C3  UNL     1      69.055  74.169 104.575  0.00  0.00    +0.000 C 
ATOM     53  C4  UNL     1      69.813  72.829 104.392  0.00  0.00    +0.000 C 
ATOM     54  C5  UNL     1      70.086  72.178 105.757  0.00  0.00    +0.000 C 
ATOM     55  C6  UNL     1      68.761  71.777 106.441  0.00  0.00    +0.000 C 
ATOM     56  C7  UNL     1      67.566  72.689 106.054  0.00  0.00    +0.000 C 
BRANCH  51  58
ATOM     57  C1  UNL     1      69.341  75.853 106.592  0.00  0.00    +0.000 C 
ATOM     58  O1  UNL     1      68.605  74.691 106.905  0.00  0.00    +0.000 OA
ENDBRANCH  51  58
BRANCH  56  59
ATOM     59  O2  UNL     1      66.622  72.713 107.093  0.00  0.00    +0.000 OA
ATOM     60  H13 UNL     1      65.929  72.039 106.866  0.00  0.00    +0.000 HD
ENDBRANCH  56  59
ENDBRANCH  50  53
ENDBRANCH  48  50
ENDBRANCH   1  48
BRANCH  10  61
ATOM     61  O4  UNL     1      73.884  69.261  94.713  0.00  0.00    +0.000 OA
ATOM     62  H32 UNL     1      74.510  68.996  93.989  0.00  0.00    +0.000 HD
ENDBRANCH  10  61
BRANCH  11  63
ATOM     63  O5  UNL     1      76.596  68.819  94.647  0.00  0.00    +0.000 OA
ATOM     64  C21 UNL     1      77.471  69.490  93.762  0.00  0.00    +0.000 C 
ENDBRANCH  11  63
BRANCH  33  65
ATOM     65  O7  UNL     1      72.286  64.378 106.583  0.00  0.00    +0.000 OA
ATOM     66  H67 UNL     1      72.129  63.433 106.853  0.00  0.00    +0.000 HD
ENDBRANCH  33  65
BRANCH  26  67
ATOM     67  O13 UNL     1      74.710  60.966 104.625  0.00  0.00    +0.000 OA
ATOM     68  C51 UNL     1      75.663  60.203 105.337  0.00  0.00    +0.000 C 
ENDBRANCH  26  67
TORSDOF 9
ENDMDL
MODEL 20
REMARK VINA RESULT:      -7.3      3.575      6.434
REMARK  Name = ./S1039.pdb
REMARK  19 active torsions:
REMARK  status: ('A' for Active; 'I' for Inactive)
REMARK    1  A    between atoms: C1_1  and  O1_2
REMARK    2  A    between atoms: O1_2  and  C2_3
REMARK    3  A    between atoms: C4_5  and  C8_10
REMARK    4  A    between atoms: C7_8  and  O2_9
REMARK    5  A    between atoms: C8_10  and  C9_11
REMARK    6  A    between atoms: C9_11  and  C10_12
REMARK    7  A    between atoms: C9_11  and  C11_13
REMARK    8  A    between atoms: C14_17  and  C15_18
REMARK    9  A    between atoms: C17_20  and  C18_21
REMARK   10  A    between atoms: C19_22  and  O4_23
REMARK   11  A    between atoms: C20_24  and  O5_25
REMARK   12  A    between atoms: O5_25  and  C21_26
REMARK   13  A    between atoms: C23_29  and  C24_30
REMARK   14  A    between atoms: C26_32  and  C27_33
REMARK   15  A    between atoms: C33_39  and  C34_40
REMARK   16  A    between atoms: C35_41  and  O13_64
REMARK   17  A    between atoms: C40_46  and  C41_47
REMARK   18  A    between atoms: C42_48  and  O7_49
REMARK   19  A    between atoms: O13_64  and  C51_65
REMARK                            x       y       z     vdW  Elec       q    Type
REMARK                         _______ _______ _______ _____ _____    ______ ____
ROOT
ATOM      1  C11 UNL     1      75.576  64.311 106.969  0.00  0.00    +0.000 C 
ATOM      2  C12 UNL     1      76.737  64.951 106.169  0.00  0.00    +0.000 C 
ATOM      3  C13 UNL     1      77.938  64.037 106.038  0.00  0.00    +0.000 C 
ATOM      4  O3  UNL     1      77.796  62.948 105.496  0.00  0.00    +0.000 OA
ATOM      5  C14 UNL     1      79.297  64.448 106.564  0.00  0.00    +0.000 C 
ATOM      6  C15 UNL     1      79.785  63.523 107.693  0.00  0.00    +0.000 C 
ATOM      7  C16 UNL     1      80.295  64.687 105.437  0.00  0.00    +0.000 C 
ATOM      8  C17 UNL     1      81.067  63.781 104.774  0.00  0.00    +0.000 C 
ATOM      9  C18 UNL     1      81.095  62.316 105.152  0.00  0.00    +0.000 C 
ATOM     10  C19 UNL     1      82.050  64.302 103.715  0.00  0.00    +0.000 C 
ATOM     11  C20 UNL     1      82.000  63.573 102.345  0.00  0.00    +0.000 C 
ATOM     12  C22 UNL     1      80.625  63.711 101.715  0.00  0.00    +0.000 C 
ATOM     13  O6  UNL     1      79.682  63.141 102.246  0.00  0.00    +0.000 OA
ATOM     14  C23 UNL     1      80.371  64.522 100.451  0.00  0.00    +0.000 C 
ATOM     15  C24 UNL     1      79.616  63.659  99.425  0.00  0.00    +0.000 C 
ATOM     16  C25 UNL     1      79.603  65.807 100.829  0.00  0.00    +0.000 C 
ATOM     17  C26 UNL     1      79.276  66.755  99.647  0.00  0.00    +0.000 C 
ATOM     18  C27 UNL     1      80.528  67.307  98.944  0.00  0.00    +0.000 C 
ATOM     19  C28 UNL     1      78.386  67.871 100.134  0.00  0.00    +0.000 C 
ATOM     20  C29 UNL     1      78.793  68.785 101.027  0.00  0.00    +0.000 C 
ATOM     21  C30 UNL     1      77.883  69.773 101.633  0.00  0.00    +0.000 C 
ATOM     22  C31 UNL     1      76.590  69.509 101.867  0.00  0.00    +0.000 C 
ATOM     23  C32 UNL     1      75.719  70.451 102.589  0.00  0.00    +0.000 C 
ATOM     24  C33 UNL     1      75.464  71.716 102.194  0.00  0.00    +0.000 C 
ATOM     25  C34 UNL     1      76.001  72.259 100.894  0.00  0.00    +0.000 C 
ATOM     26  C35 UNL     1      74.452  72.526 102.988  0.00  0.00    +0.000 C 
ATOM     27  C36 UNL     1      73.033  72.331 102.392  0.00  0.00    +0.000 C 
ATOM     28  C37 UNL     1      71.945  72.125 103.460  0.00  0.00    +0.000 C 
ATOM     29  C38 UNL     1      71.763  73.387 104.328  0.00  0.00    +0.000 C 
ATOM     30  C39 UNL     1      70.633  73.189 105.341  0.00  0.00    +0.000 C 
ATOM     31  C40 UNL     1      70.460  71.704 105.738  0.00  0.00    +0.000 C 
ATOM     32  C41 UNL     1      69.874  71.612 107.162  0.00  0.00    +0.000 C 
ATOM     33  C42 UNL     1      71.802  70.908 105.546  0.00  0.00    +0.000 C 
ATOM     34  O8  UNL     1      72.249  70.938 104.192  0.00  0.00    +0.000 OA
ATOM     35  C43 UNL     1      71.626  69.432 105.886  0.00  0.00    +0.000 C 
ATOM     36  O9  UNL     1      70.496  68.888 105.754  0.00  0.00    +0.000 OA
ATOM     37  C44 UNL     1      72.771  68.591 106.292  0.00  0.00    +0.000 C 
ATOM     38  O10 UNL     1      73.946  68.906 105.967  0.00  0.00    +0.000 OA
ATOM     39  N1  UNL     1      72.542  67.394 107.041  0.00  0.00    +0.000 N 
ATOM     40  C45 UNL     1      72.299  67.497 108.482  0.00  0.00    +0.000 C 
ATOM     41  C46 UNL     1      70.836  67.142 108.809  0.00  0.00    +0.000 C 
ATOM     42  C47 UNL     1      70.237  66.079 107.860  0.00  0.00    +0.000 C 
ATOM     43  C48 UNL     1      71.319  65.235 107.174  0.00  0.00    +0.000 C 
ATOM     44  C49 UNL     1      72.256  66.133 106.336  0.00  0.00    +0.000 C 
ATOM     45  C50 UNL     1      73.532  65.397 106.037  0.00  0.00    +0.000 C 
ATOM     46  O11 UNL     1      73.691  64.854 104.910  0.00  0.00    +0.000 OA
ATOM     47  O12 UNL     1      74.479  65.226 107.052  0.00  0.00    +0.000 OA
ENDROOT
BRANCH   1  48
ATOM     48  C9  UNL     1      75.966  63.843 108.404  0.00  0.00    +0.000 C 
ATOM     49  C10 UNL     1      75.354  64.774 109.474  0.00  0.00    +0.000 C 
BRANCH  48  50
ATOM     50  C8  UNL     1      75.503  62.382 108.708  0.00  0.00    +0.000 C 
BRANCH  50  53
ATOM     51  C2  UNL     1      72.467  60.160 107.380  0.00  0.00    +0.000 C 
ATOM     52  C3  UNL     1      73.249  61.112 108.332  0.00  0.00    +0.000 C 
ATOM     53  C4  UNL     1      74.569  61.639 107.713  0.00  0.00    +0.000 C 
ATOM     54  C5  UNL     1      75.234  60.546 106.861  0.00  0.00    +0.000 C 
ATOM     55  C6  UNL     1      74.353  60.197 105.642  0.00  0.00    +0.000 C 
ATOM     56  C7  UNL     1      72.835  60.397 105.901  0.00  0.00    +0.000 C 
BRANCH  51  58
ATOM     57  C1  UNL     1      72.862  58.647 109.113  0.00  0.00    +0.000 C 
ATOM     58  O1  UNL     1      72.767  58.811 107.715  0.00  0.00    +0.000 OA
ENDBRANCH  51  58
BRANCH  56  59
ATOM     59  O2  UNL     1      72.090  59.529 105.087  0.00  0.00    +0.000 OA
ATOM     60  H13 UNL     1      72.562  59.477 104.215  0.00  0.00    +0.000 HD
ENDBRANCH  56  59
ENDBRANCH  50  53
ENDBRANCH  48  50
ENDBRANCH   1  48
BRANCH  10  61
ATOM     61  O4  UNL     1      83.357  64.285 104.238  0.00  0.00    +0.000 OA
ATOM     62  H32 UNL     1      83.571  65.206 104.544  0.00  0.00    +0.000 HD
ENDBRANCH  10  61
BRANCH  11  63
ATOM     63  O5  UNL     1      83.000  64.150 101.516  0.00  0.00    +0.000 OA
ATOM     64  C21 UNL     1      83.803  63.148 100.926  0.00  0.00    +0.000 C 
ENDBRANCH  11  63
BRANCH  33  65
ATOM     65  O7  UNL     1      72.814  71.471 106.355  0.00  0.00    +0.000 OA
ATOM     66  H67 UNL     1      73.679  71.394 105.867  0.00  0.00    +0.000 HD
ENDBRANCH  33  65
BRANCH  26  67
ATOM     67  O13 UNL     1      74.784  73.907 102.959  0.00  0.00    +0.000 OA
ATOM     68  C51 UNL     1      75.446  74.286 104.149  0.00  0.00    +0.000 C 
ENDBRANCH  26  67
TORSDOF 9
ENDMDL
