MODEL 1
REMARK VINA RESULT:      -8.1      0.000      0.000
REMARK  Name = ./S1044.pdb
REMARK  26 active torsions:
REMARK  status: ('A' for Active; 'I' for Inactive)
REMARK    1  A    between atoms: C1_1  and  O1_2
REMARK    2  A    between atoms: O1_2  and  C2_3
REMARK    3  A    between atoms: C4_5  and  C13_18
REMARK    4  A    between atoms: C7_8  and  O2_9
REMARK    5  A    between atoms: O2_9  and  C8_10
REMARK    6  A    between atoms: C8_10  and  C9_12
REMARK    7  A    between atoms: C9_12  and  C10_13
REMARK    8  A    between atoms: C9_12  and  C11_14
REMARK    9  A    between atoms: C9_12  and  C12_16
REMARK   10  A    between atoms: C11_14  and  O4_15
REMARK   11  A    between atoms: C12_16  and  O5_17
REMARK   12  A    between atoms: C13_18  and  C14_19
REMARK   13  A    between atoms: C14_19  and  C15_20
REMARK   14  A    between atoms: C14_19  and  C16_21
REMARK   15  A    between atoms: C19_25  and  C20_26
REMARK   16  A    between atoms: C22_28  and  C23_29
REMARK   17  A    between atoms: C24_30  and  O7_31
REMARK   18  A    between atoms: C25_32  and  O8_33
REMARK   19  A    between atoms: O8_33  and  C26_34
REMARK   20  A    between atoms: C28_37  and  C29_38
REMARK   21  A    between atoms: C31_40  and  C32_41
REMARK   22  A    between atoms: C38_47  and  C39_48
REMARK   23  A    between atoms: C40_49  and  O16_72
REMARK   24  A    between atoms: C45_54  and  C46_55
REMARK   25  A    between atoms: C47_56  and  O10_57
REMARK   26  A    between atoms: O16_72  and  C56_73
REMARK                            x       y       z     vdW  Elec       q    Type
REMARK                         _______ _______ _______ _____ _____    ______ ____
ROOT
ATOM      1  C16 UNL     1      77.288  64.142 106.453  0.00  0.00    +0.000 C 
ATOM      2  C17 UNL     1      78.747  63.657 106.298  0.00  0.00    +0.000 C 
ATOM      3  C18 UNL     1      79.099  63.264 104.881  0.00  0.00    +0.000 C 
ATOM      4  O6  UNL     1      79.157  64.140 104.030  0.00  0.00    +0.000 OA
ATOM      5  C19 UNL     1      79.416  61.811 104.533  0.00  0.00    +0.000 C 
ATOM      6  C20 UNL     1      79.619  61.619 103.012  0.00  0.00    +0.000 C 
ATOM      7  C21 UNL     1      80.632  61.348 105.325  0.00  0.00    +0.000 C 
ATOM      8  C22 UNL     1      81.134  60.089 105.353  0.00  0.00    +0.000 C 
ATOM      9  C23 UNL     1      80.496  58.958 104.577  0.00  0.00    +0.000 C 
ATOM     10  C24 UNL     1      82.347  59.772 106.224  0.00  0.00    +0.000 C 
ATOM     11  C25 UNL     1      83.694  60.094 105.515  0.00  0.00    +0.000 C 
ATOM     12  C27 UNL     1      84.052  61.574 105.563  0.00  0.00    +0.000 C 
ATOM     13  O9  UNL     1      84.354  62.075 106.645  0.00  0.00    +0.000 OA
ATOM     14  C28 UNL     1      84.146  62.432 104.306  0.00  0.00    +0.000 C 
ATOM     15  C29 UNL     1      85.612  62.814 104.059  0.00  0.00    +0.000 C 
ATOM     16  C30 UNL     1      83.239  63.682 104.459  0.00  0.00    +0.000 C 
ATOM     17  C31 UNL     1      83.300  64.746 103.335  0.00  0.00    +0.000 C 
ATOM     18  C32 UNL     1      82.806  64.204 101.990  0.00  0.00    +0.000 C 
ATOM     19  C33 UNL     1      82.428  65.902 103.754  0.00  0.00    +0.000 C 
ATOM     20  C34 UNL     1      82.823  67.177 103.665  0.00  0.00    +0.000 C 
ATOM     21  C35 UNL     1      82.027  68.290 104.225  0.00  0.00    +0.000 C 
ATOM     22  C36 UNL     1      81.285  68.139 105.328  0.00  0.00    +0.000 C 
ATOM     23  C37 UNL     1      80.454  69.197 105.935  0.00  0.00    +0.000 C 
ATOM     24  C38 UNL     1      80.855  70.450 106.242  0.00  0.00    +0.000 C 
ATOM     25  C39 UNL     1      82.232  70.967 105.898  0.00  0.00    +0.000 C 
ATOM     26  C40 UNL     1      79.941  71.311 107.106  0.00  0.00    +0.000 C 
ATOM     27  C41 UNL     1      78.668  71.725 106.316  0.00  0.00    +0.000 C 
ATOM     28  C42 UNL     1      77.476  72.029 107.243  0.00  0.00    +0.000 C 
ATOM     29  C43 UNL     1      76.418  72.868 106.528  0.00  0.00    +0.000 C 
ATOM     30  C44 UNL     1      75.286  73.164 107.508  0.00  0.00    +0.000 C 
ATOM     31  C45 UNL     1      74.751  71.872 108.158  0.00  0.00    +0.000 C 
ATOM     32  C46 UNL     1      73.733  72.261 109.252  0.00  0.00    +0.000 C 
ATOM     33  C47 UNL     1      75.927  70.950 108.670  0.00  0.00    +0.000 C 
ATOM     34  O11 UNL     1      76.897  70.797 107.643  0.00  0.00    +0.000 OA
ATOM     35  C48 UNL     1      75.444  69.537 109.003  0.00  0.00    +0.000 C 
ATOM     36  O12 UNL     1      74.211  69.278 109.070  0.00  0.00    +0.000 OA
ATOM     37  C49 UNL     1      76.393  68.434 109.294  0.00  0.00    +0.000 C 
ATOM     38  O13 UNL     1      77.567  68.462 108.836  0.00  0.00    +0.000 OA
ATOM     39  N1  UNL     1      75.961  67.315 110.091  0.00  0.00    +0.000 N 
ATOM     40  C50 UNL     1      75.574  67.591 111.485  0.00  0.00    +0.000 C 
ATOM     41  C51 UNL     1      75.086  66.326 112.206  0.00  0.00    +0.000 C 
ATOM     42  C52 UNL     1      74.104  65.556 111.317  0.00  0.00    +0.000 C 
ATOM     43  C53 UNL     1      74.703  65.184 109.942  0.00  0.00    +0.000 C 
ATOM     44  C54 UNL     1      76.032  65.907 109.628  0.00  0.00    +0.000 C 
ATOM     45  C55 UNL     1      76.350  65.730 108.165  0.00  0.00    +0.000 C 
ATOM     46  O14 UNL     1      75.822  66.469 107.290  0.00  0.00    +0.000 OA
ATOM     47  O15 UNL     1      77.134  64.626 107.792  0.00  0.00    +0.000 OA
ENDROOT
BRANCH   1  48
ATOM     48  C14 UNL     1      76.229  63.030 106.145  0.00  0.00    +0.000 C 
ATOM     49  C15 UNL     1      75.486  62.575 107.417  0.00  0.00    +0.000 C 
BRANCH  48  50
ATOM     50  C13 UNL     1      75.241  63.501 105.035  0.00  0.00    +0.000 C 
BRANCH  50  53
ATOM     51  C2  UNL     1      73.572  66.976 104.060  0.00  0.00    +0.000 C 
ATOM     52  C3  UNL     1      74.677  65.890 104.109  0.00  0.00    +0.000 C 
ATOM     53  C4  UNL     1      74.462  64.841 105.230  0.00  0.00    +0.000 C 
ATOM     54  C5  UNL     1      72.966  64.661 105.563  0.00  0.00    +0.000 C 
ATOM     55  C6  UNL     1      72.343  65.977 106.075  0.00  0.00    +0.000 C 
ATOM     56  C7  UNL     1      72.963  67.253 105.445  0.00  0.00    +0.000 C 
BRANCH  51  58
ATOM     57  C1  UNL     1      75.438  68.372 104.066  0.00  0.00    +0.000 C 
ATOM     58  O1  UNL     1      74.135  68.182 103.563  0.00  0.00    +0.000 OA
ENDBRANCH  51  58
BRANCH  56  59
ATOM     59  O2  UNL     1      71.966  68.267 105.295  0.00  0.00    +0.000 OA
BRANCH  59  60
ATOM     60  C8  UNL     1      71.975  69.496 105.966  0.00  0.00    +0.000 C 
ATOM     61  O3  UNL     1      73.028  70.189 105.998  0.00  0.00    +0.000 OA
BRANCH  60  62
ATOM     62  C9  UNL     1      70.735  69.945 106.723  0.00  0.00    +0.000 C 
ATOM     63  C10 UNL     1      70.921  71.409 107.194  0.00  0.00    +0.000 C 
BRANCH  62  64
ATOM     64  C11 UNL     1      69.502  69.855 105.776  0.00  0.00    +0.000 C 
BRANCH  64  65
ATOM     65  O4  UNL     1      68.306  70.153 106.451  0.00  0.00    +0.000 OA
ATOM     66  H18 UNL     1      67.683  70.549 105.789  0.00  0.00    +0.000 HD
ENDBRANCH  64  65
ENDBRANCH  62  64
BRANCH  62  67
ATOM     67  C12 UNL     1      70.564  69.006 107.941  0.00  0.00    +0.000 C 
BRANCH  67  68
ATOM     68  O5  UNL     1      69.852  67.849 107.595  0.00  0.00    +0.000 OA
ATOM     69  H21 UNL     1      70.521  67.118 107.539  0.00  0.00    +0.000 HD
ENDBRANCH  67  68
ENDBRANCH  62  67
ENDBRANCH  60  62
ENDBRANCH  59  60
ENDBRANCH  56  59
ENDBRANCH  50  53
ENDBRANCH  48  50
ENDBRANCH   1  48
BRANCH  10  70
ATOM     70  O7  UNL     1      82.235  60.418 107.474  0.00  0.00    +0.000 OA
ATOM     71  H40 UNL     1      82.751  61.264 107.417  0.00  0.00    +0.000 HD
ENDBRANCH  10  70
BRANCH  11  72
ATOM     72  O8  UNL     1      84.699  59.330 106.167  0.00  0.00    +0.000 OA
ATOM     73  C26 UNL     1      84.369  57.958 106.208  0.00  0.00    +0.000 C 
ENDBRANCH  11  72
BRANCH  33  74
ATOM     74  O10 UNL     1      76.540  71.509 109.815  0.00  0.00    +0.000 OA
ATOM     75  H75 UNL     1      76.567  72.495 109.710  0.00  0.00    +0.000 HD
ENDBRANCH  33  74
BRANCH  26  76
ATOM     76  O16 UNL     1      79.584  70.591 108.278  0.00  0.00    +0.000 OA
ATOM     77  C56 UNL     1      80.249  71.110 109.411  0.00  0.00    +0.000 C 
ENDBRANCH  26  76
TORSDOF 15
ENDMDL
MODEL 2
REMARK VINA RESULT:      -7.9      5.398     11.911
REMARK  Name = ./S1044.pdb
REMARK  26 active torsions:
REMARK  status: ('A' for Active; 'I' for Inactive)
REMARK    1  A    between atoms: C1_1  and  O1_2
REMARK    2  A    between atoms: O1_2  and  C2_3
REMARK    3  A    between atoms: C4_5  and  C13_18
REMARK    4  A    between atoms: C7_8  and  O2_9
REMARK    5  A    between atoms: O2_9  and  C8_10
REMARK    6  A    between atoms: C8_10  and  C9_12
REMARK    7  A    between atoms: C9_12  and  C10_13
REMARK    8  A    between atoms: C9_12  and  C11_14
REMARK    9  A    between atoms: C9_12  and  C12_16
REMARK   10  A    between atoms: C11_14  and  O4_15
REMARK   11  A    between atoms: C12_16  and  O5_17
REMARK   12  A    between atoms: C13_18  and  C14_19
REMARK   13  A    between atoms: C14_19  and  C15_20
REMARK   14  A    between atoms: C14_19  and  C16_21
REMARK   15  A    between atoms: C19_25  and  C20_26
REMARK   16  A    between atoms: C22_28  and  C23_29
REMARK   17  A    between atoms: C24_30  and  O7_31
REMARK   18  A    between atoms: C25_32  and  O8_33
REMARK   19  A    between atoms: O8_33  and  C26_34
REMARK   20  A    between atoms: C28_37  and  C29_38
REMARK   21  A    between atoms: C31_40  and  C32_41
REMARK   22  A    between atoms: C38_47  and  C39_48
REMARK   23  A    between atoms: C40_49  and  O16_72
REMARK   24  A    between atoms: C45_54  and  C46_55
REMARK   25  A    between atoms: C47_56  and  O10_57
REMARK   26  A    between atoms: O16_72  and  C56_73
REMARK                            x       y       z     vdW  Elec       q    Type
REMARK                         _______ _______ _______ _____ _____    ______ ____
ROOT
ATOM      1  C16 UNL     1      76.604  67.205 102.331  0.00  0.00    +0.000 C 
ATOM      2  C17 UNL     1      76.723  67.860 103.726  0.00  0.00    +0.000 C 
ATOM      3  C18 UNL     1      76.132  69.249 103.788  0.00  0.00    +0.000 C 
ATOM      4  O6  UNL     1      74.919  69.372 103.686  0.00  0.00    +0.000 OA
ATOM      5  C19 UNL     1      77.025  70.466 104.017  0.00  0.00    +0.000 C 
ATOM      6  C20 UNL     1      76.229  71.787 103.914  0.00  0.00    +0.000 C 
ATOM      7  C21 UNL     1      77.731  70.338 105.361  0.00  0.00    +0.000 C 
ATOM      8  C22 UNL     1      78.680  71.175 105.846  0.00  0.00    +0.000 C 
ATOM      9  C23 UNL     1      79.171  72.369 105.058  0.00  0.00    +0.000 C 
ATOM     10  C24 UNL     1      79.319  70.896 107.204  0.00  0.00    +0.000 C 
ATOM     11  C25 UNL     1      78.480  71.459 108.388  0.00  0.00    +0.000 C 
ATOM     12  C27 UNL     1      77.305  70.565 108.762  0.00  0.00    +0.000 C 
ATOM     13  O9  UNL     1      77.534  69.472 109.277  0.00  0.00    +0.000 OA
ATOM     14  C28 UNL     1      75.857  71.017 108.615  0.00  0.00    +0.000 C 
ATOM     15  C29 UNL     1      75.238  71.207 110.006  0.00  0.00    +0.000 C 
ATOM     16  C30 UNL     1      75.072  69.981 107.767  0.00  0.00    +0.000 C 
ATOM     17  C31 UNL     1      73.545  70.198 107.616  0.00  0.00    +0.000 C 
ATOM     18  C32 UNL     1      73.211  71.489 106.860  0.00  0.00    +0.000 C 
ATOM     19  C33 UNL     1      72.991  69.021 106.853  0.00  0.00    +0.000 C 
ATOM     20  C34 UNL     1      71.889  68.364 107.236  0.00  0.00    +0.000 C 
ATOM     21  C35 UNL     1      71.446  67.118 106.575  0.00  0.00    +0.000 C 
ATOM     22  C36 UNL     1      72.320  66.243 106.064  0.00  0.00    +0.000 C 
ATOM     23  C37 UNL     1      71.952  64.989 105.380  0.00  0.00    +0.000 C 
ATOM     24  C38 UNL     1      71.108  64.042 105.845  0.00  0.00    +0.000 C 
ATOM     25  C39 UNL     1      70.334  64.209 107.131  0.00  0.00    +0.000 C 
ATOM     26  C40 UNL     1      71.061  62.698 105.128  0.00  0.00    +0.000 C 
ATOM     27  C41 UNL     1      70.401  62.846 103.727  0.00  0.00    +0.000 C 
ATOM     28  C42 UNL     1      70.862  61.753 102.744  0.00  0.00    +0.000 C 
ATOM     29  C43 UNL     1      69.890  61.615 101.574  0.00  0.00    +0.000 C 
ATOM     30  C44 UNL     1      70.382  60.496 100.660  0.00  0.00    +0.000 C 
ATOM     31  C45 UNL     1      71.855  60.708 100.252  0.00  0.00    +0.000 C 
ATOM     32  C46 UNL     1      72.330  59.462  99.473  0.00  0.00    +0.000 C 
ATOM     33  C47 UNL     1      72.755  61.074 101.498  0.00  0.00    +0.000 C 
ATOM     34  O11 UNL     1      72.140  62.114 102.245  0.00  0.00    +0.000 OA
ATOM     35  C48 UNL     1      74.124  61.613 101.077  0.00  0.00    +0.000 C 
ATOM     36  O12 UNL     1      74.510  61.523  99.878  0.00  0.00    +0.000 OA
ATOM     37  C49 UNL     1      75.058  62.223 102.054  0.00  0.00    +0.000 C 
ATOM     38  O13 UNL     1      74.623  62.747 103.115  0.00  0.00    +0.000 OA
ATOM     39  N1  UNL     1      76.471  62.232 101.777  0.00  0.00    +0.000 N 
ATOM     40  C50 UNL     1      77.146  60.927 101.675  0.00  0.00    +0.000 C 
ATOM     41  C51 UNL     1      78.635  61.075 101.327  0.00  0.00    +0.000 C 
ATOM     42  C52 UNL     1      78.812  62.078 100.182  0.00  0.00    +0.000 C 
ATOM     43  C53 UNL     1      78.200  63.462 100.494  0.00  0.00    +0.000 C 
ATOM     44  C54 UNL     1      77.288  63.470 101.742  0.00  0.00    +0.000 C 
ATOM     45  C55 UNL     1      76.503  64.756 101.764  0.00  0.00    +0.000 C 
ATOM     46  O14 UNL     1      75.451  64.888 101.081  0.00  0.00    +0.000 OA
ATOM     47  O15 UNL     1      77.054  65.851 102.449  0.00  0.00    +0.000 OA
ENDROOT
BRANCH   1  48
ATOM     48  C14 UNL     1      77.413  67.960 101.221  0.00  0.00    +0.000 C 
ATOM     49  C15 UNL     1      78.878  67.485 101.155  0.00  0.00    +0.000 C 
BRANCH  48  50
ATOM     50  C13 UNL     1      76.701  67.837  99.840  0.00  0.00    +0.000 C 
BRANCH  50  53
ATOM     51  C2  UNL     1      78.155  66.622  96.344  0.00  0.00    +0.000 C 
ATOM     52  C3  UNL     1      77.730  66.501  97.829  0.00  0.00    +0.000 C 
ATOM     53  C4  UNL     1      77.562  67.871  98.537  0.00  0.00    +0.000 C 
ATOM     54  C5  UNL     1      77.162  68.980  97.542  0.00  0.00    +0.000 C 
ATOM     55  C6  UNL     1      78.244  69.180  96.460  0.00  0.00    +0.000 C 
ATOM     56  C7  UNL     1      79.000  67.879  96.078  0.00  0.00    +0.000 C 
BRANCH  51  58
ATOM     57  C1  UNL     1      79.834  65.151  97.014  0.00  0.00    +0.000 C 
ATOM     58  O1  UNL     1      78.920  65.478  95.991  0.00  0.00    +0.000 OA
ENDBRANCH  51  58
BRANCH  56  59
ATOM     59  O2  UNL     1      79.345  67.895  94.690  0.00  0.00    +0.000 OA
BRANCH  59  60
ATOM     60  C8  UNL     1      80.528  68.435  94.172  0.00  0.00    +0.000 C 
ATOM     61  O3  UNL     1      80.701  69.685  94.165  0.00  0.00    +0.000 OA
BRANCH  60  62
ATOM     62  C9  UNL     1      81.561  67.512  93.544  0.00  0.00    +0.000 C 
ATOM     63  C10 UNL     1      80.842  66.456  92.668  0.00  0.00    +0.000 C 
BRANCH  62  64
ATOM     64  C11 UNL     1      82.523  68.357  92.659  0.00  0.00    +0.000 C 
BRANCH  64  65
ATOM     65  O4  UNL     1      83.445  69.079  93.437  0.00  0.00    +0.000 OA
ATOM     66  H18 UNL     1      83.427  68.693  94.350  0.00  0.00    +0.000 HD
ENDBRANCH  64  65
ENDBRANCH  62  64
BRANCH  62  67
ATOM     67  C12 UNL     1      82.333  66.822  94.695  0.00  0.00    +0.000 C 
BRANCH  67  68
ATOM     68  O5  UNL     1      82.341  67.617  95.849  0.00  0.00    +0.000 OA
ATOM     69  H21 UNL     1      81.924  67.071  96.564  0.00  0.00    +0.000 HD
ENDBRANCH  67  68
ENDBRANCH  62  67
ENDBRANCH  60  62
ENDBRANCH  59  60
ENDBRANCH  56  59
ENDBRANCH  50  53
ENDBRANCH  48  50
ENDBRANCH   1  48
BRANCH  10  70
ATOM     70  O7  UNL     1      79.584  69.517 107.347  0.00  0.00    +0.000 OA
ATOM     71  H40 UNL     1      79.694  69.336 108.317  0.00  0.00    +0.000 HD
ENDBRANCH  10  70
BRANCH  11  72
ATOM     72  O8  UNL     1      79.362  71.591 109.495  0.00  0.00    +0.000 OA
ATOM     73  C26 UNL     1      80.504  72.352 109.166  0.00  0.00    +0.000 C 
ENDBRANCH  11  72
BRANCH  33  74
ATOM     74  O10 UNL     1      72.941  59.945 102.330  0.00  0.00    +0.000 OA
ATOM     75  H75 UNL     1      72.148  59.355 102.244  0.00  0.00    +0.000 HD
ENDBRANCH  33  74
BRANCH  26  76
ATOM     76  O16 UNL     1      72.380  62.185 105.002  0.00  0.00    +0.000 OA
ATOM     77  C56 UNL     1      72.651  61.240 106.015  0.00  0.00    +0.000 C 
ENDBRANCH  26  76
TORSDOF 15
ENDMDL
MODEL 3
REMARK VINA RESULT:      -7.8      4.180      6.157
REMARK  Name = ./S1044.pdb
REMARK  26 active torsions:
REMARK  status: ('A' for Active; 'I' for Inactive)
REMARK    1  A    between atoms: C1_1  and  O1_2
REMARK    2  A    between atoms: O1_2  and  C2_3
REMARK    3  A    between atoms: C4_5  and  C13_18
REMARK    4  A    between atoms: C7_8  and  O2_9
REMARK    5  A    between atoms: O2_9  and  C8_10
REMARK    6  A    between atoms: C8_10  and  C9_12
REMARK    7  A    between atoms: C9_12  and  C10_13
REMARK    8  A    between atoms: C9_12  and  C11_14
REMARK    9  A    between atoms: C9_12  and  C12_16
REMARK   10  A    between atoms: C11_14  and  O4_15
REMARK   11  A    between atoms: C12_16  and  O5_17
REMARK   12  A    between atoms: C13_18  and  C14_19
REMARK   13  A    between atoms: C14_19  and  C15_20
REMARK   14  A    between atoms: C14_19  and  C16_21
REMARK   15  A    between atoms: C19_25  and  C20_26
REMARK   16  A    between atoms: C22_28  and  C23_29
REMARK   17  A    between atoms: C24_30  and  O7_31
REMARK   18  A    between atoms: C25_32  and  O8_33
REMARK   19  A    between atoms: O8_33  and  C26_34
REMARK   20  A    between atoms: C28_37  and  C29_38
REMARK   21  A    between atoms: C31_40  and  C32_41
REMARK   22  A    between atoms: C38_47  and  C39_48
REMARK   23  A    between atoms: C40_49  and  O16_72
REMARK   24  A    between atoms: C45_54  and  C46_55
REMARK   25  A    between atoms: C47_56  and  O10_57
REMARK   26  A    between atoms: O16_72  and  C56_73
REMARK                            x       y       z     vdW  Elec       q    Type
REMARK                         _______ _______ _______ _____ _____    ______ ____
ROOT
ATOM      1  C16 UNL     1      75.079  63.065 105.368  0.00  0.00    +0.000 C 
ATOM      2  C17 UNL     1      76.587  63.047 105.027  0.00  0.00    +0.000 C 
ATOM      3  C18 UNL     1      76.900  62.321 103.739  0.00  0.00    +0.000 C 
ATOM      4  O6  UNL     1      76.529  62.818 102.685  0.00  0.00    +0.000 OA
ATOM      5  C19 UNL     1      77.698  61.019 103.753  0.00  0.00    +0.000 C 
ATOM      6  C20 UNL     1      77.786  60.387 102.345  0.00  0.00    +0.000 C 
ATOM      7  C21 UNL     1      79.079  61.272 104.344  0.00  0.00    +0.000 C 
ATOM      8  C22 UNL     1      80.016  60.330 104.612  0.00  0.00    +0.000 C 
ATOM      9  C23 UNL     1      79.768  58.860 104.356  0.00  0.00    +0.000 C 
ATOM     10  C24 UNL     1      81.349  60.738 105.236  0.00  0.00    +0.000 C 
ATOM     11  C25 UNL     1      82.388  61.205 104.176  0.00  0.00    +0.000 C 
ATOM     12  C27 UNL     1      82.167  62.641 103.719  0.00  0.00    +0.000 C 
ATOM     13  O9  UNL     1      82.378  63.554 104.516  0.00  0.00    +0.000 OA
ATOM     14  C28 UNL     1      81.792  62.993 102.284  0.00  0.00    +0.000 C 
ATOM     15  C29 UNL     1      82.969  63.710 101.610  0.00  0.00    +0.000 C 
ATOM     16  C30 UNL     1      80.505  63.860 102.280  0.00  0.00    +0.000 C 
ATOM     17  C31 UNL     1      80.036  64.429 100.918  0.00  0.00    +0.000 C 
ATOM     18  C32 UNL     1      79.634  63.327  99.932  0.00  0.00    +0.000 C 
ATOM     19  C33 UNL     1      78.846  65.317 101.180  0.00  0.00    +0.000 C 
ATOM     20  C34 UNL     1      78.721  66.538 100.645  0.00  0.00    +0.000 C 
ATOM     21  C35 UNL     1      77.633  67.460 101.033  0.00  0.00    +0.000 C 
ATOM     22  C36 UNL     1      77.130  67.473 102.274  0.00  0.00    +0.000 C 
ATOM     23  C37 UNL     1      76.037  68.353 102.729  0.00  0.00    +0.000 C 
ATOM     24  C38 UNL     1      75.969  69.693 102.569  0.00  0.00    +0.000 C 
ATOM     25  C39 UNL     1      77.003  70.467 101.786  0.00  0.00    +0.000 C 
ATOM     26  C40 UNL     1      74.902  70.462 103.338  0.00  0.00    +0.000 C 
ATOM     27  C41 UNL     1      73.486  70.148 102.776  0.00  0.00    +0.000 C 
ATOM     28  C42 UNL     1      72.379  70.358 103.826  0.00  0.00    +0.000 C 
ATOM     29  C43 UNL     1      71.011  70.515 103.165  0.00  0.00    +0.000 C 
ATOM     30  C44 UNL     1      69.968  70.756 104.252  0.00  0.00    +0.000 C 
ATOM     31  C45 UNL     1      70.033  69.670 105.347  0.00  0.00    +0.000 C 
ATOM     32  C46 UNL     1      69.073  70.069 106.488  0.00  0.00    +0.000 C 
ATOM     33  C47 UNL     1      71.519  69.408 105.815  0.00  0.00    +0.000 C 
ATOM     34  O11 UNL     1      72.354  69.226 104.680  0.00  0.00    +0.000 OA
ATOM     35  C48 UNL     1      71.643  68.123 106.636  0.00  0.00    +0.000 C 
ATOM     36  O12 UNL     1      70.612  67.525 107.054  0.00  0.00    +0.000 OA
ATOM     37  C49 UNL     1      72.962  67.552 107.003  0.00  0.00    +0.000 C 
ATOM     38  O13 UNL     1      73.981  67.792 106.300  0.00  0.00    +0.000 OA
ATOM     39  N1  UNL     1      73.074  66.704 108.160  0.00  0.00    +0.000 N 
ATOM     40  C50 UNL     1      72.770  67.307 109.470  0.00  0.00    +0.000 C 
ATOM     41  C51 UNL     1      72.877  66.285 110.611  0.00  0.00    +0.000 C 
ATOM     42  C52 UNL     1      72.162  64.985 110.226  0.00  0.00    +0.000 C 
ATOM     43  C53 UNL     1      72.699  64.372 108.914  0.00  0.00    +0.000 C 
ATOM     44  C54 UNL     1      73.616  65.323 108.112  0.00  0.00    +0.000 C 
ATOM     45  C55 UNL     1      73.812  64.761 106.727  0.00  0.00    +0.000 C 
ATOM     46  O14 UNL     1      72.951  64.942 105.824  0.00  0.00    +0.000 OA
ATOM     47  O15 UNL     1      74.906  63.907 106.513  0.00  0.00    +0.000 OA
ENDROOT
BRANCH   1  48
ATOM     48  C14 UNL     1      74.488  61.640 105.639  0.00  0.00    +0.000 C 
ATOM     49  C15 UNL     1      74.654  61.219 107.113  0.00  0.00    +0.000 C 
BRANCH  48  50
ATOM     50  C13 UNL     1      73.001  61.563 105.179  0.00  0.00    +0.000 C 
BRANCH  50  53
ATOM     51  C2  UNL     1      72.312  62.299 101.332  0.00  0.00    +0.000 C 
ATOM     52  C3  UNL     1      72.167  62.477 102.865  0.00  0.00    +0.000 C 
ATOM     53  C4  UNL     1      72.683  61.262 103.679  0.00  0.00    +0.000 C 
ATOM     54  C5  UNL     1      73.805  60.511 102.932  0.00  0.00    +0.000 C 
ATOM     55  C6  UNL     1      73.303  59.949 101.586  0.00  0.00    +0.000 C 
ATOM     56  C7  UNL     1      72.217  60.824 100.904  0.00  0.00    +0.000 C 
BRANCH  51  58
ATOM     57  C1  UNL     1      70.030  62.773 101.294  0.00  0.00    +0.000 C 
ATOM     58  O1  UNL     1      71.277  63.025 100.685  0.00  0.00    +0.000 OA
ENDBRANCH  51  58
BRANCH  56  59
ATOM     59  O2  UNL     1      72.355  60.767  99.482  0.00  0.00    +0.000 OA
BRANCH  59  60
ATOM     60  C8  UNL     1      71.307  60.505  98.592  0.00  0.00    +0.000 C 
ATOM     61  O3  UNL     1      70.298  59.855  98.980  0.00  0.00    +0.000 OA
BRANCH  60  62
ATOM     62  C9  UNL     1      71.433  60.934  97.138  0.00  0.00    +0.000 C 
ATOM     63  C10 UNL     1      71.889  59.725  96.282  0.00  0.00    +0.000 C 
BRANCH  62  64
ATOM     64  C11 UNL     1      70.048  61.436  96.636  0.00  0.00    +0.000 C 
BRANCH  64  65
ATOM     65  O4  UNL     1      70.182  62.395  95.617  0.00  0.00    +0.000 OA
ATOM     66  H18 UNL     1      69.543  63.127  95.814  0.00  0.00    +0.000 HD
ENDBRANCH  64  65
ENDBRANCH  62  64
BRANCH  62  67
ATOM     67  C12 UNL     1      72.487  62.066  97.074  0.00  0.00    +0.000 C 
BRANCH  67  68
ATOM     68  O5  UNL     1      72.117  63.149  97.883  0.00  0.00    +0.000 OA
ATOM     69  H21 UNL     1      72.873  63.792  97.848  0.00  0.00    +0.000 HD
ENDBRANCH  67  68
ENDBRANCH  62  67
ENDBRANCH  60  62
ENDBRANCH  59  60
ENDBRANCH  56  59
ENDBRANCH  50  53
ENDBRANCH  48  50
ENDBRANCH   1  48
BRANCH  10  70
ATOM     70  O7  UNL     1      81.144  61.705 106.242  0.00  0.00    +0.000 OA
ATOM     71  H40 UNL     1      81.851  61.575 106.927  0.00  0.00    +0.000 HD
ENDBRANCH  10  70
BRANCH  11  72
ATOM     72  O8  UNL     1      83.673  61.076 104.770  0.00  0.00    +0.000 OA
ATOM     73  C26 UNL     1      83.925  59.751 105.188  0.00  0.00    +0.000 C 
ENDBRANCH  11  72
BRANCH  33  74
ATOM     74  O10 UNL     1      72.002  70.493 106.583  0.00  0.00    +0.000 OA
ATOM     75  H75 UNL     1      72.984  70.397 106.686  0.00  0.00    +0.000 HD
ENDBRANCH  33  74
BRANCH  26  76
ATOM     76  O16 UNL     1      74.975  70.118 104.715  0.00  0.00    +0.000 OA
ATOM     77  C56 UNL     1      75.689  71.097 105.441  0.00  0.00    +0.000 C 
ENDBRANCH  26  76
TORSDOF 15
ENDMDL
MODEL 4
REMARK VINA RESULT:      -7.6      3.090      4.296
REMARK  Name = ./S1044.pdb
REMARK  26 active torsions:
REMARK  status: ('A' for Active; 'I' for Inactive)
REMARK    1  A    between atoms: C1_1  and  O1_2
REMARK    2  A    between atoms: O1_2  and  C2_3
REMARK    3  A    between atoms: C4_5  and  C13_18
REMARK    4  A    between atoms: C7_8  and  O2_9
REMARK    5  A    between atoms: O2_9  and  C8_10
REMARK    6  A    between atoms: C8_10  and  C9_12
REMARK    7  A    between atoms: C9_12  and  C10_13
REMARK    8  A    between atoms: C9_12  and  C11_14
REMARK    9  A    between atoms: C9_12  and  C12_16
REMARK   10  A    between atoms: C11_14  and  O4_15
REMARK   11  A    between atoms: C12_16  and  O5_17
REMARK   12  A    between atoms: C13_18  and  C14_19
REMARK   13  A    between atoms: C14_19  and  C15_20
REMARK   14  A    between atoms: C14_19  and  C16_21
REMARK   15  A    between atoms: C19_25  and  C20_26
REMARK   16  A    between atoms: C22_28  and  C23_29
REMARK   17  A    between atoms: C24_30  and  O7_31
REMARK   18  A    between atoms: C25_32  and  O8_33
REMARK   19  A    between atoms: O8_33  and  C26_34
REMARK   20  A    between atoms: C28_37  and  C29_38
REMARK   21  A    between atoms: C31_40  and  C32_41
REMARK   22  A    between atoms: C38_47  and  C39_48
REMARK   23  A    between atoms: C40_49  and  O16_72
REMARK   24  A    between atoms: C45_54  and  C46_55
REMARK   25  A    between atoms: C47_56  and  O10_57
REMARK   26  A    between atoms: O16_72  and  C56_73
REMARK                            x       y       z     vdW  Elec       q    Type
REMARK                         _______ _______ _______ _____ _____    ______ ____
ROOT
ATOM      1  C16 UNL     1      77.155  64.288 106.306  0.00  0.00    +0.000 C 
ATOM      2  C17 UNL     1      78.605  63.769 106.162  0.00  0.00    +0.000 C 
ATOM      3  C18 UNL     1      78.969  63.400 104.742  0.00  0.00    +0.000 C 
ATOM      4  O6  UNL     1      79.064  64.294 103.913  0.00  0.00    +0.000 OA
ATOM      5  C19 UNL     1      79.255  61.949 104.365  0.00  0.00    +0.000 C 
ATOM      6  C20 UNL     1      79.478  61.787 102.843  0.00  0.00    +0.000 C 
ATOM      7  C21 UNL     1      80.446  61.436 105.165  0.00  0.00    +0.000 C 
ATOM      8  C22 UNL     1      80.915  60.164 105.171  0.00  0.00    +0.000 C 
ATOM      9  C23 UNL     1      80.262  59.068 104.358  0.00  0.00    +0.000 C 
ATOM     10  C24 UNL     1      82.105  59.796 106.053  0.00  0.00    +0.000 C 
ATOM     11  C25 UNL     1      83.472  60.100 105.373  0.00  0.00    +0.000 C 
ATOM     12  C27 UNL     1      83.866  61.568 105.461  0.00  0.00    +0.000 C 
ATOM     13  O9  UNL     1      84.163  62.036 106.559  0.00  0.00    +0.000 OA
ATOM     14  C28 UNL     1      84.003  62.453 104.227  0.00  0.00    +0.000 C 
ATOM     15  C29 UNL     1      85.481  62.803 104.011  0.00  0.00    +0.000 C 
ATOM     16  C30 UNL     1      83.125  63.721 104.395  0.00  0.00    +0.000 C 
ATOM     17  C31 UNL     1      83.231  64.809 103.298  0.00  0.00    +0.000 C 
ATOM     18  C32 UNL     1      82.745  64.312 101.932  0.00  0.00    +0.000 C 
ATOM     19  C33 UNL     1      82.382  65.978 103.730  0.00  0.00    +0.000 C 
ATOM     20  C34 UNL     1      82.811  67.244 103.678  0.00  0.00    +0.000 C 
ATOM     21  C35 UNL     1      82.033  68.364 104.251  0.00  0.00    +0.000 C 
ATOM     22  C36 UNL     1      81.270  68.206 105.339  0.00  0.00    +0.000 C 
ATOM     23  C37 UNL     1      80.457  69.271 105.957  0.00  0.00    +0.000 C 
ATOM     24  C38 UNL     1      80.884  70.506 106.300  0.00  0.00    +0.000 C 
ATOM     25  C39 UNL     1      82.279  70.995 105.989  0.00  0.00    +0.000 C 
ATOM     26  C40 UNL     1      79.978  71.369 107.170  0.00  0.00    +0.000 C 
ATOM     27  C41 UNL     1      78.729  71.834 106.369  0.00  0.00    +0.000 C 
ATOM     28  C42 UNL     1      77.530  72.147 107.284  0.00  0.00    +0.000 C 
ATOM     29  C43 UNL     1      76.505  73.030 106.573  0.00  0.00    +0.000 C 
ATOM     30  C44 UNL     1      75.365  73.332 107.541  0.00  0.00    +0.000 C 
ATOM     31  C45 UNL     1      74.787  72.039 108.153  0.00  0.00    +0.000 C 
ATOM     32  C46 UNL     1      73.761  72.428 109.240  0.00  0.00    +0.000 C 
ATOM     33  C47 UNL     1      75.932  71.075 108.661  0.00  0.00    +0.000 C 
ATOM     34  O11 UNL     1      76.914  70.921 107.646  0.00  0.00    +0.000 OA
ATOM     35  C48 UNL     1      75.407  69.667 108.953  0.00  0.00    +0.000 C 
ATOM     36  O12 UNL     1      74.167  69.439 108.995  0.00  0.00    +0.000 OA
ATOM     37  C49 UNL     1      76.323  68.534 109.232  0.00  0.00    +0.000 C 
ATOM     38  O13 UNL     1      77.505  68.543 108.794  0.00  0.00    +0.000 OA
ATOM     39  N1  UNL     1      75.850  67.408 109.996  0.00  0.00    +0.000 N 
ATOM     40  C50 UNL     1      75.447  67.661 111.390  0.00  0.00    +0.000 C 
ATOM     41  C51 UNL     1      74.916  66.393 112.073  0.00  0.00    +0.000 C 
ATOM     42  C52 UNL     1      73.929  65.669 111.150  0.00  0.00    +0.000 C 
ATOM     43  C53 UNL     1      74.541  65.315 109.777  0.00  0.00    +0.000 C 
ATOM     44  C54 UNL     1      75.893  66.010 109.501  0.00  0.00    +0.000 C 
ATOM     45  C55 UNL     1      76.231  65.859 108.040  0.00  0.00    +0.000 C 
ATOM     46  O14 UNL     1      75.736  66.632 107.174  0.00  0.00    +0.000 OA
ATOM     47  O15 UNL     1      76.992  64.745 107.653  0.00  0.00    +0.000 OA
ENDROOT
BRANCH   1  48
ATOM     48  C14 UNL     1      76.074  63.210 105.955  0.00  0.00    +0.000 C 
ATOM     49  C15 UNL     1      75.762  62.296 107.157  0.00  0.00    +0.000 C 
BRANCH  48  50
ATOM     50  C13 UNL     1      74.787  63.884 105.391  0.00  0.00    +0.000 C 
BRANCH  50  53
ATOM     51  C2  UNL     1      71.348  62.775 103.728  0.00  0.00    +0.000 C 
ATOM     52  C3  UNL     1      72.301  63.228 104.864  0.00  0.00    +0.000 C 
ATOM     53  C4  UNL     1      73.802  63.036 104.524  0.00  0.00    +0.000 C 
ATOM     54  C5  UNL     1      74.058  63.125 103.005  0.00  0.00    +0.000 C 
ATOM     55  C6  UNL     1      73.295  62.020 102.243  0.00  0.00    +0.000 C 
ATOM     56  C7  UNL     1      71.940  61.629 102.891  0.00  0.00    +0.000 C 
BRANCH  51  58
ATOM     57  C1  UNL     1      70.365  61.587 105.475  0.00  0.00    +0.000 C 
ATOM     58  O1  UNL     1      70.126  62.333 104.302  0.00  0.00    +0.000 OA
ENDBRANCH  51  58
BRANCH  56  59
ATOM     59  O2  UNL     1      70.989  61.282 101.881  0.00  0.00    +0.000 OA
BRANCH  59  60
ATOM     60  C8  UNL     1      70.848  61.951 100.660  0.00  0.00    +0.000 C 
ATOM     61  O3  UNL     1      70.676  63.201 100.641  0.00  0.00    +0.000 OA
BRANCH  60  62
ATOM     62  C9  UNL     1      70.820  61.152  99.366  0.00  0.00    +0.000 C 
ATOM     63  C10 UNL     1      71.635  61.899  98.281  0.00  0.00    +0.000 C 
BRANCH  62  64
ATOM     64  C11 UNL     1      71.451  59.752  99.622  0.00  0.00    +0.000 C 
BRANCH  64  65
ATOM     65  O4  UNL     1      70.527  58.863 100.197  0.00  0.00    +0.000 OA
ATOM     66  H18 UNL     1      69.634  59.292 100.148  0.00  0.00    +0.000 HD
ENDBRANCH  64  65
ENDBRANCH  62  64
BRANCH  62  67
ATOM     67  C12 UNL     1      69.340  61.018  98.931  0.00  0.00    +0.000 C 
BRANCH  67  68
ATOM     68  O5  UNL     1      68.477  61.111 100.031  0.00  0.00    +0.000 OA
ATOM     69  H21 UNL     1      68.976  60.743 100.806  0.00  0.00    +0.000 HD
ENDBRANCH  67  68
ENDBRANCH  62  67
ENDBRANCH  60  62
ENDBRANCH  59  60
ENDBRANCH  56  59
ENDBRANCH  50  53
ENDBRANCH  48  50
ENDBRANCH   1  48
BRANCH  10  70
ATOM     70  O7  UNL     1      81.990  60.415 107.316  0.00  0.00    +0.000 OA
ATOM     71  H40 UNL     1      81.044  60.699 107.421  0.00  0.00    +0.000 HD
ENDBRANCH  10  70
BRANCH  11  72
ATOM     72  O8  UNL     1      84.447  59.295 106.022  0.00  0.00    +0.000 OA
ATOM     73  C26 UNL     1      84.047  57.943 106.090  0.00  0.00    +0.000 C 
ENDBRANCH  11  72
BRANCH  33  74
ATOM     74  O10 UNL     1      76.540  71.591 109.829  0.00  0.00    +0.000 OA
ATOM     75  H75 UNL     1      76.882  70.832 110.369  0.00  0.00    +0.000 HD
ENDBRANCH  33  74
BRANCH  26  76
ATOM     76  O16 UNL     1      79.584  70.631 108.318  0.00  0.00    +0.000 OA
ATOM     77  C56 UNL     1      80.234  71.114 109.475  0.00  0.00    +0.000 C 
ENDBRANCH  26  76
TORSDOF 15
ENDMDL
MODEL 5
REMARK VINA RESULT:      -7.5     10.733     14.916
REMARK  Name = ./S1044.pdb
REMARK  26 active torsions:
REMARK  status: ('A' for Active; 'I' for Inactive)
REMARK    1  A    between atoms: C1_1  and  O1_2
REMARK    2  A    between atoms: O1_2  and  C2_3
REMARK    3  A    between atoms: C4_5  and  C13_18
REMARK    4  A    between atoms: C7_8  and  O2_9
REMARK    5  A    between atoms: O2_9  and  C8_10
REMARK    6  A    between atoms: C8_10  and  C9_12
REMARK    7  A    between atoms: C9_12  and  C10_13
REMARK    8  A    between atoms: C9_12  and  C11_14
REMARK    9  A    between atoms: C9_12  and  C12_16
REMARK   10  A    between atoms: C11_14  and  O4_15
REMARK   11  A    between atoms: C12_16  and  O5_17
REMARK   12  A    between atoms: C13_18  and  C14_19
REMARK   13  A    between atoms: C14_19  and  C15_20
REMARK   14  A    between atoms: C14_19  and  C16_21
REMARK   15  A    between atoms: C19_25  and  C20_26
REMARK   16  A    between atoms: C22_28  and  C23_29
REMARK   17  A    between atoms: C24_30  and  O7_31
REMARK   18  A    between atoms: C25_32  and  O8_33
REMARK   19  A    between atoms: O8_33  and  C26_34
REMARK   20  A    between atoms: C28_37  and  C29_38
REMARK   21  A    between atoms: C31_40  and  C32_41
REMARK   22  A    between atoms: C38_47  and  C39_48
REMARK   23  A    between atoms: C40_49  and  O16_72
REMARK   24  A    between atoms: C45_54  and  C46_55
REMARK   25  A    between atoms: C47_56  and  O10_57
REMARK   26  A    between atoms: O16_72  and  C56_73
REMARK                            x       y       z     vdW  Elec       q    Type
REMARK                         _______ _______ _______ _____ _____    ______ ____
ROOT
ATOM      1  C16 UNL     1      74.384  55.376  98.377  0.00  0.00    +0.000 C 
ATOM      2  C17 UNL     1      74.264  54.986  96.886  0.00  0.00    +0.000 C 
ATOM      3  C18 UNL     1      73.508  53.697  96.664  0.00  0.00    +0.000 C 
ATOM      4  O6  UNL     1      72.309  53.674  96.905  0.00  0.00    +0.000 OA
ATOM      5  C19 UNL     1      74.218  52.464  96.109  0.00  0.00    +0.000 C 
ATOM      6  C20 UNL     1      73.288  51.230  96.087  0.00  0.00    +0.000 C 
ATOM      7  C21 UNL     1      74.775  52.773  94.725  0.00  0.00    +0.000 C 
ATOM      8  C22 UNL     1      75.556  51.955  93.979  0.00  0.00    +0.000 C 
ATOM      9  C23 UNL     1      75.988  50.593  94.474  0.00  0.00    +0.000 C 
ATOM     10  C24 UNL     1      76.064  52.421  92.616  0.00  0.00    +0.000 C 
ATOM     11  C25 UNL     1      75.034  52.173  91.476  0.00  0.00    +0.000 C 
ATOM     12  C27 UNL     1      73.938  53.229  91.425  0.00  0.00    +0.000 C 
ATOM     13  O9  UNL     1      74.235  54.373  91.082  0.00  0.00    +0.000 OA
ATOM     14  C28 UNL     1      72.473  52.900  91.685  0.00  0.00    +0.000 C 
ATOM     15  C29 UNL     1      71.680  53.034  90.378  0.00  0.00    +0.000 C 
ATOM     16  C30 UNL     1      71.919  53.829  92.797  0.00  0.00    +0.000 C 
ATOM     17  C31 UNL     1      70.405  53.735  93.113  0.00  0.00    +0.000 C 
ATOM     18  C32 UNL     1      70.008  52.364  93.670  0.00  0.00    +0.000 C 
ATOM     19  C33 UNL     1      70.085  54.796  94.135  0.00  0.00    +0.000 C 
ATOM     20  C34 UNL     1      69.033  55.615  94.025  0.00  0.00    +0.000 C 
ATOM     21  C35 UNL     1      68.820  56.753  94.945  0.00  0.00    +0.000 C 
ATOM     22  C36 UNL     1      69.845  57.428  95.478  0.00  0.00    +0.000 C 
ATOM     23  C37 UNL     1      69.710  58.561  96.413  0.00  0.00    +0.000 C 
ATOM     24  C38 UNL     1      68.936  59.655  96.238  0.00  0.00    +0.000 C 
ATOM     25  C39 UNL     1      68.006  59.807  95.058  0.00  0.00    +0.000 C 
ATOM     26  C40 UNL     1      69.132  60.839  97.177  0.00  0.00    +0.000 C 
ATOM     27  C41 UNL     1      68.625  60.495  98.607  0.00  0.00    +0.000 C 
ATOM     28  C42 UNL     1      69.322  61.335  99.694  0.00  0.00    +0.000 C 
ATOM     29  C43 UNL     1      68.514  61.345 100.990  0.00  0.00    +0.000 C 
ATOM     30  C44 UNL     1      69.237  62.220 102.009  0.00  0.00    +0.000 C 
ATOM     31  C45 UNL     1      70.711  61.794 102.173  0.00  0.00    +0.000 C 
ATOM     32  C46 UNL     1      71.417  62.821 103.086  0.00  0.00    +0.000 C 
ATOM     33  C47 UNL     1      71.413  61.584 100.773  0.00  0.00    +0.000 C 
ATOM     34  O11 UNL     1      70.596  60.766  99.946  0.00  0.00    +0.000 OA
ATOM     35  C48 UNL     1      72.747  60.846 100.906  0.00  0.00    +0.000 C 
ATOM     36  O12 UNL     1      73.275  60.673 102.039  0.00  0.00    +0.000 OA
ATOM     37  C49 UNL     1      73.484  60.343  99.721  0.00  0.00    +0.000 C 
ATOM     38  O13 UNL     1      72.871  60.072  98.654  0.00  0.00    +0.000 OA
ATOM     39  N1  UNL     1      74.908  60.147  99.799  0.00  0.00    +0.000 N 
ATOM     40  C50 UNL     1      75.741  61.339 100.035  0.00  0.00    +0.000 C 
ATOM     41  C51 UNL     1      77.231  60.986 100.148  0.00  0.00    +0.000 C 
ATOM     42  C52 UNL     1      77.418  59.774 101.068  0.00  0.00    +0.000 C 
ATOM     43  C53 UNL     1      76.614  58.538 100.605  0.00  0.00    +0.000 C 
ATOM     44  C54 UNL     1      75.571  58.851  99.509  0.00  0.00    +0.000 C 
ATOM     45  C55 UNL     1      74.641  57.674  99.369  0.00  0.00    +0.000 C 
ATOM     46  O14 UNL     1      73.666  57.518 100.154  0.00  0.00    +0.000 OA
ATOM     47  O15 UNL     1      74.975  56.679  98.437  0.00  0.00    +0.000 OA
ENDROOT
BRANCH   1  48
ATOM     48  C14 UNL     1      75.219  54.353  99.219  0.00  0.00    +0.000 C 
ATOM     49  C15 UNL     1      76.563  54.951  99.683  0.00  0.00    +0.000 C 
BRANCH  48  50
ATOM     50  C13 UNL     1      74.382  53.812 100.418  0.00  0.00    +0.000 C 
BRANCH  50  53
ATOM     51  C2  UNL     1      72.744  55.099 103.806  0.00  0.00    +0.000 C 
ATOM     52  C3  UNL     1      72.775  54.561 102.352  0.00  0.00    +0.000 C 
ATOM     53  C4  UNL     1      74.152  54.732 101.660  0.00  0.00    +0.000 C 
ATOM     54  C5  UNL     1      75.308  54.719 102.682  0.00  0.00    +0.000 C 
ATOM     55  C6  UNL     1      75.181  55.882 103.688  0.00  0.00    +0.000 C 
ATOM     56  C7  UNL     1      73.715  56.273 104.015  0.00  0.00    +0.000 C 
BRANCH  51  58
ATOM     57  C1  UNL     1      70.596  54.452 104.438  0.00  0.00    +0.000 C 
ATOM     58  O1  UNL     1      71.427  55.541 104.104  0.00  0.00    +0.000 OA
ENDBRANCH  51  58
BRANCH  56  59
ATOM     59  O2  UNL     1      73.607  56.699 105.376  0.00  0.00    +0.000 OA
BRANCH  59  60
ATOM     60  C8  UNL     1      73.982  57.964 105.845  0.00  0.00    +0.000 C 
ATOM     61  O3  UNL     1      75.170  58.362 105.703  0.00  0.00    +0.000 OA
BRANCH  60  62
ATOM     62  C9  UNL     1      72.969  58.814 106.597  0.00  0.00    +0.000 C 
ATOM     63  C10 UNL     1      73.668  59.510 107.791  0.00  0.00    +0.000 C 
BRANCH  62  64
ATOM     64  C11 UNL     1      72.394  59.890 105.630  0.00  0.00    +0.000 C 
BRANCH  64  65
ATOM     65  O4  UNL     1      72.186  59.371 104.340  0.00  0.00    +0.000 OA
ATOM     66  H18 UNL     1      71.432  59.875 103.937  0.00  0.00    +0.000 HD
ENDBRANCH  64  65
ENDBRANCH  62  64
BRANCH  62  67
ATOM     67  C12 UNL     1      71.850  57.871 107.102  0.00  0.00    +0.000 C 
BRANCH  67  68
ATOM     68  O5  UNL     1      70.959  57.544 106.072  0.00  0.00    +0.000 OA
ATOM     69  H21 UNL     1      71.504  57.474 105.245  0.00  0.00    +0.000 HD
ENDBRANCH  67  68
ENDBRANCH  62  67
ENDBRANCH  60  62
ENDBRANCH  59  60
ENDBRANCH  56  59
ENDBRANCH  50  53
ENDBRANCH  48  50
ENDBRANCH   1  48
BRANCH  10  70
ATOM     70  O7  UNL     1      76.472  53.770  92.681  0.00  0.00    +0.000 OA
ATOM     71  H40 UNL     1      77.464  53.777  92.730  0.00  0.00    +0.000 HD
ENDBRANCH  10  70
BRANCH  11  72
ATOM     72  O8  UNL     1      75.760  52.166  90.255  0.00  0.00    +0.000 OA
ATOM     73  C26 UNL     1      76.646  51.070  90.179  0.00  0.00    +0.000 C 
ENDBRANCH  11  72
BRANCH  33  74
ATOM     74  O10 UNL     1      71.635  62.825 100.133  0.00  0.00    +0.000 OA
ATOM     75  H75 UNL     1      70.762  63.283 100.018  0.00  0.00    +0.000 HD
ENDBRANCH  33  74
BRANCH  26  76
ATOM     76  O16 UNL     1      70.508  61.190  97.212  0.00  0.00    +0.000 OA
ATOM     77  C56 UNL     1      70.782  62.244  96.312  0.00  0.00    +0.000 C 
ENDBRANCH  26  76
TORSDOF 15
ENDMDL
MODEL 6
REMARK VINA RESULT:      -7.4      2.973     10.435
REMARK  Name = ./S1044.pdb
REMARK  26 active torsions:
REMARK  status: ('A' for Active; 'I' for Inactive)
REMARK    1  A    between atoms: C1_1  and  O1_2
REMARK    2  A    between atoms: O1_2  and  C2_3
REMARK    3  A    between atoms: C4_5  and  C13_18
REMARK    4  A    between atoms: C7_8  and  O2_9
REMARK    5  A    between atoms: O2_9  and  C8_10
REMARK    6  A    between atoms: C8_10  and  C9_12
REMARK    7  A    between atoms: C9_12  and  C10_13
REMARK    8  A    between atoms: C9_12  and  C11_14
REMARK    9  A    between atoms: C9_12  and  C12_16
REMARK   10  A    between atoms: C11_14  and  O4_15
REMARK   11  A    between atoms: C12_16  and  O5_17
REMARK   12  A    between atoms: C13_18  and  C14_19
REMARK   13  A    between atoms: C14_19  and  C15_20
REMARK   14  A    between atoms: C14_19  and  C16_21
REMARK   15  A    between atoms: C19_25  and  C20_26
REMARK   16  A    between atoms: C22_28  and  C23_29
REMARK   17  A    between atoms: C24_30  and  O7_31
REMARK   18  A    between atoms: C25_32  and  O8_33
REMARK   19  A    between atoms: O8_33  and  C26_34
REMARK   20  A    between atoms: C28_37  and  C29_38
REMARK   21  A    between atoms: C31_40  and  C32_41
REMARK   22  A    between atoms: C38_47  and  C39_48
REMARK   23  A    between atoms: C40_49  and  O16_72
REMARK   24  A    between atoms: C45_54  and  C46_55
REMARK   25  A    between atoms: C47_56  and  O10_57
REMARK   26  A    between atoms: O16_72  and  C56_73
REMARK                            x       y       z     vdW  Elec       q    Type
REMARK                         _______ _______ _______ _____ _____    ______ ____
ROOT
ATOM      1  C16 UNL     1      73.251  64.753 105.957  0.00  0.00    +0.000 C 
ATOM      2  C17 UNL     1      73.219  66.265 105.637  0.00  0.00    +0.000 C 
ATOM      3  C18 UNL     1      73.131  67.135 106.869  0.00  0.00    +0.000 C 
ATOM      4  O6  UNL     1      74.093  67.177 107.623  0.00  0.00    +0.000 OA
ATOM      5  C19 UNL     1      71.885  67.975 107.141  0.00  0.00    +0.000 C 
ATOM      6  C20 UNL     1      71.960  68.681 108.515  0.00  0.00    +0.000 C 
ATOM      7  C21 UNL     1      71.682  68.972 106.007  0.00  0.00    +0.000 C 
ATOM      8  C22 UNL     1      70.622  69.803 105.857  0.00  0.00    +0.000 C 
ATOM      9  C23 UNL     1      69.470  69.814 106.837  0.00  0.00    +0.000 C 
ATOM     10  C24 UNL     1      70.546  70.728 104.645  0.00  0.00    +0.000 C 
ATOM     11  C25 UNL     1      71.324  72.059 104.857  0.00  0.00    +0.000 C 
ATOM     12  C27 UNL     1      72.824  71.910 104.644  0.00  0.00    +0.000 C 
ATOM     13  O9  UNL     1      73.243  71.698 103.507  0.00  0.00    +0.000 OA
ATOM     14  C28 UNL     1      73.833  72.115 105.769  0.00  0.00    +0.000 C 
ATOM     15  C29 UNL     1      74.640  73.393 105.505  0.00  0.00    +0.000 C 
ATOM     16  C30 UNL     1      74.746  70.865 105.883  0.00  0.00    +0.000 C 
ATOM     17  C31 UNL     1      75.923  70.936 106.888  0.00  0.00    +0.000 C 
ATOM     18  C32 UNL     1      75.447  71.068 108.338  0.00  0.00    +0.000 C 
ATOM     19  C33 UNL     1      76.722  69.665 106.743  0.00  0.00    +0.000 C 
ATOM     20  C34 UNL     1      78.058  69.655 106.653  0.00  0.00    +0.000 C 
ATOM     21  C35 UNL     1      78.818  68.424 106.352  0.00  0.00    +0.000 C 
ATOM     22  C36 UNL     1      78.320  67.465 105.562  0.00  0.00    +0.000 C 
ATOM     23  C37 UNL     1      79.013  66.205 105.229  0.00  0.00    +0.000 C 
ATOM     24  C38 UNL     1      80.276  66.086 104.765  0.00  0.00    +0.000 C 
ATOM     25  C39 UNL     1      81.199  67.272 104.617  0.00  0.00    +0.000 C 
ATOM     26  C40 UNL     1      80.724  64.734 104.224  0.00  0.00    +0.000 C 
ATOM     27  C41 UNL     1      80.865  63.700 105.377  0.00  0.00    +0.000 C 
ATOM     28  C42 UNL     1      80.697  62.249 104.887  0.00  0.00    +0.000 C 
ATOM     29  C43 UNL     1      81.293  61.256 105.884  0.00  0.00    +0.000 C 
ATOM     30  C44 UNL     1      81.127  59.846 105.324  0.00  0.00    +0.000 C 
ATOM     31  C45 UNL     1      79.662  59.563 104.931  0.00  0.00    +0.000 C 
ATOM     32  C46 UNL     1      79.602  58.192 104.223  0.00  0.00    +0.000 C 
ATOM     33  C47 UNL     1      79.048  60.751 104.090  0.00  0.00    +0.000 C 
ATOM     34  O11 UNL     1      79.311  61.986 104.743  0.00  0.00    +0.000 OA
ATOM     35  C48 UNL     1      77.525  60.650 103.983  0.00  0.00    +0.000 C 
ATOM     36  O12 UNL     1      76.924  59.598 104.336  0.00  0.00    +0.000 OA
ATOM     37  C49 UNL     1      76.705  61.756 103.431  0.00  0.00    +0.000 C 
ATOM     38  O13 UNL     1      77.121  62.945 103.474  0.00  0.00    +0.000 OA
ATOM     39  N1  UNL     1      75.414  61.469 102.860  0.00  0.00    +0.000 N 
ATOM     40  C50 UNL     1      75.383  60.609 101.664  0.00  0.00    +0.000 C 
ATOM     41  C51 UNL     1      73.949  60.339 101.188  0.00  0.00    +0.000 C 
ATOM     42  C52 UNL     1      73.058  59.963 102.377  0.00  0.00    +0.000 C 
ATOM     43  C53 UNL     1      73.055  61.037 103.488  0.00  0.00    +0.000 C 
ATOM     44  C54 UNL     1      74.157  62.108 103.320  0.00  0.00    +0.000 C 
ATOM     45  C55 UNL     1      74.271  62.896 104.600  0.00  0.00    +0.000 C 
ATOM     46  O14 UNL     1      74.941  62.459 105.575  0.00  0.00    +0.000 OA
ATOM     47  O15 UNL     1      73.491  64.056 104.729  0.00  0.00    +0.000 OA
ENDROOT
BRANCH   1  48
ATOM     48  C14 UNL     1      71.936  64.236 106.635  0.00  0.00    +0.000 C 
ATOM     49  C15 UNL     1      70.947  63.656 105.604  0.00  0.00    +0.000 C 
BRANCH  48  50
ATOM     50  C13 UNL     1      72.264  63.210 107.762  0.00  0.00    +0.000 C 
BRANCH  50  53
ATOM     51  C2  UNL     1      74.890  64.903 110.223  0.00  0.00    +0.000 C 
ATOM     52  C3  UNL     1      74.398  63.970 109.088  0.00  0.00    +0.000 C 
ATOM     53  C4  UNL     1      72.866  63.727 109.108  0.00  0.00    +0.000 C 
ATOM     54  C5  UNL     1      72.108  64.921 109.725  0.00  0.00    +0.000 C 
ATOM     55  C6  UNL     1      72.530  65.157 111.190  0.00  0.00    +0.000 C 
ATOM     56  C7  UNL     1      74.013  64.803 111.483  0.00  0.00    +0.000 C 
BRANCH  51  58
ATOM     57  C1  UNL     1      76.511  63.231 110.147  0.00  0.00    +0.000 C 
ATOM     58  O1  UNL     1      76.221  64.545 110.568  0.00  0.00    +0.000 OA
ENDBRANCH  51  58
BRANCH  56  59
ATOM     59  O2  UNL     1      74.550  65.691 112.467  0.00  0.00    +0.000 OA
BRANCH  59  60
ATOM     60  C8  UNL     1      75.108  65.284 113.685  0.00  0.00    +0.000 C 
ATOM     61  O3  UNL     1      75.693  64.169 113.769  0.00  0.00    +0.000 OA
BRANCH  60  62
ATOM     62  C9  UNL     1      74.930  66.154 114.919  0.00  0.00    +0.000 C 
ATOM     63  C10 UNL     1      75.703  65.528 116.107  0.00  0.00    +0.000 C 
BRANCH  62  64
ATOM     64  C11 UNL     1      75.492  67.575 114.622  0.00  0.00    +0.000 C 
BRANCH  64  65
ATOM     65  O4  UNL     1      75.120  68.024 113.343  0.00  0.00    +0.000 OA
ATOM     66  H18 UNL     1      75.753  68.742 113.086  0.00  0.00    +0.000 HD
ENDBRANCH  64  65
ENDBRANCH  62  64
BRANCH  62  67
ATOM     67  C12 UNL     1      73.415  66.214 115.235  0.00  0.00    +0.000 C 
BRANCH  67  68
ATOM     68  O5  UNL     1      72.713  66.886 114.224  0.00  0.00    +0.000 OA
ATOM     69  H21 UNL     1      71.755  66.847 114.481  0.00  0.00    +0.000 HD
ENDBRANCH  67  68
ENDBRANCH  62  67
ENDBRANCH  60  62
ENDBRANCH  59  60
ENDBRANCH  56  59
ENDBRANCH  50  53
ENDBRANCH  48  50
ENDBRANCH   1  48
BRANCH  10  70
ATOM     70  O7  UNL     1      70.963  70.047 103.481  0.00  0.00    +0.000 OA
ATOM     71  H40 UNL     1      70.672  70.588 102.701  0.00  0.00    +0.000 HD
ENDBRANCH  10  70
BRANCH  11  72
ATOM     72  O8  UNL     1      70.793  73.001 103.934  0.00  0.00    +0.000 OA
ATOM     73  C26 UNL     1      69.712  73.722 104.488  0.00  0.00    +0.000 C 
ENDBRANCH  11  72
BRANCH  33  74
ATOM     74  O10 UNL     1      79.600  60.782 102.788  0.00  0.00    +0.000 OA
ATOM     75  H75 UNL     1      78.892  61.059 102.150  0.00  0.00    +0.000 HD
ENDBRANCH  33  74
BRANCH  26  76
ATOM     76  O16 UNL     1      79.784  64.277 103.261  0.00  0.00    +0.000 OA
ATOM     77  C56 UNL     1      80.244  64.527 101.950  0.00  0.00    +0.000 C 
ENDBRANCH  26  76
TORSDOF 15
ENDMDL
MODEL 7
REMARK VINA RESULT:      -7.3      4.985      9.903
REMARK  Name = ./S1044.pdb
REMARK  26 active torsions:
REMARK  status: ('A' for Active; 'I' for Inactive)
REMARK    1  A    between atoms: C1_1  and  O1_2
REMARK    2  A    between atoms: O1_2  and  C2_3
REMARK    3  A    between atoms: C4_5  and  C13_18
REMARK    4  A    between atoms: C7_8  and  O2_9
REMARK    5  A    between atoms: O2_9  and  C8_10
REMARK    6  A    between atoms: C8_10  and  C9_12
REMARK    7  A    between atoms: C9_12  and  C10_13
REMARK    8  A    between atoms: C9_12  and  C11_14
REMARK    9  A    between atoms: C9_12  and  C12_16
REMARK   10  A    between atoms: C11_14  and  O4_15
REMARK   11  A    between atoms: C12_16  and  O5_17
REMARK   12  A    between atoms: C13_18  and  C14_19
REMARK   13  A    between atoms: C14_19  and  C15_20
REMARK   14  A    between atoms: C14_19  and  C16_21
REMARK   15  A    between atoms: C19_25  and  C20_26
REMARK   16  A    between atoms: C22_28  and  C23_29
REMARK   17  A    between atoms: C24_30  and  O7_31
REMARK   18  A    between atoms: C25_32  and  O8_33
REMARK   19  A    between atoms: O8_33  and  C26_34
REMARK   20  A    between atoms: C28_37  and  C29_38
REMARK   21  A    between atoms: C31_40  and  C32_41
REMARK   22  A    between atoms: C38_47  and  C39_48
REMARK   23  A    between atoms: C40_49  and  O16_72
REMARK   24  A    between atoms: C45_54  and  C46_55
REMARK   25  A    between atoms: C47_56  and  O10_57
REMARK   26  A    between atoms: O16_72  and  C56_73
REMARK                            x       y       z     vdW  Elec       q    Type
REMARK                         _______ _______ _______ _____ _____    ______ ____
ROOT
ATOM      1  C16 UNL     1      77.599  64.276 102.959  0.00  0.00    +0.000 C 
ATOM      2  C17 UNL     1      76.224  63.858 102.390  0.00  0.00    +0.000 C 
ATOM      3  C18 UNL     1      75.757  62.509 102.887  0.00  0.00    +0.000 C 
ATOM      4  O6  UNL     1      75.454  62.395 104.067  0.00  0.00    +0.000 OA
ATOM      5  C19 UNL     1      75.624  61.329 101.927  0.00  0.00    +0.000 C 
ATOM      6  C20 UNL     1      75.258  60.025 102.671  0.00  0.00    +0.000 C 
ATOM      7  C21 UNL     1      74.606  61.663 100.843  0.00  0.00    +0.000 C 
ATOM      8  C22 UNL     1      74.312  60.898  99.763  0.00  0.00    +0.000 C 
ATOM      9  C23 UNL     1      75.010  59.582  99.503  0.00  0.00    +0.000 C 
ATOM     10  C24 UNL     1      73.285  61.384  98.743  0.00  0.00    +0.000 C 
ATOM     11  C25 UNL     1      71.824  61.040  99.154  0.00  0.00    +0.000 C 
ATOM     12  C27 UNL     1      71.253  62.005 100.183  0.00  0.00    +0.000 C 
ATOM     13  O9  UNL     1      71.019  63.164  99.842  0.00  0.00    +0.000 OA
ATOM     14  C28 UNL     1      70.865  61.564 101.590  0.00  0.00    +0.000 C 
ATOM     15  C29 UNL     1      69.339  61.617 101.739  0.00  0.00    +0.000 C 
ATOM     16  C30 UNL     1      71.582  62.462 102.633  0.00  0.00    +0.000 C 
ATOM     17  C31 UNL     1      71.213  62.252 104.123  0.00  0.00    +0.000 C 
ATOM     18  C32 UNL     1      71.606  60.862 104.633  0.00  0.00    +0.000 C 
ATOM     19  C33 UNL     1      71.944  63.299 104.926  0.00  0.00    +0.000 C 
ATOM     20  C34 UNL     1      71.349  64.030 105.875  0.00  0.00    +0.000 C 
ATOM     21  C35 UNL     1      72.031  65.160 106.543  0.00  0.00    +0.000 C 
ATOM     22  C36 UNL     1      72.924  65.922 105.900  0.00  0.00    +0.000 C 
ATOM     23  C37 UNL     1      73.653  67.054 106.503  0.00  0.00    +0.000 C 
ATOM     24  C38 UNL     1      73.108  68.080 107.192  0.00  0.00    +0.000 C 
ATOM     25  C39 UNL     1      71.635  68.142 107.522  0.00  0.00    +0.000 C 
ATOM     26  C40 UNL     1      73.983  69.288 107.504  0.00  0.00    +0.000 C 
ATOM     27  C41 UNL     1      75.064  68.926 108.561  0.00  0.00    +0.000 C 
ATOM     28  C42 UNL     1      76.305  69.833 108.465  0.00  0.00    +0.000 C 
ATOM     29  C43 UNL     1      77.120  69.796 109.757  0.00  0.00    +0.000 C 
ATOM     30  C44 UNL     1      78.310  70.740 109.610  0.00  0.00    +0.000 C 
ATOM     31  C45 UNL     1      79.117  70.435 108.331  0.00  0.00    +0.000 C 
ATOM     32  C46 UNL     1      80.197  71.526 108.163  0.00  0.00    +0.000 C 
ATOM     33  C47 UNL     1      78.173  70.261 107.076  0.00  0.00    +0.000 C 
ATOM     34  O11 UNL     1      77.113  69.370 107.394  0.00  0.00    +0.000 OA
ATOM     35  C48 UNL     1      78.906  69.634 105.889  0.00  0.00    +0.000 C 
ATOM     36  O12 UNL     1      80.163  69.518 105.898  0.00  0.00    +0.000 OA
ATOM     37  C49 UNL     1      78.184  69.174 104.678  0.00  0.00    +0.000 C 
ATOM     38  O13 UNL     1      76.970  68.840 104.744  0.00  0.00    +0.000 OA
ATOM     39  N1  UNL     1      78.882  69.092 103.421  0.00  0.00    +0.000 N 
ATOM     40  C50 UNL     1      79.400  70.350 102.855  0.00  0.00    +0.000 C 
ATOM     41  C51 UNL     1      80.165  70.118 101.544  0.00  0.00    +0.000 C 
ATOM     42  C52 UNL     1      81.131  68.937 101.698  0.00  0.00    +0.000 C 
ATOM     43  C53 UNL     1      80.423  67.636 102.137  0.00  0.00    +0.000 C 
ATOM     44  C54 UNL     1      78.969  67.850 102.615  0.00  0.00    +0.000 C 
ATOM     45  C55 UNL     1      78.495  66.600 103.311  0.00  0.00    +0.000 C 
ATOM     46  O14 UNL     1      78.786  66.379 104.519  0.00  0.00    +0.000 OA
ATOM     47  O15 UNL     1      77.849  65.622 102.539  0.00  0.00    +0.000 OA
ENDROOT
BRANCH   1  48
ATOM     48  C14 UNL     1      78.768  63.334 102.510  0.00  0.00    +0.000 C 
ATOM     49  C15 UNL     1      78.981  62.171 103.500  0.00  0.00    +0.000 C 
BRANCH  48  50
ATOM     50  C13 UNL     1      78.536  62.821 101.057  0.00  0.00    +0.000 C 
BRANCH  50  53
ATOM     51  C2  UNL     1      78.338  65.768  98.393  0.00  0.00    +0.000 C 
ATOM     52  C3  UNL     1      77.828  64.567  99.230  0.00  0.00    +0.000 C 
ATOM     53  C4  UNL     1      78.968  63.721  99.855  0.00  0.00    +0.000 C 
ATOM     54  C5  UNL     1      80.228  64.572 100.121  0.00  0.00    +0.000 C 
ATOM     55  C6  UNL     1      80.793  65.161  98.812  0.00  0.00    +0.000 C 
ATOM     56  C7  UNL     1      79.709  65.492  97.751  0.00  0.00    +0.000 C 
BRANCH  51  58
ATOM     57  C1  UNL     1      76.106  66.213  97.893  0.00  0.00    +0.000 C 
ATOM     58  O1  UNL     1      77.401  66.040  97.361  0.00  0.00    +0.000 OA
ENDBRANCH  51  58
BRANCH  56  59
ATOM     59  O2  UNL     1      80.086  66.650  97.001  0.00  0.00    +0.000 OA
BRANCH  59  60
ATOM     60  C8  UNL     1      80.944  66.635  95.895  0.00  0.00    +0.000 C 
ATOM     61  O3  UNL     1      82.171  66.388  96.052  0.00  0.00    +0.000 OA
BRANCH  60  62
ATOM     62  C9  UNL     1      80.402  66.998  94.521  0.00  0.00    +0.000 C 
ATOM     63  C10 UNL     1      81.433  67.885  93.779  0.00  0.00    +0.000 C 
BRANCH  62  64
ATOM     64  C11 UNL     1      80.158  65.692  93.710  0.00  0.00    +0.000 C 
BRANCH  64  65
ATOM     65  O4  UNL     1      79.803  64.620  94.548  0.00  0.00    +0.000 OA
ATOM     66  H18 UNL     1      79.115  64.954  95.179  0.00  0.00    +0.000 HD
ENDBRANCH  64  65
ENDBRANCH  62  64
BRANCH  62  67
ATOM     67  C12 UNL     1      79.078  67.773  94.731  0.00  0.00    +0.000 C 
BRANCH  67  68
ATOM     68  O5  UNL     1      77.990  66.897  94.847  0.00  0.00    +0.000 OA
ATOM     69  H21 UNL     1      77.577  67.084  95.729  0.00  0.00    +0.000 HD
ENDBRANCH  67  68
ENDBRANCH  62  67
ENDBRANCH  60  62
ENDBRANCH  59  60
ENDBRANCH  56  59
ENDBRANCH  50  53
ENDBRANCH  48  50
ENDBRANCH   1  48
BRANCH  10  70
ATOM     70  O7  UNL     1      73.457  62.762  98.493  0.00  0.00    +0.000 OA
ATOM     71  H40 UNL     1      74.407  62.981  98.682  0.00  0.00    +0.000 HD
ENDBRANCH  10  70
BRANCH  11  72
ATOM     72  O8  UNL     1      71.041  61.074  97.968  0.00  0.00    +0.000 OA
ATOM     73  C26 UNL     1      71.522  60.168  96.998  0.00  0.00    +0.000 C 
ENDBRANCH  11  72
BRANCH  33  74
ATOM     74  O10 UNL     1      77.635  71.507 106.678  0.00  0.00    +0.000 OA
ATOM     75  H75 UNL     1      76.982  71.804 107.365  0.00  0.00    +0.000 HD
ENDBRANCH  33  74
BRANCH  26  76
ATOM     76  O16 UNL     1      74.595  69.748 106.307  0.00  0.00    +0.000 OA
ATOM     77  C56 UNL     1      73.893  70.852 105.774  0.00  0.00    +0.000 C 
ENDBRANCH  26  76
TORSDOF 15
ENDMDL
MODEL 8
REMARK VINA RESULT:      -7.3      4.057     11.210
REMARK  Name = ./S1044.pdb
REMARK  26 active torsions:
REMARK  status: ('A' for Active; 'I' for Inactive)
REMARK    1  A    between atoms: C1_1  and  O1_2
REMARK    2  A    between atoms: O1_2  and  C2_3
REMARK    3  A    between atoms: C4_5  and  C13_18
REMARK    4  A    between atoms: C7_8  and  O2_9
REMARK    5  A    between atoms: O2_9  and  C8_10
REMARK    6  A    between atoms: C8_10  and  C9_12
REMARK    7  A    between atoms: C9_12  and  C10_13
REMARK    8  A    between atoms: C9_12  and  C11_14
REMARK    9  A    between atoms: C9_12  and  C12_16
REMARK   10  A    between atoms: C11_14  and  O4_15
REMARK   11  A    between atoms: C12_16  and  O5_17
REMARK   12  A    between atoms: C13_18  and  C14_19
REMARK   13  A    between atoms: C14_19  and  C15_20
REMARK   14  A    between atoms: C14_19  and  C16_21
REMARK   15  A    between atoms: C19_25  and  C20_26
REMARK   16  A    between atoms: C22_28  and  C23_29
REMARK   17  A    between atoms: C24_30  and  O7_31
REMARK   18  A    between atoms: C25_32  and  O8_33
REMARK   19  A    between atoms: O8_33  and  C26_34
REMARK   20  A    between atoms: C28_37  and  C29_38
REMARK   21  A    between atoms: C31_40  and  C32_41
REMARK   22  A    between atoms: C38_47  and  C39_48
REMARK   23  A    between atoms: C40_49  and  O16_72
REMARK   24  A    between atoms: C45_54  and  C46_55
REMARK   25  A    between atoms: C47_56  and  O10_57
REMARK   26  A    between atoms: O16_72  and  C56_73
REMARK                            x       y       z     vdW  Elec       q    Type
REMARK                         _______ _______ _______ _____ _____    ______ ____
ROOT
ATOM      1  C16 UNL     1      72.802  66.737 105.967  0.00  0.00    +0.000 C 
ATOM      2  C17 UNL     1      72.487  68.148 105.416  0.00  0.00    +0.000 C 
ATOM      3  C18 UNL     1      73.034  69.262 106.279  0.00  0.00    +0.000 C 
ATOM      4  O6  UNL     1      74.247  69.409 106.341  0.00  0.00    +0.000 OA
ATOM      5  C19 UNL     1      72.091  70.207 107.019  0.00  0.00    +0.000 C 
ATOM      6  C20 UNL     1      72.863  71.182 107.938  0.00  0.00    +0.000 C 
ATOM      7  C21 UNL     1      71.220  70.952 106.015  0.00  0.00    +0.000 C 
ATOM      8  C22 UNL     1      70.197  71.789 106.314  0.00  0.00    +0.000 C 
ATOM      9  C23 UNL     1      69.786  72.070 107.742  0.00  0.00    +0.000 C 
ATOM     10  C24 UNL     1      69.393  72.441 105.191  0.00  0.00    +0.000 C 
ATOM     11  C25 UNL     1      70.058  73.742 104.656  0.00  0.00    +0.000 C 
ATOM     12  C27 UNL     1      71.195  73.470 103.679  0.00  0.00    +0.000 C 
ATOM     13  O9  UNL     1      70.926  73.000 102.574  0.00  0.00    +0.000 OA
ATOM     14  C28 UNL     1      72.639  73.851 103.981  0.00  0.00    +0.000 C 
ATOM     15  C29 UNL     1      73.068  74.999 103.057  0.00  0.00    +0.000 C 
ATOM     16  C30 UNL     1      73.552  72.606 103.820  0.00  0.00    +0.000 C 
ATOM     17  C31 UNL     1      75.079  72.822 103.959  0.00  0.00    +0.000 C 
ATOM     18  C32 UNL     1      75.480  73.283 105.364  0.00  0.00    +0.000 C 
ATOM     19  C33 UNL     1      75.755  71.507 103.658  0.00  0.00    +0.000 C 
ATOM     20  C34 UNL     1      76.812  71.406 102.844  0.00  0.00    +0.000 C 
ATOM     21  C35 UNL     1      77.366  70.099 102.430  0.00  0.00    +0.000 C 
ATOM     22  C36 UNL     1      76.585  69.023 102.268  0.00  0.00    +0.000 C 
ATOM     23  C37 UNL     1      77.067  67.686 101.873  0.00  0.00    +0.000 C 
ATOM     24  C38 UNL     1      77.865  67.403 100.821  0.00  0.00    +0.000 C 
ATOM     25  C39 UNL     1      78.461  68.479  99.944  0.00  0.00    +0.000 C 
ATOM     26  C40 UNL     1      78.035  65.944 100.413  0.00  0.00    +0.000 C 
ATOM     27  C41 UNL     1      78.867  65.171 101.475  0.00  0.00    +0.000 C 
ATOM     28  C42 UNL     1      78.563  63.661 101.472  0.00  0.00    +0.000 C 
ATOM     29  C43 UNL     1      79.682  62.869 102.146  0.00  0.00    +0.000 C 
ATOM     30  C44 UNL     1      79.338  61.384 102.077  0.00  0.00    +0.000 C 
ATOM     31  C45 UNL     1      77.927  61.105 102.635  0.00  0.00    +0.000 C 
ATOM     32  C46 UNL     1      77.585  59.621 102.380  0.00  0.00    +0.000 C 
ATOM     33  C47 UNL     1      76.864  62.121 102.056  0.00  0.00    +0.000 C 
ATOM     34  O11 UNL     1      77.353  63.449 102.181  0.00  0.00    +0.000 OA
ATOM     35  C48 UNL     1      75.550  62.083 102.839  0.00  0.00    +0.000 C 
ATOM     36  O12 UNL     1      75.325  61.164 103.674  0.00  0.00    +0.000 OA
ATOM     37  C49 UNL     1      74.483  63.091 102.625  0.00  0.00    +0.000 C 
ATOM     38  O13 UNL     1      74.764  64.238 102.183  0.00  0.00    +0.000 OA
ATOM     39  N1  UNL     1      73.118  62.761 102.943  0.00  0.00    +0.000 N 
ATOM     40  C50 UNL     1      72.491  61.671 102.174  0.00  0.00    +0.000 C 
ATOM     41  C51 UNL     1      71.058  61.386 102.645  0.00  0.00    +0.000 C 
ATOM     42  C52 UNL     1      71.008  61.319 104.175  0.00  0.00    +0.000 C 
ATOM     43  C53 UNL     1      71.542  62.601 104.851  0.00  0.00    +0.000 C 
ATOM     44  C54 UNL     1      72.284  63.551 103.883  0.00  0.00    +0.000 C 
ATOM     45  C55 UNL     1      73.031  64.583 104.687  0.00  0.00    +0.000 C 
ATOM     46  O14 UNL     1      74.159  64.326 105.188  0.00  0.00    +0.000 OA
ATOM     47  O15 UNL     1      72.371  65.786 104.988  0.00  0.00    +0.000 OA
ENDROOT
BRANCH   1  48
ATOM     48  C14 UNL     1      72.127  66.448 107.351  0.00  0.00    +0.000 C 
ATOM     49  C15 UNL     1      70.616  66.174 107.207  0.00  0.00    +0.000 C 
BRANCH  48  50
ATOM     50  C13 UNL     1      72.858  65.286 108.088  0.00  0.00    +0.000 C 
BRANCH  50  53
ATOM     51  C2  UNL     1      73.755  67.209 111.452  0.00  0.00    +0.000 C 
ATOM     52  C3  UNL     1      73.797  66.898 109.934  0.00  0.00    +0.000 C 
ATOM     53  C4  UNL     1      73.280  65.479 109.580  0.00  0.00    +0.000 C 
ATOM     54  C5  UNL     1      72.238  64.981 110.603  0.00  0.00    +0.000 C 
ATOM     55  C6  UNL     1      72.846  64.882 112.019  0.00  0.00    +0.000 C 
ATOM     56  C7  UNL     1      73.936  65.947 112.312  0.00  0.00    +0.000 C 
BRANCH  51  58
ATOM     57  C1  UNL     1      75.747  68.173 110.720  0.00  0.00    +0.000 C 
ATOM     58  O1  UNL     1      74.798  68.122 111.762  0.00  0.00    +0.000 OA
ENDBRANCH  51  58
BRANCH  56  59
ATOM     59  O2  UNL     1      73.889  66.339 113.687  0.00  0.00    +0.000 OA
BRANCH  59  60
ATOM     60  C8  UNL     1      74.760  65.870 114.677  0.00  0.00    +0.000 C 
ATOM     61  O3  UNL     1      75.395  64.794 114.500  0.00  0.00    +0.000 OA
BRANCH  60  62
ATOM     62  C9  UNL     1      74.871  66.621 115.994  0.00  0.00    +0.000 C 
ATOM     63  C10 UNL     1      76.014  66.007 116.842  0.00  0.00    +0.000 C 
BRANCH  62  64
ATOM     64  C11 UNL     1      75.186  68.117 115.700  0.00  0.00    +0.000 C 
BRANCH  64  65
ATOM     65  O4  UNL     1      75.845  68.277 114.469  0.00  0.00    +0.000 OA
ATOM     66  H18 UNL     1      75.401  69.022 113.990  0.00  0.00    +0.000 HD
ENDBRANCH  64  65
ENDBRANCH  62  64
BRANCH  62  67
ATOM     67  C12 UNL     1      73.517  66.476 116.731  0.00  0.00    +0.000 C 
BRANCH  67  68
ATOM     68  O5  UNL     1      72.843  65.314 116.330  0.00  0.00    +0.000 OA
ATOM     69  H21 UNL     1      73.533  64.714 115.945  0.00  0.00    +0.000 HD
ENDBRANCH  67  68
ENDBRANCH  62  67
ENDBRANCH  60  62
ENDBRANCH  59  60
ENDBRANCH  56  59
ENDBRANCH  50  53
ENDBRANCH  48  50
ENDBRANCH   1  48
BRANCH  10  70
ATOM     70  O7  UNL     1      69.144  71.508 104.162  0.00  0.00    +0.000 OA
ATOM     71  H40 UNL     1      69.165  70.603 104.571  0.00  0.00    +0.000 HD
ENDBRANCH  10  70
BRANCH  11  72
ATOM     72  O8  UNL     1      69.038  74.496 104.016  0.00  0.00    +0.000 OA
ATOM     73  C26 UNL     1      67.976  74.793 104.898  0.00  0.00    +0.000 C 
ENDBRANCH  11  72
BRANCH  33  74
ATOM     74  O10 UNL     1      76.597  61.846 100.695  0.00  0.00    +0.000 OA
ATOM     75  H75 UNL     1      77.337  62.216 100.146  0.00  0.00    +0.000 HD
ENDBRANCH  33  74
BRANCH  26  76
ATOM     76  O16 UNL     1      76.756  65.347 100.256  0.00  0.00    +0.000 OA
ATOM     77  C56 UNL     1      76.299  65.478  98.926  0.00  0.00    +0.000 C 
ENDBRANCH  26  76
TORSDOF 15
ENDMDL
MODEL 9
REMARK VINA RESULT:      -7.3      2.439      4.334
REMARK  Name = ./S1044.pdb
REMARK  26 active torsions:
REMARK  status: ('A' for Active; 'I' for Inactive)
REMARK    1  A    between atoms: C1_1  and  O1_2
REMARK    2  A    between atoms: O1_2  and  C2_3
REMARK    3  A    between atoms: C4_5  and  C13_18
REMARK    4  A    between atoms: C7_8  and  O2_9
REMARK    5  A    between atoms: O2_9  and  C8_10
REMARK    6  A    between atoms: C8_10  and  C9_12
REMARK    7  A    between atoms: C9_12  and  C10_13
REMARK    8  A    between atoms: C9_12  and  C11_14
REMARK    9  A    between atoms: C9_12  and  C12_16
REMARK   10  A    between atoms: C11_14  and  O4_15
REMARK   11  A    between atoms: C12_16  and  O5_17
REMARK   12  A    between atoms: C13_18  and  C14_19
REMARK   13  A    between atoms: C14_19  and  C15_20
REMARK   14  A    between atoms: C14_19  and  C16_21
REMARK   15  A    between atoms: C19_25  and  C20_26
REMARK   16  A    between atoms: C22_28  and  C23_29
REMARK   17  A    between atoms: C24_30  and  O7_31
REMARK   18  A    between atoms: C25_32  and  O8_33
REMARK   19  A    between atoms: O8_33  and  C26_34
REMARK   20  A    between atoms: C28_37  and  C29_38
REMARK   21  A    between atoms: C31_40  and  C32_41
REMARK   22  A    between atoms: C38_47  and  C39_48
REMARK   23  A    between atoms: C40_49  and  O16_72
REMARK   24  A    between atoms: C45_54  and  C46_55
REMARK   25  A    between atoms: C47_56  and  O10_57
REMARK   26  A    between atoms: O16_72  and  C56_73
REMARK                            x       y       z     vdW  Elec       q    Type
REMARK                         _______ _______ _______ _____ _____    ______ ____
ROOT
ATOM      1  C16 UNL     1      77.302  63.999 106.378  0.00  0.00    +0.000 C 
ATOM      2  C17 UNL     1      78.772  63.539 106.244  0.00  0.00    +0.000 C 
ATOM      3  C18 UNL     1      79.147  63.138 104.837  0.00  0.00    +0.000 C 
ATOM      4  O6  UNL     1      79.199  64.007 103.977  0.00  0.00    +0.000 OA
ATOM      5  C19 UNL     1      79.496  61.689 104.507  0.00  0.00    +0.000 C 
ATOM      6  C20 UNL     1      79.720  61.485 102.991  0.00  0.00    +0.000 C 
ATOM      7  C21 UNL     1      80.711  61.257 105.318  0.00  0.00    +0.000 C 
ATOM      8  C22 UNL     1      81.236  60.008 105.365  0.00  0.00    +0.000 C 
ATOM      9  C23 UNL     1      80.629  58.857 104.594  0.00  0.00    +0.000 C 
ATOM     10  C24 UNL     1      82.445  59.723 106.253  0.00  0.00    +0.000 C 
ATOM     11  C25 UNL     1      83.794  60.064 105.556  0.00  0.00    +0.000 C 
ATOM     12  C27 UNL     1      84.123  61.550 105.592  0.00  0.00    +0.000 C 
ATOM     13  O9  UNL     1      84.403  62.068 106.672  0.00  0.00    +0.000 OA
ATOM     14  C28 UNL     1      84.216  62.397 104.328  0.00  0.00    +0.000 C 
ATOM     15  C29 UNL     1      85.676  62.804 104.093  0.00  0.00    +0.000 C 
ATOM     16  C30 UNL     1      83.283  63.631 104.457  0.00  0.00    +0.000 C 
ATOM     17  C31 UNL     1      83.337  64.684 103.323  0.00  0.00    +0.000 C 
ATOM     18  C32 UNL     1      82.869  64.119 101.978  0.00  0.00    +0.000 C 
ATOM     19  C33 UNL     1      82.438  65.828 103.719  0.00  0.00    +0.000 C 
ATOM     20  C34 UNL     1      82.811  67.109 103.622  0.00  0.00    +0.000 C 
ATOM     21  C35 UNL     1      81.987  68.213 104.160  0.00  0.00    +0.000 C 
ATOM     22  C36 UNL     1      81.235  68.059 105.257  0.00  0.00    +0.000 C 
ATOM     23  C37 UNL     1      80.378  69.107 105.843  0.00  0.00    +0.000 C 
ATOM     24  C38 UNL     1      80.751  70.371 106.141  0.00  0.00    +0.000 C 
ATOM     25  C39 UNL     1      82.121  70.910 105.807  0.00  0.00    +0.000 C 
ATOM     26  C40 UNL     1      79.811  71.223 106.985  0.00  0.00    +0.000 C 
ATOM     27  C41 UNL     1      78.539  71.605 106.176  0.00  0.00    +0.000 C 
ATOM     28  C42 UNL     1      77.331  71.895 107.086  0.00  0.00    +0.000 C 
ATOM     29  C43 UNL     1      76.266  72.707 106.350  0.00  0.00    +0.000 C 
ATOM     30  C44 UNL     1      75.117  72.991 107.314  0.00  0.00    +0.000 C 
ATOM     31  C45 UNL     1      74.599  71.696 107.972  0.00  0.00    +0.000 C 
ATOM     32  C46 UNL     1      73.561  72.077 109.050  0.00  0.00    +0.000 C 
ATOM     33  C47 UNL     1      75.787  70.801 108.506  0.00  0.00    +0.000 C 
ATOM     34  O11 UNL     1      76.771  70.657 107.492  0.00  0.00    +0.000 OA
ATOM     35  C48 UNL     1      75.327  69.383 108.849  0.00  0.00    +0.000 C 
ATOM     36  O12 UNL     1      74.098  69.101 108.905  0.00  0.00    +0.000 OA
ATOM     37  C49 UNL     1      76.292  68.302 109.162  0.00  0.00    +0.000 C 
ATOM     38  O13 UNL     1      77.471  68.347 108.718  0.00  0.00    +0.000 OA
ATOM     39  N1  UNL     1      75.873  67.183 109.966  0.00  0.00    +0.000 N 
ATOM     40  C50 UNL     1      75.464  67.466 111.353  0.00  0.00    +0.000 C 
ATOM     41  C51 UNL     1      74.992  66.199 112.082  0.00  0.00    +0.000 C 
ATOM     42  C52 UNL     1      74.035  65.401 111.189  0.00  0.00    +0.000 C 
ATOM     43  C53 UNL     1      74.657  65.027 109.826  0.00  0.00    +0.000 C 
ATOM     44  C54 UNL     1      75.975  65.772 109.519  0.00  0.00    +0.000 C 
ATOM     45  C55 UNL     1      76.314  65.586 108.062  0.00  0.00    +0.000 C 
ATOM     46  O14 UNL     1      75.782  66.306 107.173  0.00  0.00    +0.000 OA
ATOM     47  O15 UNL     1      77.123  64.493 107.710  0.00  0.00    +0.000 OA
ENDROOT
BRANCH   1  48
ATOM     48  C14 UNL     1      76.267  62.863 106.070  0.00  0.00    +0.000 C 
ATOM     49  C15 UNL     1      75.576  62.351 107.350  0.00  0.00    +0.000 C 
BRANCH  48  50
ATOM     50  C13 UNL     1      75.234  63.333 105.003  0.00  0.00    +0.000 C 
BRANCH  50  53
ATOM     51  C2  UNL     1      75.439  63.286 101.031  0.00  0.00    +0.000 C 
ATOM     52  C3  UNL     1      75.364  62.693 102.461  0.00  0.00    +0.000 C 
ATOM     53  C4  UNL     1      75.736  63.710 103.572  0.00  0.00    +0.000 C 
ATOM     54  C5  UNL     1      75.415  65.158 103.148  0.00  0.00    +0.000 C 
ATOM     55  C6  UNL     1      76.221  65.568 101.898  0.00  0.00    +0.000 C 
ATOM     56  C7  UNL     1      76.495  64.398 100.915  0.00  0.00    +0.000 C 
BRANCH  51  58
ATOM     57  C1  UNL     1      76.844  61.475 100.610  0.00  0.00    +0.000 C 
ATOM     58  O1  UNL     1      75.771  62.249 100.120  0.00  0.00    +0.000 OA
ENDBRANCH  51  58
BRANCH  56  59
ATOM     59  O2  UNL     1      76.491  64.873  99.566  0.00  0.00    +0.000 OA
BRANCH  59  60
ATOM     60  C8  UNL     1      77.606  65.404  98.907  0.00  0.00    +0.000 C 
ATOM     61  O3  UNL     1      78.768  65.148  99.326  0.00  0.00    +0.000 OA
BRANCH  60  62
ATOM     62  C9  UNL     1      77.403  66.354  97.737  0.00  0.00    +0.000 C 
ATOM     63  C10 UNL     1      78.369  65.972  96.588  0.00  0.00    +0.000 C 
BRANCH  62  64
ATOM     64  C11 UNL     1      75.932  66.240  97.241  0.00  0.00    +0.000 C 
BRANCH  64  65
ATOM     65  O4  UNL     1      75.031  66.830  98.145  0.00  0.00    +0.000 OA
ATOM     66  H18 UNL     1      75.569  67.280  98.846  0.00  0.00    +0.000 HD
ENDBRANCH  64  65
ENDBRANCH  62  64
BRANCH  62  67
ATOM     67  C12 UNL     1      77.705  67.787  98.241  0.00  0.00    +0.000 C 
BRANCH  67  68
ATOM     68  O5  UNL     1      77.476  67.899  99.619  0.00  0.00    +0.000 OA
ATOM     69  H21 UNL     1      76.524  67.659  99.762  0.00  0.00    +0.000 HD
ENDBRANCH  67  68
ENDBRANCH  62  67
ENDBRANCH  60  62
ENDBRANCH  59  60
ENDBRANCH  56  59
ENDBRANCH  50  53
ENDBRANCH  48  50
ENDBRANCH   1  48
BRANCH  10  70
ATOM     70  O7  UNL     1      82.306  60.380 107.495  0.00  0.00    +0.000 OA
ATOM     71  H40 UNL     1      82.369  61.356 107.322  0.00  0.00    +0.000 HD
ENDBRANCH  10  70
BRANCH  11  72
ATOM     72  O8  UNL     1      84.806  59.326 106.228  0.00  0.00    +0.000 OA
ATOM     73  C26 UNL     1      85.932  59.113 105.404  0.00  0.00    +0.000 C 
ENDBRANCH  11  72
BRANCH  33  74
ATOM     74  O10 UNL     1      76.376  71.384 109.653  0.00  0.00    +0.000 OA
ATOM     75  H75 UNL     1      77.328  71.581 109.454  0.00  0.00    +0.000 HD
ENDBRANCH  33  74
BRANCH  26  76
ATOM     76  O16 UNL     1      79.454  70.508 108.160  0.00  0.00    +0.000 OA
ATOM     77  C56 UNL     1      80.079  71.064 109.298  0.00  0.00    +0.000 C 
ENDBRANCH  26  76
TORSDOF 15
ENDMDL
MODEL 10
REMARK VINA RESULT:      -7.2      2.978      5.638
REMARK  Name = ./S1044.pdb
REMARK  26 active torsions:
REMARK  status: ('A' for Active; 'I' for Inactive)
REMARK    1  A    between atoms: C1_1  and  O1_2
REMARK    2  A    between atoms: O1_2  and  C2_3
REMARK    3  A    between atoms: C4_5  and  C13_18
REMARK    4  A    between atoms: C7_8  and  O2_9
REMARK    5  A    between atoms: O2_9  and  C8_10
REMARK    6  A    between atoms: C8_10  and  C9_12
REMARK    7  A    between atoms: C9_12  and  C10_13
REMARK    8  A    between atoms: C9_12  and  C11_14
REMARK    9  A    between atoms: C9_12  and  C12_16
REMARK   10  A    between atoms: C11_14  and  O4_15
REMARK   11  A    between atoms: C12_16  and  O5_17
REMARK   12  A    between atoms: C13_18  and  C14_19
REMARK   13  A    between atoms: C14_19  and  C15_20
REMARK   14  A    between atoms: C14_19  and  C16_21
REMARK   15  A    between atoms: C19_25  and  C20_26
REMARK   16  A    between atoms: C22_28  and  C23_29
REMARK   17  A    between atoms: C24_30  and  O7_31
REMARK   18  A    between atoms: C25_32  and  O8_33
REMARK   19  A    between atoms: O8_33  and  C26_34
REMARK   20  A    between atoms: C28_37  and  C29_38
REMARK   21  A    between atoms: C31_40  and  C32_41
REMARK   22  A    between atoms: C38_47  and  C39_48
REMARK   23  A    between atoms: C40_49  and  O16_72
REMARK   24  A    between atoms: C45_54  and  C46_55
REMARK   25  A    between atoms: C47_56  and  O10_57
REMARK   26  A    between atoms: O16_72  and  C56_73
REMARK                            x       y       z     vdW  Elec       q    Type
REMARK                         _______ _______ _______ _____ _____    ______ ____
ROOT
ATOM      1  C16 UNL     1      77.285  64.017 106.370  0.00  0.00    +0.000 C 
ATOM      2  C17 UNL     1      78.754  63.552 106.237  0.00  0.00    +0.000 C 
ATOM      3  C18 UNL     1      79.129  63.155 104.828  0.00  0.00    +0.000 C 
ATOM      4  O6  UNL     1      79.186  64.027 103.972  0.00  0.00    +0.000 OA
ATOM      5  C19 UNL     1      79.472  61.705 104.493  0.00  0.00    +0.000 C 
ATOM      6  C20 UNL     1      79.697  61.507 102.976  0.00  0.00    +0.000 C 
ATOM      7  C21 UNL     1      80.684  61.265 105.304  0.00  0.00    +0.000 C 
ATOM      8  C22 UNL     1      81.203  60.013 105.346  0.00  0.00    +0.000 C 
ATOM      9  C23 UNL     1      80.592  58.869 104.569  0.00  0.00    +0.000 C 
ATOM     10  C24 UNL     1      82.409  59.719 106.235  0.00  0.00    +0.000 C 
ATOM     11  C25 UNL     1      83.761  60.057 105.541  0.00  0.00    +0.000 C 
ATOM     12  C27 UNL     1      84.096  61.541 105.584  0.00  0.00    +0.000 C 
ATOM     13  O9  UNL     1      84.378  62.054 106.666  0.00  0.00    +0.000 OA
ATOM     14  C28 UNL     1      84.195  62.393 104.323  0.00  0.00    +0.000 C 
ATOM     15  C29 UNL     1      85.658  62.795 104.092  0.00  0.00    +0.000 C 
ATOM     16  C30 UNL     1      83.268  63.630 104.456  0.00  0.00    +0.000 C 
ATOM     17  C31 UNL     1      83.329  64.688 103.326  0.00  0.00    +0.000 C 
ATOM     18  C32 UNL     1      82.859  64.131 101.978  0.00  0.00    +0.000 C 
ATOM     19  C33 UNL     1      82.434  65.834 103.726  0.00  0.00    +0.000 C 
ATOM     20  C34 UNL     1      82.812  67.115 103.634  0.00  0.00    +0.000 C 
ATOM     21  C35 UNL     1      81.993  68.219 104.176  0.00  0.00    +0.000 C 
ATOM     22  C36 UNL     1      81.239  68.065 105.271  0.00  0.00    +0.000 C 
ATOM     23  C37 UNL     1      80.385  69.114 105.860  0.00  0.00    +0.000 C 
ATOM     24  C38 UNL     1      80.764  70.375 106.164  0.00  0.00    +0.000 C 
ATOM     25  C39 UNL     1      82.137  70.909 105.834  0.00  0.00    +0.000 C 
ATOM     26  C40 UNL     1      79.827  71.228 107.011  0.00  0.00    +0.000 C 
ATOM     27  C41 UNL     1      78.558  71.618 106.201  0.00  0.00    +0.000 C 
ATOM     28  C42 UNL     1      77.349  71.911 107.111  0.00  0.00    +0.000 C 
ATOM     29  C43 UNL     1      76.289  72.730 106.377  0.00  0.00    +0.000 C 
ATOM     30  C44 UNL     1      75.140  73.016 107.340  0.00  0.00    +0.000 C 
ATOM     31  C45 UNL     1      74.615  71.720 107.992  0.00  0.00    +0.000 C 
ATOM     32  C46 UNL     1      73.577  72.102 109.070  0.00  0.00    +0.000 C 
ATOM     33  C47 UNL     1      75.798  70.818 108.525  0.00  0.00    +0.000 C 
ATOM     34  O11 UNL     1      76.784  70.673 107.511  0.00  0.00    +0.000 OA
ATOM     35  C48 UNL     1      75.331  69.400 108.861  0.00  0.00    +0.000 C 
ATOM     36  O12 UNL     1      74.101  69.124 108.914  0.00  0.00    +0.000 OA
ATOM     37  C49 UNL     1      76.292  68.314 109.171  0.00  0.00    +0.000 C 
ATOM     38  O13 UNL     1      77.471  68.356 108.728  0.00  0.00    +0.000 OA
ATOM     39  N1  UNL     1      75.866  67.193 109.969  0.00  0.00    +0.000 N 
ATOM     40  C50 UNL     1      75.456  67.472 111.357  0.00  0.00    +0.000 C 
ATOM     41  C51 UNL     1      74.978  66.205 112.080  0.00  0.00    +0.000 C 
ATOM     42  C52 UNL     1      74.018  65.415 111.183  0.00  0.00    +0.000 C 
ATOM     43  C53 UNL     1      74.640  65.044 109.818  0.00  0.00    +0.000 C 
ATOM     44  C54 UNL     1      75.963  65.784 109.516  0.00  0.00    +0.000 C 
ATOM     45  C55 UNL     1      76.303  65.602 108.060  0.00  0.00    +0.000 C 
ATOM     46  O14 UNL     1      75.776  66.328 107.173  0.00  0.00    +0.000 OA
ATOM     47  O15 UNL     1      77.107  64.507 107.704  0.00  0.00    +0.000 OA
ENDROOT
BRANCH   1  48
ATOM     48  C14 UNL     1      76.246  62.888 106.056  0.00  0.00    +0.000 C 
ATOM     49  C15 UNL     1      75.370  62.555 107.280  0.00  0.00    +0.000 C 
BRANCH  48  50
ATOM     50  C13 UNL     1      75.385  63.261 104.812  0.00  0.00    +0.000 C 
BRANCH  50  53
ATOM     51  C2  UNL     1      74.717  60.131 102.452  0.00  0.00    +0.000 C 
ATOM     52  C3  UNL     1      75.092  60.876 103.758  0.00  0.00    +0.000 C 
ATOM     53  C4  UNL     1      75.465  62.365 103.535  0.00  0.00    +0.000 C 
ATOM     54  C5  UNL     1      74.747  62.953 102.302  0.00  0.00    +0.000 C 
ATOM     55  C6  UNL     1      75.148  62.207 101.012  0.00  0.00    +0.000 C 
ATOM     56  C7  UNL     1      75.450  60.699 101.225  0.00  0.00    +0.000 C 
BRANCH  51  58
ATOM     57  C1  UNL     1      75.552  58.494 103.885  0.00  0.00    +0.000 C 
ATOM     58  O1  UNL     1      75.061  58.760 102.590  0.00  0.00    +0.000 OA
ENDBRANCH  51  58
BRANCH  56  59
ATOM     59  O2  UNL     1      75.044  59.945 100.079  0.00  0.00    +0.000 OA
BRANCH  59  60
ATOM     60  C8  UNL     1      75.924  59.317  99.189  0.00  0.00    +0.000 C 
ATOM     61  O3  UNL     1      76.889  59.962  98.696  0.00  0.00    +0.000 OA
BRANCH  60  62
ATOM     62  C9  UNL     1      75.658  57.882  98.760  0.00  0.00    +0.000 C 
ATOM     63  C10 UNL     1      75.986  57.726  97.254  0.00  0.00    +0.000 C 
BRANCH  62  64
ATOM     64  C11 UNL     1      76.562  56.928  99.593  0.00  0.00    +0.000 C 
BRANCH  64  65
ATOM     65  O4  UNL     1      77.024  57.545 100.769  0.00  0.00    +0.000 OA
ATOM     66  H18 UNL     1      77.450  58.400 100.505  0.00  0.00    +0.000 HD
ENDBRANCH  64  65
ENDBRANCH  62  64
BRANCH  62  67
ATOM     67  C12 UNL     1      74.160  57.587  99.018  0.00  0.00    +0.000 C 
BRANCH  67  68
ATOM     68  O5  UNL     1      73.919  57.332 100.375  0.00  0.00    +0.000 OA
ATOM     69  H21 UNL     1      73.092  56.784 100.411  0.00  0.00    +0.000 HD
ENDBRANCH  67  68
ENDBRANCH  62  67
ENDBRANCH  60  62
ENDBRANCH  59  60
ENDBRANCH  56  59
ENDBRANCH  50  53
ENDBRANCH  48  50
ENDBRANCH   1  48
BRANCH  10  70
ATOM     70  O7  UNL     1      82.272  60.371 107.479  0.00  0.00    +0.000 OA
ATOM     71  H40 UNL     1      83.135  60.823 107.673  0.00  0.00    +0.000 HD
ENDBRANCH  10  70
BRANCH  11  72
ATOM     72  O8  UNL     1      84.768  59.311 106.211  0.00  0.00    +0.000 OA
ATOM     73  C26 UNL     1      84.458  57.934 106.254  0.00  0.00    +0.000 C 
ENDBRANCH  11  72
BRANCH  33  74
ATOM     74  O10 UNL     1      76.388  71.393 109.674  0.00  0.00    +0.000 OA
ATOM     75  H75 UNL     1      77.375  71.372 109.568  0.00  0.00    +0.000 HD
ENDBRANCH  33  74
BRANCH  26  76
ATOM     76  O16 UNL     1      79.465  70.510 108.182  0.00  0.00    +0.000 OA
ATOM     77  C56 UNL     1      80.089  71.060 109.323  0.00  0.00    +0.000 C 
ENDBRANCH  26  76
TORSDOF 15
ENDMDL
MODEL 11
REMARK VINA RESULT:      -7.1      3.279     11.001
REMARK  Name = ./S1044.pdb
REMARK  26 active torsions:
REMARK  status: ('A' for Active; 'I' for Inactive)
REMARK    1  A    between atoms: C1_1  and  O1_2
REMARK    2  A    between atoms: O1_2  and  C2_3
REMARK    3  A    between atoms: C4_5  and  C13_18
REMARK    4  A    between atoms: C7_8  and  O2_9
REMARK    5  A    between atoms: O2_9  and  C8_10
REMARK    6  A    between atoms: C8_10  and  C9_12
REMARK    7  A    between atoms: C9_12  and  C10_13
REMARK    8  A    between atoms: C9_12  and  C11_14
REMARK    9  A    between atoms: C9_12  and  C12_16
REMARK   10  A    between atoms: C11_14  and  O4_15
REMARK   11  A    between atoms: C12_16  and  O5_17
REMARK   12  A    between atoms: C13_18  and  C14_19
REMARK   13  A    between atoms: C14_19  and  C15_20
REMARK   14  A    between atoms: C14_19  and  C16_21
REMARK   15  A    between atoms: C19_25  and  C20_26
REMARK   16  A    between atoms: C22_28  and  C23_29
REMARK   17  A    between atoms: C24_30  and  O7_31
REMARK   18  A    between atoms: C25_32  and  O8_33
REMARK   19  A    between atoms: O8_33  and  C26_34
REMARK   20  A    between atoms: C28_37  and  C29_38
REMARK   21  A    between atoms: C31_40  and  C32_41
REMARK   22  A    between atoms: C38_47  and  C39_48
REMARK   23  A    between atoms: C40_49  and  O16_72
REMARK   24  A    between atoms: C45_54  and  C46_55
REMARK   25  A    between atoms: C47_56  and  O10_57
REMARK   26  A    between atoms: O16_72  and  C56_73
REMARK                            x       y       z     vdW  Elec       q    Type
REMARK                         _______ _______ _______ _____ _____    ______ ____
ROOT
ATOM      1  C16 UNL     1      73.239  66.507 106.881  0.00  0.00    +0.000 C 
ATOM      2  C17 UNL     1      72.635  67.688 106.086  0.00  0.00    +0.000 C 
ATOM      3  C18 UNL     1      73.159  69.035 106.526  0.00  0.00    +0.000 C 
ATOM      4  O6  UNL     1      74.330  69.308 106.302  0.00  0.00    +0.000 OA
ATOM      5  C19 UNL     1      72.233  70.049 107.195  0.00  0.00    +0.000 C 
ATOM      6  C20 UNL     1      73.006  71.298 107.677  0.00  0.00    +0.000 C 
ATOM      7  C21 UNL     1      71.104  70.419 106.243  0.00  0.00    +0.000 C 
ATOM      8  C22 UNL     1      70.039  71.205 106.536  0.00  0.00    +0.000 C 
ATOM      9  C23 UNL     1      69.847  71.811 107.908  0.00  0.00    +0.000 C 
ATOM     10  C24 UNL     1      68.968  71.460 105.478  0.00  0.00    +0.000 C 
ATOM     11  C25 UNL     1      69.336  72.632 104.522  0.00  0.00    +0.000 C 
ATOM     12  C27 UNL     1      70.313  72.222 103.428  0.00  0.00    +0.000 C 
ATOM     13  O9  UNL     1      69.926  71.455 102.547  0.00  0.00    +0.000 OA
ATOM     14  C28 UNL     1      71.718  72.803 103.328  0.00  0.00    +0.000 C 
ATOM     15  C29 UNL     1      71.811  73.703 102.088  0.00  0.00    +0.000 C 
ATOM     16  C30 UNL     1      72.757  71.651 103.287  0.00  0.00    +0.000 C 
ATOM     17  C31 UNL     1      74.239  72.038 103.054  0.00  0.00    +0.000 C 
ATOM     18  C32 UNL     1      74.807  72.887 104.196  0.00  0.00    +0.000 C 
ATOM     19  C33 UNL     1      75.032  70.761 102.945  0.00  0.00    +0.000 C 
ATOM     20  C34 UNL     1      75.935  70.549 101.980  0.00  0.00    +0.000 C 
ATOM     21  C35 UNL     1      76.590  69.237 101.787  0.00  0.00    +0.000 C 
ATOM     22  C36 UNL     1      75.955  68.089 102.050  0.00  0.00    +0.000 C 
ATOM     23  C37 UNL     1      76.547  66.746 101.897  0.00  0.00    +0.000 C 
ATOM     24  C38 UNL     1      77.182  66.273 100.802  0.00  0.00    +0.000 C 
ATOM     25  C39 UNL     1      77.456  67.132  99.591  0.00  0.00    +0.000 C 
ATOM     26  C40 UNL     1      77.486  64.781 100.730  0.00  0.00    +0.000 C 
ATOM     27  C41 UNL     1      78.592  64.395 101.752  0.00  0.00    +0.000 C 
ATOM     28  C42 UNL     1      78.511  62.916 102.173  0.00  0.00    +0.000 C 
ATOM     29  C43 UNL     1      79.832  62.437 102.773  0.00  0.00    +0.000 C 
ATOM     30  C44 UNL     1      79.697  60.961 103.134  0.00  0.00    +0.000 C 
ATOM     31  C45 UNL     1      78.458  60.706 104.018  0.00  0.00    +0.000 C 
ATOM     32  C46 UNL     1      78.293  59.182 104.201  0.00  0.00    +0.000 C 
ATOM     33  C47 UNL     1      77.177  61.431 103.443  0.00  0.00    +0.000 C 
ATOM     34  O11 UNL     1      77.486  62.785 103.145  0.00  0.00    +0.000 OA
ATOM     35  C48 UNL     1      76.038  61.476 104.464  0.00  0.00    +0.000 C 
ATOM     36  O12 UNL     1      76.096  60.791 105.523  0.00  0.00    +0.000 OA
ATOM     37  C49 UNL     1      74.817  62.287 104.238  0.00  0.00    +0.000 C 
ATOM     38  O13 UNL     1      74.850  63.299 103.487  0.00  0.00    +0.000 OA
ATOM     39  N1  UNL     1      73.589  61.925 104.898  0.00  0.00    +0.000 N 
ATOM     40  C50 UNL     1      73.002  60.618 104.557  0.00  0.00    +0.000 C 
ATOM     41  C51 UNL     1      71.727  60.333 105.365  0.00  0.00    +0.000 C 
ATOM     42  C52 UNL     1      71.954  60.665 106.845  0.00  0.00    +0.000 C 
ATOM     43  C53 UNL     1      72.409  62.124 107.069  0.00  0.00    +0.000 C 
ATOM     44  C54 UNL     1      72.828  62.851 105.772  0.00  0.00    +0.000 C 
ATOM     45  C55 UNL     1      73.547  64.125 106.136  0.00  0.00    +0.000 C 
ATOM     46  O14 UNL     1      74.771  64.115 106.442  0.00  0.00    +0.000 OA
ATOM     47  O15 UNL     1      72.785  65.296 106.268  0.00  0.00    +0.000 OA
ENDROOT
BRANCH   1  48
ATOM     48  C14 UNL     1      72.864  66.529 108.402  0.00  0.00    +0.000 C 
ATOM     49  C15 UNL     1      71.711  65.557 108.724  0.00  0.00    +0.000 C 
BRANCH  48  50
ATOM     50  C13 UNL     1      74.118  66.250 109.284  0.00  0.00    +0.000 C 
BRANCH  50  53
ATOM     51  C2  UNL     1      77.184  68.450 108.028  0.00  0.00    +0.000 C 
ATOM     52  C3  UNL     1      76.355  67.160 108.258  0.00  0.00    +0.000 C 
ATOM     53  C4  UNL     1      75.258  67.317 109.343  0.00  0.00    +0.000 C 
ATOM     54  C5  UNL     1      74.759  68.773 109.442  0.00  0.00    +0.000 C 
ATOM     55  C6  UNL     1      75.901  69.732 109.839  0.00  0.00    +0.000 C 
ATOM     56  C7  UNL     1      77.294  69.308 109.300  0.00  0.00    +0.000 C 
BRANCH  51  58
ATOM     57  C1  UNL     1      78.447  67.302 106.441  0.00  0.00    +0.000 C 
ATOM     58  O1  UNL     1      78.493  68.087 107.612  0.00  0.00    +0.000 OA
ENDBRANCH  51  58
BRANCH  56  59
ATOM     59  O2  UNL     1      78.077  70.463 108.987  0.00  0.00    +0.000 OA
BRANCH  59  60
ATOM     60  C8  UNL     1      79.269  70.814 109.633  0.00  0.00    +0.000 C 
ATOM     61  O3  UNL     1      79.535  70.334 110.769  0.00  0.00    +0.000 OA
BRANCH  60  62
ATOM     62  C9  UNL     1      80.194  71.838 108.995  0.00  0.00    +0.000 C 
ATOM     63  C10 UNL     1      79.520  73.233 109.029  0.00  0.00    +0.000 C 
BRANCH  62  64
ATOM     64  C11 UNL     1      81.528  71.884 109.796  0.00  0.00    +0.000 C 
BRANCH  64  65
ATOM     65  O4  UNL     1      82.227  70.667 109.710  0.00  0.00    +0.000 OA
ATOM     66  H18 UNL     1      81.859  70.066 110.407  0.00  0.00    +0.000 HD
ENDBRANCH  64  65
ENDBRANCH  62  64
BRANCH  62  67
ATOM     67  C12 UNL     1      80.443  71.396 107.532  0.00  0.00    +0.000 C 
BRANCH  67  68
ATOM     68  O5  UNL     1      80.482  69.999 107.424  0.00  0.00    +0.000 OA
ATOM     69  H21 UNL     1      79.637  69.733 106.975  0.00  0.00    +0.000 HD
ENDBRANCH  67  68
ENDBRANCH  62  67
ENDBRANCH  60  62
ENDBRANCH  59  60
ENDBRANCH  56  59
ENDBRANCH  50  53
ENDBRANCH  48  50
ENDBRANCH   1  48
BRANCH  10  70
ATOM     70  O7  UNL     1      68.679  70.271 104.776  0.00  0.00    +0.000 OA
ATOM     71  H40 UNL     1      67.691  70.188 104.728  0.00  0.00    +0.000 HD
ENDBRANCH  10  70
BRANCH  11  72
ATOM     72  O8  UNL     1      68.123  73.092 103.943  0.00  0.00    +0.000 OA
ATOM     73  C26 UNL     1      67.302  73.738 104.894  0.00  0.00    +0.000 C 
ENDBRANCH  11  72
BRANCH  33  74
ATOM     74  O10 UNL     1      76.719  60.784 102.272  0.00  0.00    +0.000 OA
ATOM     75  H75 UNL     1      77.366  60.961 101.539  0.00  0.00    +0.000 HD
ENDBRANCH  33  74
BRANCH  26  76
ATOM     76  O16 UNL     1      76.297  64.046 100.985  0.00  0.00    +0.000 OA
ATOM     77  C56 UNL     1      75.773  63.505  99.790  0.00  0.00    +0.000 C 
ENDBRANCH  26  76
TORSDOF 15
ENDMDL
MODEL 12
REMARK VINA RESULT:      -7.1      4.475      9.688
REMARK  Name = ./S1044.pdb
REMARK  26 active torsions:
REMARK  status: ('A' for Active; 'I' for Inactive)
REMARK    1  A    between atoms: C1_1  and  O1_2
REMARK    2  A    between atoms: O1_2  and  C2_3
REMARK    3  A    between atoms: C4_5  and  C13_18
REMARK    4  A    between atoms: C7_8  and  O2_9
REMARK    5  A    between atoms: O2_9  and  C8_10
REMARK    6  A    between atoms: C8_10  and  C9_12
REMARK    7  A    between atoms: C9_12  and  C10_13
REMARK    8  A    between atoms: C9_12  and  C11_14
REMARK    9  A    between atoms: C9_12  and  C12_16
REMARK   10  A    between atoms: C11_14  and  O4_15
REMARK   11  A    between atoms: C12_16  and  O5_17
REMARK   12  A    between atoms: C13_18  and  C14_19
REMARK   13  A    between atoms: C14_19  and  C15_20
REMARK   14  A    between atoms: C14_19  and  C16_21
REMARK   15  A    between atoms: C19_25  and  C20_26
REMARK   16  A    between atoms: C22_28  and  C23_29
REMARK   17  A    between atoms: C24_30  and  O7_31
REMARK   18  A    between atoms: C25_32  and  O8_33
REMARK   19  A    between atoms: O8_33  and  C26_34
REMARK   20  A    between atoms: C28_37  and  C29_38
REMARK   21  A    between atoms: C31_40  and  C32_41
REMARK   22  A    between atoms: C38_47  and  C39_48
REMARK   23  A    between atoms: C40_49  and  O16_72
REMARK   24  A    between atoms: C45_54  and  C46_55
REMARK   25  A    between atoms: C47_56  and  O10_57
REMARK   26  A    between atoms: O16_72  and  C56_73
REMARK                            x       y       z     vdW  Elec       q    Type
REMARK                         _______ _______ _______ _____ _____    ______ ____
ROOT
ATOM      1  C16 UNL     1      76.356  66.778 105.423  0.00  0.00    +0.000 C 
ATOM      2  C17 UNL     1      76.672  67.317 104.008  0.00  0.00    +0.000 C 
ATOM      3  C18 UNL     1      78.148  67.526 103.764  0.00  0.00    +0.000 C 
ATOM      4  O6  UNL     1      78.873  66.544 103.698  0.00  0.00    +0.000 OA
ATOM      5  C19 UNL     1      78.711  68.931 103.559  0.00  0.00    +0.000 C 
ATOM      6  C20 UNL     1      80.254  68.919 103.457  0.00  0.00    +0.000 C 
ATOM      7  C21 UNL     1      78.071  69.566 102.332  0.00  0.00    +0.000 C 
ATOM      8  C22 UNL     1      78.248  70.842 101.911  0.00  0.00    +0.000 C 
ATOM      9  C23 UNL     1      79.127  71.817 102.662  0.00  0.00    +0.000 C 
ATOM     10  C24 UNL     1      77.509  71.344 100.672  0.00  0.00    +0.000 C 
ATOM     11  C25 UNL     1      78.254  71.000  99.350  0.00  0.00    +0.000 C 
ATOM     12  C27 UNL     1      78.028  69.564  98.897  0.00  0.00    +0.000 C 
ATOM     13  O9  UNL     1      76.910  69.237  98.502  0.00  0.00    +0.000 OA
ATOM     14  C28 UNL     1      79.159  68.545  98.820  0.00  0.00    +0.000 C 
ATOM     15  C29 UNL     1      79.447  68.213  97.350  0.00  0.00    +0.000 C 
ATOM     16  C30 UNL     1      78.778  67.281  99.636  0.00  0.00    +0.000 C 
ATOM     17  C31 UNL     1      79.748  66.075  99.572  0.00  0.00    +0.000 C 
ATOM     18  C32 UNL     1      81.120  66.395 100.176  0.00  0.00    +0.000 C 
ATOM     19  C33 UNL     1      79.120  64.942 100.344  0.00  0.00    +0.000 C 
ATOM     20  C34 UNL     1      79.059  63.691  99.874  0.00  0.00    +0.000 C 
ATOM     21  C35 UNL     1      78.302  62.625 100.566  0.00  0.00    +0.000 C 
ATOM     22  C36 UNL     1      77.183  62.889 101.251  0.00  0.00    +0.000 C 
ATOM     23  C37 UNL     1      76.385  61.882 101.977  0.00  0.00    +0.000 C 
ATOM     24  C38 UNL     1      75.937  60.709 101.481  0.00  0.00    +0.000 C 
ATOM     25  C39 UNL     1      76.296  60.225 100.096  0.00  0.00    +0.000 C 
ATOM     26  C40 UNL     1      74.905  59.928 102.288  0.00  0.00    +0.000 C 
ATOM     27  C41 UNL     1      75.547  59.338 103.575  0.00  0.00    +0.000 C 
ATOM     28  C42 UNL     1      74.512  59.102 104.691  0.00  0.00    +0.000 C 
ATOM     29  C43 UNL     1      75.035  58.114 105.733  0.00  0.00    +0.000 C 
ATOM     30  C44 UNL     1      73.952  57.897 106.786  0.00  0.00    +0.000 C 
ATOM     31  C45 UNL     1      73.451  59.236 107.364  0.00  0.00    +0.000 C 
ATOM     32  C46 UNL     1      72.250  58.949 108.292  0.00  0.00    +0.000 C 
ATOM     33  C47 UNL     1      73.148  60.284 106.221  0.00  0.00    +0.000 C 
ATOM     34  O11 UNL     1      74.247  60.344 105.322  0.00  0.00    +0.000 OA
ATOM     35  C48 UNL     1      72.980  61.702 106.773  0.00  0.00    +0.000 C 
ATOM     36  O12 UNL     1      72.868  61.899 108.014  0.00  0.00    +0.000 OA
ATOM     37  C49 UNL     1      72.904  62.884 105.881  0.00  0.00    +0.000 C 
ATOM     38  O13 UNL     1      73.430  62.857 104.735  0.00  0.00    +0.000 OA
ATOM     39  N1  UNL     1      72.241  64.079 106.337  0.00  0.00    +0.000 N 
ATOM     40  C50 UNL     1      70.800  63.980 106.626  0.00  0.00    +0.000 C 
ATOM     41  C51 UNL     1      70.228  65.305 107.151  0.00  0.00    +0.000 C 
ATOM     42  C52 UNL     1      71.148  65.888 108.229  0.00  0.00    +0.000 C 
ATOM     43  C53 UNL     1      72.597  66.095 107.734  0.00  0.00    +0.000 C 
ATOM     44  C54 UNL     1      72.896  65.409 106.382  0.00  0.00    +0.000 C 
ATOM     45  C55 UNL     1      74.386  65.397 106.159  0.00  0.00    +0.000 C 
ATOM     46  O14 UNL     1      75.116  64.515 106.688  0.00  0.00    +0.000 OA
ATOM     47  O15 UNL     1      74.957  66.479 105.469  0.00  0.00    +0.000 OA
ENDROOT
BRANCH   1  48
ATOM     48  C14 UNL     1      76.744  67.777 106.566  0.00  0.00    +0.000 C 
ATOM     49  C15 UNL     1      75.654  68.845 106.790  0.00  0.00    +0.000 C 
BRANCH  48  50
ATOM     50  C13 UNL     1      77.079  67.008 107.880  0.00  0.00    +0.000 C 
BRANCH  50  53
ATOM     51  C2  UNL     1      75.183  65.662 111.106  0.00  0.00    +0.000 C 
ATOM     52  C3  UNL     1      75.851  65.584 109.710  0.00  0.00    +0.000 C 
ATOM     53  C4  UNL     1      76.019  66.966 109.027  0.00  0.00    +0.000 C 
ATOM     54  C5  UNL     1      76.161  68.100 110.064  0.00  0.00    +0.000 C 
ATOM     55  C6  UNL     1      74.905  68.206 110.955  0.00  0.00    +0.000 C 
ATOM     56  C7  UNL     1      74.206  66.845 111.221  0.00  0.00    +0.000 C 
BRANCH  51  58
ATOM     57  C1  UNL     1      75.328  63.445 111.808  0.00  0.00    +0.000 C 
ATOM     58  O1  UNL     1      74.466  64.459 111.341  0.00  0.00    +0.000 OA
ENDBRANCH  51  58
BRANCH  56  59
ATOM     59  O2  UNL     1      73.641  66.827 112.534  0.00  0.00    +0.000 OA
BRANCH  59  60
ATOM     60  C8  UNL     1      74.373  66.990 113.716  0.00  0.00    +0.000 C 
ATOM     61  O3  UNL     1      75.260  67.885 113.791  0.00  0.00    +0.000 OA
BRANCH  60  62
ATOM     62  C9  UNL     1      74.151  66.031 114.875  0.00  0.00    +0.000 C 
ATOM     63  C10 UNL     1      73.202  64.892 114.425  0.00  0.00    +0.000 C 
BRANCH  62  64
ATOM     64  C11 UNL     1      75.520  65.429 115.305  0.00  0.00    +0.000 C 
BRANCH  64  65
ATOM     65  O4  UNL     1      76.227  66.299 116.153  0.00  0.00    +0.000 OA
ATOM     66  H18 UNL     1      75.828  67.201 116.049  0.00  0.00    +0.000 HD
ENDBRANCH  64  65
ENDBRANCH  62  64
BRANCH  62  67
ATOM     67  C12 UNL     1      73.514  66.836 116.034  0.00  0.00    +0.000 C 
BRANCH  67  68
ATOM     68  O5  UNL     1      72.608  67.790 115.551  0.00  0.00    +0.000 OA
ATOM     69  H21 UNL     1      73.136  68.614 115.385  0.00  0.00    +0.000 HD
ENDBRANCH  67  68
ENDBRANCH  62  67
ENDBRANCH  60  62
ENDBRANCH  59  60
ENDBRANCH  56  59
ENDBRANCH  50  53
ENDBRANCH  48  50
ENDBRANCH   1  48
BRANCH  10  70
ATOM     70  O7  UNL     1      76.178  70.875 100.671  0.00  0.00    +0.000 OA
ATOM     71  H40 UNL     1      76.032  70.399 101.530  0.00  0.00    +0.000 HD
ENDBRANCH  10  70
BRANCH  11  72
ATOM     72  O8  UNL     1      77.779  71.902  98.360  0.00  0.00    +0.000 OA
ATOM     73  C26 UNL     1      78.659  71.980  97.259  0.00  0.00    +0.000 C 
ENDBRANCH  11  72
BRANCH  33  74
ATOM     74  O10 UNL     1      71.979  59.926 105.510  0.00  0.00    +0.000 OA
ATOM     75  H75 UNL     1      71.451  60.748 105.333  0.00  0.00    +0.000 HD
ENDBRANCH  33  74
BRANCH  26  76
ATOM     76  O16 UNL     1      73.823  60.785 102.622  0.00  0.00    +0.000 OA
ATOM     77  C56 UNL     1      72.729  60.578 101.754  0.00  0.00    +0.000 C 
ENDBRANCH  26  76
TORSDOF 15
ENDMDL
MODEL 13
REMARK VINA RESULT:      -7.0      5.876     12.063
REMARK  Name = ./S1044.pdb
REMARK  26 active torsions:
REMARK  status: ('A' for Active; 'I' for Inactive)
REMARK    1  A    between atoms: C1_1  and  O1_2
REMARK    2  A    between atoms: O1_2  and  C2_3
REMARK    3  A    between atoms: C4_5  and  C13_18
REMARK    4  A    between atoms: C7_8  and  O2_9
REMARK    5  A    between atoms: O2_9  and  C8_10
REMARK    6  A    between atoms: C8_10  and  C9_12
REMARK    7  A    between atoms: C9_12  and  C10_13
REMARK    8  A    between atoms: C9_12  and  C11_14
REMARK    9  A    between atoms: C9_12  and  C12_16
REMARK   10  A    between atoms: C11_14  and  O4_15
REMARK   11  A    between atoms: C12_16  and  O5_17
REMARK   12  A    between atoms: C13_18  and  C14_19
REMARK   13  A    between atoms: C14_19  and  C15_20
REMARK   14  A    between atoms: C14_19  and  C16_21
REMARK   15  A    between atoms: C19_25  and  C20_26
REMARK   16  A    between atoms: C22_28  and  C23_29
REMARK   17  A    between atoms: C24_30  and  O7_31
REMARK   18  A    between atoms: C25_32  and  O8_33
REMARK   19  A    between atoms: O8_33  and  C26_34
REMARK   20  A    between atoms: C28_37  and  C29_38
REMARK   21  A    between atoms: C31_40  and  C32_41
REMARK   22  A    between atoms: C38_47  and  C39_48
REMARK   23  A    between atoms: C40_49  and  O16_72
REMARK   24  A    between atoms: C45_54  and  C46_55
REMARK   25  A    between atoms: C47_56  and  O10_57
REMARK   26  A    between atoms: O16_72  and  C56_73
REMARK                            x       y       z     vdW  Elec       q    Type
REMARK                         _______ _______ _______ _____ _____    ______ ____
ROOT
ATOM      1  C16 UNL     1      76.775  68.329 101.730  0.00  0.00    +0.000 C 
ATOM      2  C17 UNL     1      76.420  69.833 101.774  0.00  0.00    +0.000 C 
ATOM      3  C18 UNL     1      75.605  70.290 100.587  0.00  0.00    +0.000 C 
ATOM      4  O6  UNL     1      74.456  69.885 100.478  0.00  0.00    +0.000 OA
ATOM      5  C19 UNL     1      76.189  71.271  99.573  0.00  0.00    +0.000 C 
ATOM      6  C20 UNL     1      75.233  71.497  98.380  0.00  0.00    +0.000 C 
ATOM      7  C21 UNL     1      76.539  72.580 100.269  0.00  0.00    +0.000 C 
ATOM      8  C22 UNL     1      77.175  73.637  99.707  0.00  0.00    +0.000 C 
ATOM      9  C23 UNL     1      77.640  73.616  98.268  0.00  0.00    +0.000 C 
ATOM     10  C24 UNL     1      77.484  74.874 100.547  0.00  0.00    +0.000 C 
ATOM     11  C25 UNL     1      76.287  75.867 100.613  0.00  0.00    +0.000 C 
ATOM     12  C27 UNL     1      75.226  75.451 101.623  0.00  0.00    +0.000 C 
ATOM     13  O9  UNL     1      75.498  75.500 102.822  0.00  0.00    +0.000 OA
ATOM     14  C28 UNL     1      73.808  75.074 101.210  0.00  0.00    +0.000 C 
ATOM     15  C29 UNL     1      72.831  76.154 101.694  0.00  0.00    +0.000 C 
ATOM     16  C30 UNL     1      73.454  73.675 101.778  0.00  0.00    +0.000 C 
ATOM     17  C31 UNL     1      72.003  73.171 101.574  0.00  0.00    +0.000 C 
ATOM     18  C32 UNL     1      71.658  72.968 100.095  0.00  0.00    +0.000 C 
ATOM     19  C33 UNL     1      71.871  71.855 102.299  0.00  0.00    +0.000 C 
ATOM     20  C34 UNL     1      70.837  71.569 103.098  0.00  0.00    +0.000 C 
ATOM     21  C35 UNL     1      70.796  70.345 103.926  0.00  0.00    +0.000 C 
ATOM     22  C36 UNL     1      71.908  69.806 104.441  0.00  0.00    +0.000 C 
ATOM     23  C37 UNL     1      71.947  68.581 105.262  0.00  0.00    +0.000 C 
ATOM     24  C38 UNL     1      71.186  68.322 106.348  0.00  0.00    +0.000 C 
ATOM     25  C39 UNL     1      70.093  69.255 106.811  0.00  0.00    +0.000 C 
ATOM     26  C40 UNL     1      71.554  67.129 107.222  0.00  0.00    +0.000 C 
ATOM     27  C41 UNL     1      71.259  65.794 106.481  0.00  0.00    +0.000 C 
ATOM     28  C42 UNL     1      72.135  64.634 106.992  0.00  0.00    +0.000 C 
ATOM     29  C43 UNL     1      71.532  63.280 106.622  0.00  0.00    +0.000 C 
ATOM     30  C44 UNL     1      72.425  62.178 107.186  0.00  0.00    +0.000 C 
ATOM     31  C45 UNL     1      73.894  62.368 106.756  0.00  0.00    +0.000 C 
ATOM     32  C46 UNL     1      74.758  61.323 107.495  0.00  0.00    +0.000 C 
ATOM     33  C47 UNL     1      74.371  63.861 106.961  0.00  0.00    +0.000 C 
ATOM     34  O11 UNL     1      73.417  64.749 106.396  0.00  0.00    +0.000 OA
ATOM     35  C48 UNL     1      75.689  64.145 106.237  0.00  0.00    +0.000 C 
ATOM     36  O12 UNL     1      76.378  63.202 105.760  0.00  0.00    +0.000 OA
ATOM     37  C49 UNL     1      76.224  65.522 106.101  0.00  0.00    +0.000 C 
ATOM     38  O13 UNL     1      75.450  66.516 106.132  0.00  0.00    +0.000 OA
ATOM     39  N1  UNL     1      77.638  65.720 105.914  0.00  0.00    +0.000 N 
ATOM     40  C50 UNL     1      78.529  65.289 107.005  0.00  0.00    +0.000 C 
ATOM     41  C51 UNL     1      80.009  65.508 106.659  0.00  0.00    +0.000 C 
ATOM     42  C52 UNL     1      80.300  65.006 105.240  0.00  0.00    +0.000 C 
ATOM     43  C53 UNL     1      79.402  65.670 104.172  0.00  0.00    +0.000 C 
ATOM     44  C54 UNL     1      78.214  66.461 104.764  0.00  0.00    +0.000 C 
ATOM     45  C55 UNL     1      77.241  66.782 103.659  0.00  0.00    +0.000 C 
ATOM     46  O14 UNL     1      76.393  65.933 103.272  0.00  0.00    +0.000 OA
ATOM     47  O15 UNL     1      77.404  67.996 102.972  0.00  0.00    +0.000 OA
ENDROOT
BRANCH   1  48
ATOM     48  C14 UNL     1      77.699  67.946 100.525  0.00  0.00    +0.000 C 
ATOM     49  C15 UNL     1      78.977  67.218 100.989  0.00  0.00    +0.000 C 
BRANCH  48  50
ATOM     50  C13 UNL     1      76.911  67.115  99.468  0.00  0.00    +0.000 C 
BRANCH  50  53
ATOM     51  C2  UNL     1      77.880  68.789  95.993  0.00  0.00    +0.000 C 
ATOM     52  C3  UNL     1      77.052  68.562  97.283  0.00  0.00    +0.000 C 
ATOM     53  C4  UNL     1      77.334  67.199  97.966  0.00  0.00    +0.000 C 
ATOM     54  C5  UNL     1      78.769  66.706  97.683  0.00  0.00    +0.000 C 
ATOM     55  C6  UNL     1      79.000  66.491  96.172  0.00  0.00    +0.000 C 
ATOM     56  C7  UNL     1      78.207  67.473  95.268  0.00  0.00    +0.000 C 
BRANCH  51  58
ATOM     57  C1  UNL     1      75.788  69.218  95.060  0.00  0.00    +0.000 C 
ATOM     58  O1  UNL     1      77.139  69.620  95.111  0.00  0.00    +0.000 OA
ENDBRANCH  51  58
BRANCH  56  59
ATOM     59  O2  UNL     1      78.962  67.788  94.096  0.00  0.00    +0.000 OA
BRANCH  59  60
ATOM     60  C8  UNL     1      80.273  68.279  94.105  0.00  0.00    +0.000 C 
ATOM     61  O3  UNL     1      80.510  69.439  94.541  0.00  0.00    +0.000 OA
BRANCH  60  62
ATOM     62  C9  UNL     1      81.392  67.439  93.508  0.00  0.00    +0.000 C 
ATOM     63  C10 UNL     1      82.223  66.803  94.650  0.00  0.00    +0.000 C 
BRANCH  62  64
ATOM     64  C11 UNL     1      80.769  66.316  92.628  0.00  0.00    +0.000 C 
BRANCH  64  65
ATOM     65  O4  UNL     1      81.243  65.045  92.996  0.00  0.00    +0.000 OA
ATOM     66  H18 UNL     1      80.658  64.711  93.723  0.00  0.00    +0.000 HD
ENDBRANCH  64  65
ENDBRANCH  62  64
BRANCH  62  67
ATOM     67  C12 UNL     1      82.279  68.380  92.655  0.00  0.00    +0.000 C 
BRANCH  67  68
ATOM     68  O5  UNL     1      83.185  69.087  93.457  0.00  0.00    +0.000 OA
ATOM     69  H21 UNL     1      83.435  68.477  94.198  0.00  0.00    +0.000 HD
ENDBRANCH  67  68
ENDBRANCH  62  67
ENDBRANCH  60  62
ENDBRANCH  59  60
ENDBRANCH  56  59
ENDBRANCH  50  53
ENDBRANCH  48  50
ENDBRANCH   1  48
BRANCH  10  70
ATOM     70  O7  UNL     1      77.934  74.496 101.830  0.00  0.00    +0.000 OA
ATOM     71  H40 UNL     1      78.081  75.329 102.349  0.00  0.00    +0.000 HD
ENDBRANCH  10  70
BRANCH  11  72
ATOM     72  O8  UNL     1      76.821  77.137 100.964  0.00  0.00    +0.000 OA
ATOM     73  C26 UNL     1      75.948  78.187 100.605  0.00  0.00    +0.000 C 
ENDBRANCH  11  72
BRANCH  33  74
ATOM     74  O10 UNL     1      74.528  64.152 108.336  0.00  0.00    +0.000 OA
ATOM     75  H75 UNL     1      75.479  64.014 108.582  0.00  0.00    +0.000 HD
ENDBRANCH  33  74
BRANCH  26  76
ATOM     76  O16 UNL     1      72.928  67.207 107.572  0.00  0.00    +0.000 OA
ATOM     77  C56 UNL     1      73.098  67.889 108.797  0.00  0.00    +0.000 C 
ENDBRANCH  26  76
TORSDOF 15
ENDMDL
MODEL 14
REMARK VINA RESULT:      -7.0      3.596     10.456
REMARK  Name = ./S1044.pdb
REMARK  26 active torsions:
REMARK  status: ('A' for Active; 'I' for Inactive)
REMARK    1  A    between atoms: C1_1  and  O1_2
REMARK    2  A    between atoms: O1_2  and  C2_3
REMARK    3  A    between atoms: C4_5  and  C13_18
REMARK    4  A    between atoms: C7_8  and  O2_9
REMARK    5  A    between atoms: O2_9  and  C8_10
REMARK    6  A    between atoms: C8_10  and  C9_12
REMARK    7  A    between atoms: C9_12  and  C10_13
REMARK    8  A    between atoms: C9_12  and  C11_14
REMARK    9  A    between atoms: C9_12  and  C12_16
REMARK   10  A    between atoms: C11_14  and  O4_15
REMARK   11  A    between atoms: C12_16  and  O5_17
REMARK   12  A    between atoms: C13_18  and  C14_19
REMARK   13  A    between atoms: C14_19  and  C15_20
REMARK   14  A    between atoms: C14_19  and  C16_21
REMARK   15  A    between atoms: C19_25  and  C20_26
REMARK   16  A    between atoms: C22_28  and  C23_29
REMARK   17  A    between atoms: C24_30  and  O7_31
REMARK   18  A    between atoms: C25_32  and  O8_33
REMARK   19  A    between atoms: O8_33  and  C26_34
REMARK   20  A    between atoms: C28_37  and  C29_38
REMARK   21  A    between atoms: C31_40  and  C32_41
REMARK   22  A    between atoms: C38_47  and  C39_48
REMARK   23  A    between atoms: C40_49  and  O16_72
REMARK   24  A    between atoms: C45_54  and  C46_55
REMARK   25  A    between atoms: C47_56  and  O10_57
REMARK   26  A    between atoms: O16_72  and  C56_73
REMARK                            x       y       z     vdW  Elec       q    Type
REMARK                         _______ _______ _______ _____ _____    ______ ____
ROOT
ATOM      1  C16 UNL     1      73.317  65.719 106.493  0.00  0.00    +0.000 C 
ATOM      2  C17 UNL     1      73.925  67.106 106.183  0.00  0.00    +0.000 C 
ATOM      3  C18 UNL     1      74.576  67.756 107.382  0.00  0.00    +0.000 C 
ATOM      4  O6  UNL     1      75.599  67.258 107.831  0.00  0.00    +0.000 OA
ATOM      5  C19 UNL     1      73.992  69.029 107.990  0.00  0.00    +0.000 C 
ATOM      6  C20 UNL     1      74.739  69.441 109.280  0.00  0.00    +0.000 C 
ATOM      7  C21 UNL     1      74.004  70.144 106.953  0.00  0.00    +0.000 C 
ATOM      8  C22 UNL     1      73.465  71.379 107.103  0.00  0.00    +0.000 C 
ATOM      9  C23 UNL     1      72.749  71.789 108.370  0.00  0.00    +0.000 C 
ATOM     10  C24 UNL     1      73.531  72.383 105.955  0.00  0.00    +0.000 C 
ATOM     11  C25 UNL     1      74.871  73.173 105.926  0.00  0.00    +0.000 C 
ATOM     12  C27 UNL     1      76.012  72.386 105.297  0.00  0.00    +0.000 C 
ATOM     13  O9  UNL     1      75.976  72.153 104.089  0.00  0.00    +0.000 OA
ATOM     14  C28 UNL     1      77.245  71.962 106.087  0.00  0.00    +0.000 C 
ATOM     15  C29 UNL     1      78.464  72.753 105.594  0.00  0.00    +0.000 C 
ATOM     16  C30 UNL     1      77.453  70.431 105.947  0.00  0.00    +0.000 C 
ATOM     17  C31 UNL     1      78.735  69.827 106.575  0.00  0.00    +0.000 C 
ATOM     18  C32 UNL     1      78.764  69.976 108.100  0.00  0.00    +0.000 C 
ATOM     19  C33 UNL     1      78.770  68.362 106.219  0.00  0.00    +0.000 C 
ATOM     20  C34 UNL     1      79.869  67.757 105.754  0.00  0.00    +0.000 C 
ATOM     21  C35 UNL     1      79.851  66.363 105.259  0.00  0.00    +0.000 C 
ATOM     22  C36 UNL     1      78.776  65.846 104.651  0.00  0.00    +0.000 C 
ATOM     23  C37 UNL     1      78.680  64.464 104.146  0.00  0.00    +0.000 C 
ATOM     24  C38 UNL     1      79.570  63.842 103.343  0.00  0.00    +0.000 C 
ATOM     25  C39 UNL     1      80.873  64.485 102.929  0.00  0.00    +0.000 C 
ATOM     26  C40 UNL     1      79.171  62.516 102.708  0.00  0.00    +0.000 C 
ATOM     27  C41 UNL     1      79.093  61.394 103.782  0.00  0.00    +0.000 C 
ATOM     28  C42 UNL     1      78.140  60.255 103.372  0.00  0.00    +0.000 C 
ATOM     29  C43 UNL     1      78.425  58.981 104.166  0.00  0.00    +0.000 C 
ATOM     30  C44 UNL     1      77.476  57.886 103.688  0.00  0.00    +0.000 C 
ATOM     31  C45 UNL     1      76.007  58.355 103.730  0.00  0.00    +0.000 C 
ATOM     32  C46 UNL     1      75.127  57.265 103.080  0.00  0.00    +0.000 C 
ATOM     33  C47 UNL     1      75.838  59.790 103.089  0.00  0.00    +0.000 C 
ATOM     34  O11 UNL     1      76.810  60.674 103.629  0.00  0.00    +0.000 OA
ATOM     35  C48 UNL     1      74.478  60.409 103.420  0.00  0.00    +0.000 C 
ATOM     36  O12 UNL     1      73.563  59.711 103.938  0.00  0.00    +0.000 OA
ATOM     37  C49 UNL     1      74.169  61.827 103.115  0.00  0.00    +0.000 C 
ATOM     38  O13 UNL     1      75.094  62.679 103.027  0.00  0.00    +0.000 OA
ATOM     39  N1  UNL     1      72.800  62.235 102.936  0.00  0.00    +0.000 N 
ATOM     40  C50 UNL     1      72.063  61.645 101.806  0.00  0.00    +0.000 C 
ATOM     41  C51 UNL     1      70.604  62.122 101.759  0.00  0.00    +0.000 C 
ATOM     42  C52 UNL     1      69.978  62.045 103.156  0.00  0.00    +0.000 C 
ATOM     43  C53 UNL     1      70.765  62.851 104.212  0.00  0.00    +0.000 C 
ATOM     44  C54 UNL     1      72.159  63.313 103.730  0.00  0.00    +0.000 C 
ATOM     45  C55 UNL     1      72.953  63.792 104.918  0.00  0.00    +0.000 C 
ATOM     46  O14 UNL     1      73.560  62.977 105.666  0.00  0.00    +0.000 OA
ATOM     47  O15 UNL     1      72.878  65.153 105.254  0.00  0.00    +0.000 OA
ENDROOT
BRANCH   1  48
ATOM     48  C14 UNL     1      72.136  65.776 107.521  0.00  0.00    +0.000 C 
ATOM     49  C15 UNL     1      70.764  65.828 106.819  0.00  0.00    +0.000 C 
BRANCH  48  50
ATOM     50  C13 UNL     1      72.225  64.592 108.530  0.00  0.00    +0.000 C 
BRANCH  50  53
ATOM     51  C2  UNL     1      75.135  64.827 111.231  0.00  0.00    +0.000 C 
ATOM     52  C3  UNL     1      74.310  64.204 110.077  0.00  0.00    +0.000 C 
ATOM     53  C4  UNL     1      72.898  64.827 109.921  0.00  0.00    +0.000 C 
ATOM     54  C5  UNL     1      72.866  66.293 110.401  0.00  0.00    +0.000 C 
ATOM     55  C6  UNL     1      73.225  66.400 111.898  0.00  0.00    +0.000 C 
ATOM     56  C7  UNL     1      74.245  65.333 112.378  0.00  0.00    +0.000 C 
BRANCH  51  58
ATOM     57  C1  UNL     1      75.332  62.647 112.029  0.00  0.00    +0.000 C 
ATOM     58  O1  UNL     1      76.022  63.844 111.745  0.00  0.00    +0.000 OA
ENDBRANCH  51  58
BRANCH  56  59
ATOM     59  O2  UNL     1      75.096  65.881 113.389  0.00  0.00    +0.000 OA
BRANCH  59  60
ATOM     60  C8  UNL     1      74.923  65.684 114.765  0.00  0.00    +0.000 C 
ATOM     61  O3  UNL     1      74.694  64.527 115.213  0.00  0.00    +0.000 OA
BRANCH  60  62
ATOM     62  C9  UNL     1      74.931  66.883 115.700  0.00  0.00    +0.000 C 
ATOM     63  C10 UNL     1      75.803  68.008 115.089  0.00  0.00    +0.000 C 
BRANCH  62  64
ATOM     64  C11 UNL     1      73.471  67.394 115.880  0.00  0.00    +0.000 C 
BRANCH  64  65
ATOM     65  O4  UNL     1      72.702  66.507 116.653  0.00  0.00    +0.000 OA
ATOM     66  H18 UNL     1      73.333  65.938 117.165  0.00  0.00    +0.000 HD
ENDBRANCH  64  65
ENDBRANCH  62  64
BRANCH  62  67
ATOM     67  C12 UNL     1      75.523  66.418 117.053  0.00  0.00    +0.000 C 
BRANCH  67  68
ATOM     68  O5  UNL     1      76.731  65.732 116.869  0.00  0.00    +0.000 OA
ATOM     69  H21 UNL     1      77.169  66.149 116.082  0.00  0.00    +0.000 HD
ENDBRANCH  67  68
ENDBRANCH  62  67
ENDBRANCH  60  62
ENDBRANCH  59  60
ENDBRANCH  56  59
ENDBRANCH  50  53
ENDBRANCH  48  50
ENDBRANCH   1  48
BRANCH  10  70
ATOM     70  O7  UNL     1      73.265  71.741 104.726  0.00  0.00    +0.000 OA
ATOM     71  H40 UNL     1      72.552  71.070 104.891  0.00  0.00    +0.000 HD
ENDBRANCH  10  70
BRANCH  11  72
ATOM     72  O8  UNL     1      74.635  74.363 105.185  0.00  0.00    +0.000 OA
ATOM     73  C26 UNL     1      75.533  75.391 105.547  0.00  0.00    +0.000 C 
ENDBRANCH  11  72
BRANCH  33  74
ATOM     74  O10 UNL     1      75.987  59.730 101.683  0.00  0.00    +0.000 OA
ATOM     75  H75 UNL     1      75.429  60.443 101.275  0.00  0.00    +0.000 HD
ENDBRANCH  33  74
BRANCH  26  76
ATOM     76  O16 UNL     1      77.917  62.665 102.056  0.00  0.00    +0.000 OA
ATOM     77  C56 UNL     1      78.092  63.042 100.706  0.00  0.00    +0.000 C 
ENDBRANCH  26  76
TORSDOF 15
ENDMDL
MODEL 15
REMARK VINA RESULT:      -7.0      4.439      7.116
REMARK  Name = ./S1044.pdb
REMARK  26 active torsions:
REMARK  status: ('A' for Active; 'I' for Inactive)
REMARK    1  A    between atoms: C1_1  and  O1_2
REMARK    2  A    between atoms: O1_2  and  C2_3
REMARK    3  A    between atoms: C4_5  and  C13_18
REMARK    4  A    between atoms: C7_8  and  O2_9
REMARK    5  A    between atoms: O2_9  and  C8_10
REMARK    6  A    between atoms: C8_10  and  C9_12
REMARK    7  A    between atoms: C9_12  and  C10_13
REMARK    8  A    between atoms: C9_12  and  C11_14
REMARK    9  A    between atoms: C9_12  and  C12_16
REMARK   10  A    between atoms: C11_14  and  O4_15
REMARK   11  A    between atoms: C12_16  and  O5_17
REMARK   12  A    between atoms: C13_18  and  C14_19
REMARK   13  A    between atoms: C14_19  and  C15_20
REMARK   14  A    between atoms: C14_19  and  C16_21
REMARK   15  A    between atoms: C19_25  and  C20_26
REMARK   16  A    between atoms: C22_28  and  C23_29
REMARK   17  A    between atoms: C24_30  and  O7_31
REMARK   18  A    between atoms: C25_32  and  O8_33
REMARK   19  A    between atoms: O8_33  and  C26_34
REMARK   20  A    between atoms: C28_37  and  C29_38
REMARK   21  A    between atoms: C31_40  and  C32_41
REMARK   22  A    between atoms: C38_47  and  C39_48
REMARK   23  A    between atoms: C40_49  and  O16_72
REMARK   24  A    between atoms: C45_54  and  C46_55
REMARK   25  A    between atoms: C47_56  and  O10_57
REMARK   26  A    between atoms: O16_72  and  C56_73
REMARK                            x       y       z     vdW  Elec       q    Type
REMARK                         _______ _______ _______ _____ _____    ______ ____
ROOT
ATOM      1  C16 UNL     1      78.088  65.868 102.496  0.00  0.00    +0.000 C 
ATOM      2  C17 UNL     1      79.156  66.158 101.416  0.00  0.00    +0.000 C 
ATOM      3  C18 UNL     1      79.214  65.106 100.334  0.00  0.00    +0.000 C 
ATOM      4  O6  UNL     1      78.269  65.008  99.564  0.00  0.00    +0.000 OA
ATOM      5  C19 UNL     1      80.445  64.216 100.179  0.00  0.00    +0.000 C 
ATOM      6  C20 UNL     1      80.234  63.130  99.098  0.00  0.00    +0.000 C 
ATOM      7  C21 UNL     1      81.666  65.076  99.880  0.00  0.00    +0.000 C 
ATOM      8  C22 UNL     1      82.946  64.640  99.789  0.00  0.00    +0.000 C 
ATOM      9  C23 UNL     1      83.313  63.189 100.002  0.00  0.00    +0.000 C 
ATOM     10  C24 UNL     1      84.071  65.635  99.513  0.00  0.00    +0.000 C 
ATOM     11  C25 UNL     1      84.256  65.923  97.995  0.00  0.00    +0.000 C 
ATOM     12  C27 UNL     1      83.244  66.923  97.451  0.00  0.00    +0.000 C 
ATOM     13  O9  UNL     1      83.319  68.096  97.813  0.00  0.00    +0.000 OA
ATOM     14  C28 UNL     1      82.207  66.545  96.400  0.00  0.00    +0.000 C 
ATOM     15  C29 UNL     1      82.543  67.245  95.077  0.00  0.00    +0.000 C 
ATOM     16  C30 UNL     1      80.789  66.919  96.909  0.00  0.00    +0.000 C 
ATOM     17  C31 UNL     1      79.608  66.731  95.924  0.00  0.00    +0.000 C 
ATOM     18  C32 UNL     1      79.391  65.263  95.545  0.00  0.00    +0.000 C 
ATOM     19  C33 UNL     1      78.365  67.258  96.597  0.00  0.00    +0.000 C 
ATOM     20  C34 UNL     1      77.496  68.068  95.981  0.00  0.00    +0.000 C 
ATOM     21  C35 UNL     1      76.370  68.704  96.696  0.00  0.00    +0.000 C 
ATOM     22  C36 UNL     1      76.465  69.063  97.982  0.00  0.00    +0.000 C 
ATOM     23  C37 UNL     1      75.381  69.688  98.764  0.00  0.00    +0.000 C 
ATOM     24  C38 UNL     1      74.655  70.768  98.402  0.00  0.00    +0.000 C 
ATOM     25  C39 UNL     1      74.808  71.432  97.054  0.00  0.00    +0.000 C 
ATOM     26  C40 UNL     1      73.769  71.429  99.451  0.00  0.00    +0.000 C 
ATOM     27  C41 UNL     1      72.560  70.517  99.804  0.00  0.00    +0.000 C 
ATOM     28  C42 UNL     1      72.009  70.793 101.215  0.00  0.00    +0.000 C 
ATOM     29  C43 UNL     1      70.584  70.263 101.367  0.00  0.00    +0.000 C 
ATOM     30  C44 UNL     1      70.085  70.600 102.770  0.00  0.00    +0.000 C 
ATOM     31  C45 UNL     1      71.072  70.114 103.851  0.00  0.00    +0.000 C 
ATOM     32  C46 UNL     1      70.589  70.634 105.223  0.00  0.00    +0.000 C 
ATOM     33  C47 UNL     1      72.561  70.509 103.498  0.00  0.00    +0.000 C 
ATOM     34  O11 UNL     1      72.848  70.143 102.156  0.00  0.00    +0.000 OA
ATOM     35  C48 UNL     1      73.574  69.757 104.364  0.00  0.00    +0.000 C 
ATOM     36  O12 UNL     1      73.196  69.103 105.375  0.00  0.00    +0.000 OA
ATOM     37  C49 UNL     1      75.029  69.796 104.077  0.00  0.00    +0.000 C 
ATOM     38  O13 UNL     1      75.445  70.022 102.908  0.00  0.00    +0.000 OA
ATOM     39  N1  UNL     1      75.971  69.554 105.139  0.00  0.00    +0.000 N 
ATOM     40  C50 UNL     1      75.984  70.511 106.258  0.00  0.00    +0.000 C 
ATOM     41  C51 UNL     1      76.994  70.111 107.344  0.00  0.00    +0.000 C 
ATOM     42  C52 UNL     1      76.861  68.618 107.665  0.00  0.00    +0.000 C 
ATOM     43  C53 UNL     1      77.036  67.719 106.421  0.00  0.00    +0.000 C 
ATOM     44  C54 UNL     1      77.008  68.494 105.084  0.00  0.00    +0.000 C 
ATOM     45  C55 UNL     1      76.860  67.511 103.952  0.00  0.00    +0.000 C 
ATOM     46  O14 UNL     1      75.729  67.055 103.630  0.00  0.00    +0.000 OA
ATOM     47  O15 UNL     1      78.030  67.005 103.363  0.00  0.00    +0.000 OA
ENDROOT
BRANCH   1  48
ATOM     48  C14 UNL     1      78.376  64.564 103.316  0.00  0.00    +0.000 C 
ATOM     49  C15 UNL     1      78.787  64.877 104.768  0.00  0.00    +0.000 C 
BRANCH  48  50
ATOM     50  C13 UNL     1      77.156  63.595 103.256  0.00  0.00    +0.000 C 
BRANCH  50  53
ATOM     51  C2  UNL     1      73.584  63.271 104.975  0.00  0.00    +0.000 C 
ATOM     52  C3  UNL     1      74.611  63.682 103.889  0.00  0.00    +0.000 C 
ATOM     53  C4  UNL     1      76.079  63.659 104.386  0.00  0.00    +0.000 C 
ATOM     54  C5  UNL     1      76.282  62.625 105.514  0.00  0.00    +0.000 C 
ATOM     55  C6  UNL     1      75.412  62.959 106.744  0.00  0.00    +0.000 C 
ATOM     56  C7  UNL     1      74.058  63.632 106.393  0.00  0.00    +0.000 C 
BRANCH  51  58
ATOM     57  C1  UNL     1      71.403  63.051 104.184  0.00  0.00    +0.000 C 
ATOM     58  O1  UNL     1      72.357  63.939 104.723  0.00  0.00    +0.000 OA
ENDBRANCH  51  58
BRANCH  56  59
ATOM     59  O2  UNL     1      73.046  63.220 107.315  0.00  0.00    +0.000 OA
BRANCH  59  60
ATOM     60  C8  UNL     1      72.931  63.688 108.630  0.00  0.00    +0.000 C 
ATOM     61  O3  UNL     1      73.220  62.930 109.596  0.00  0.00    +0.000 OA
BRANCH  60  62
ATOM     62  C9  UNL     1      72.379  65.082 108.884  0.00  0.00    +0.000 C 
ATOM     63  C10 UNL     1      73.440  66.137 108.484  0.00  0.00    +0.000 C 
BRANCH  62  64
ATOM     64  C11 UNL     1      71.095  65.282 108.028  0.00  0.00    +0.000 C 
BRANCH  64  65
ATOM     65  O4  UNL     1      71.395  65.799 106.755  0.00  0.00    +0.000 OA
ATOM     66  H18 UNL     1      70.782  65.364 106.108  0.00  0.00    +0.000 HD
ENDBRANCH  64  65
ENDBRANCH  62  64
BRANCH  62  67
ATOM     67  C12 UNL     1      72.057  65.189 110.395  0.00  0.00    +0.000 C 
BRANCH  67  68
ATOM     68  O5  UNL     1      70.986  64.355 110.746  0.00  0.00    +0.000 OA
ATOM     69  H21 UNL     1      70.179  64.749 110.325  0.00  0.00    +0.000 HD
ENDBRANCH  67  68
ENDBRANCH  62  67
ENDBRANCH  60  62
ENDBRANCH  59  60
ENDBRANCH  56  59
ENDBRANCH  50  53
ENDBRANCH  48  50
ENDBRANCH   1  48
BRANCH  10  70
ATOM     70  O7  UNL     1      83.875  66.817 100.258  0.00  0.00    +0.000 OA
ATOM     71  H40 UNL     1      83.244  67.389  99.747  0.00  0.00    +0.000 HD
ENDBRANCH  10  70
BRANCH  11  72
ATOM     72  O8  UNL     1      85.575  66.426  97.825  0.00  0.00    +0.000 OA
ATOM     73  C26 UNL     1      86.153  65.980  96.617  0.00  0.00    +0.000 C 
ENDBRANCH  11  72
BRANCH  33  74
ATOM     74  O10 UNL     1      72.761  71.900 103.659  0.00  0.00    +0.000 OA
ATOM     75  H75 UNL     1      72.848  72.098 104.628  0.00  0.00    +0.000 HD
ENDBRANCH  33  74
BRANCH  26  76
ATOM     76  O16 UNL     1      74.539  71.702 100.613  0.00  0.00    +0.000 OA
ATOM     77  C56 UNL     1      74.948  73.053 100.641  0.00  0.00    +0.000 C 
ENDBRANCH  26  76
TORSDOF 15
ENDMDL
MODEL 16
REMARK VINA RESULT:      -7.0      5.019      9.669
REMARK  Name = ./S1044.pdb
REMARK  26 active torsions:
REMARK  status: ('A' for Active; 'I' for Inactive)
REMARK    1  A    between atoms: C1_1  and  O1_2
REMARK    2  A    between atoms: O1_2  and  C2_3
REMARK    3  A    between atoms: C4_5  and  C13_18
REMARK    4  A    between atoms: C7_8  and  O2_9
REMARK    5  A    between atoms: O2_9  and  C8_10
REMARK    6  A    between atoms: C8_10  and  C9_12
REMARK    7  A    between atoms: C9_12  and  C10_13
REMARK    8  A    between atoms: C9_12  and  C11_14
REMARK    9  A    between atoms: C9_12  and  C12_16
REMARK   10  A    between atoms: C11_14  and  O4_15
REMARK   11  A    between atoms: C12_16  and  O5_17
REMARK   12  A    between atoms: C13_18  and  C14_19
REMARK   13  A    between atoms: C14_19  and  C15_20
REMARK   14  A    between atoms: C14_19  and  C16_21
REMARK   15  A    between atoms: C19_25  and  C20_26
REMARK   16  A    between atoms: C22_28  and  C23_29
REMARK   17  A    between atoms: C24_30  and  O7_31
REMARK   18  A    between atoms: C25_32  and  O8_33
REMARK   19  A    between atoms: O8_33  and  C26_34
REMARK   20  A    between atoms: C28_37  and  C29_38
REMARK   21  A    between atoms: C31_40  and  C32_41
REMARK   22  A    between atoms: C38_47  and  C39_48
REMARK   23  A    between atoms: C40_49  and  O16_72
REMARK   24  A    between atoms: C45_54  and  C46_55
REMARK   25  A    between atoms: C47_56  and  O10_57
REMARK   26  A    between atoms: O16_72  and  C56_73
REMARK                            x       y       z     vdW  Elec       q    Type
REMARK                         _______ _______ _______ _____ _____    ______ ____
ROOT
ATOM      1  C16 UNL     1      77.092  66.320 101.189  0.00  0.00    +0.000 C 
ATOM      2  C17 UNL     1      77.200  67.725 100.554  0.00  0.00    +0.000 C 
ATOM      3  C18 UNL     1      76.484  67.839  99.228  0.00  0.00    +0.000 C 
ATOM      4  O6  UNL     1      75.262  67.780  99.218  0.00  0.00    +0.000 OA
ATOM      5  C19 UNL     1      77.267  68.065  97.937  0.00  0.00    +0.000 C 
ATOM      6  C20 UNL     1      76.349  68.019  96.695  0.00  0.00    +0.000 C 
ATOM      7  C21 UNL     1      78.029  69.382  98.025  0.00  0.00    +0.000 C 
ATOM      8  C22 UNL     1      78.913  69.854  97.112  0.00  0.00    +0.000 C 
ATOM      9  C23 UNL     1      79.262  69.077  95.862  0.00  0.00    +0.000 C 
ATOM     10  C24 UNL     1      79.623  71.183  97.357  0.00  0.00    +0.000 C 
ATOM     11  C25 UNL     1      78.778  72.407  96.899  0.00  0.00    +0.000 C 
ATOM     12  C27 UNL     1      77.706  72.799  97.906  0.00  0.00    +0.000 C 
ATOM     13  O9  UNL     1      78.053  73.281  98.983  0.00  0.00    +0.000 OA
ATOM     14  C28 UNL     1      76.217  72.712  97.590  0.00  0.00    +0.000 C 
ATOM     15  C29 UNL     1      75.633  74.127  97.486  0.00  0.00    +0.000 C 
ATOM     16  C30 UNL     1      75.502  71.867  98.678  0.00  0.00    +0.000 C 
ATOM     17  C31 UNL     1      73.958  71.772  98.602  0.00  0.00    +0.000 C 
ATOM     18  C32 UNL     1      73.478  71.058  97.334  0.00  0.00    +0.000 C 
ATOM     19  C33 UNL     1      73.489  71.002  99.811  0.00  0.00    +0.000 C 
ATOM     20  C34 UNL     1      72.467  71.405 100.575  0.00  0.00    +0.000 C 
ATOM     21  C35 UNL     1      72.119  70.732 101.844  0.00  0.00    +0.000 C 
ATOM     22  C36 UNL     1      73.052  70.172 102.623  0.00  0.00    +0.000 C 
ATOM     23  C37 UNL     1      72.779  69.471 103.893  0.00  0.00    +0.000 C 
ATOM     24  C38 UNL     1      72.043  69.942 104.923  0.00  0.00    +0.000 C 
ATOM     25  C39 UNL     1      71.304  71.257 104.855  0.00  0.00    +0.000 C 
ATOM     26  C40 UNL     1      72.096  69.196 106.251  0.00  0.00    +0.000 C 
ATOM     27  C41 UNL     1      71.376  67.823 106.139  0.00  0.00    +0.000 C 
ATOM     28  C42 UNL     1      71.902  66.800 107.164  0.00  0.00    +0.000 C 
ATOM     29  C43 UNL     1      70.906  65.660 107.370  0.00  0.00    +0.000 C 
ATOM     30  C44 UNL     1      71.467  64.705 108.419  0.00  0.00    +0.000 C 
ATOM     31  C45 UNL     1      72.898  64.252 108.061  0.00  0.00    +0.000 C 
ATOM     32  C46 UNL     1      73.460  63.429 109.241  0.00  0.00    +0.000 C 
ATOM     33  C47 UNL     1      73.805  65.475 107.637  0.00  0.00    +0.000 C 
ATOM     34  O11 UNL     1      73.122  66.266 106.674  0.00  0.00    +0.000 OA
ATOM     35  C48 UNL     1      75.101  65.021 106.964  0.00  0.00    +0.000 C 
ATOM     36  O12 UNL     1      75.451  63.809 106.993  0.00  0.00    +0.000 OA
ATOM     37  C49 UNL     1      76.009  65.980 106.288  0.00  0.00    +0.000 C 
ATOM     38  O13 UNL     1      75.565  67.067 105.828  0.00  0.00    +0.000 OA
ATOM     39  N1  UNL     1      77.404  65.656 106.140  0.00  0.00    +0.000 N 
ATOM     40  C50 UNL     1      78.194  65.502 107.375  0.00  0.00    +0.000 C 
ATOM     41  C51 UNL     1      79.648  65.108 107.080  0.00  0.00    +0.000 C 
ATOM     42  C52 UNL     1      79.691  63.980 106.043  0.00  0.00    +0.000 C 
ATOM     43  C53 UNL     1      78.964  64.345 104.729  0.00  0.00    +0.000 C 
ATOM     44  C54 UNL     1      78.100  65.622 104.831  0.00  0.00    +0.000 C 
ATOM     45  C55 UNL     1      77.200  65.701 103.625  0.00  0.00    +0.000 C 
ATOM     46  O14 UNL     1      76.117  65.056 103.579  0.00  0.00    +0.000 OA
ATOM     47  O15 UNL     1      77.671  66.391 102.497  0.00  0.00    +0.000 OA
ENDROOT
BRANCH   1  48
ATOM     48  C14 UNL     1      77.787  65.202 100.340  0.00  0.00    +0.000 C 
ATOM     49  C15 UNL     1      79.091  64.707 100.997  0.00  0.00    +0.000 C 
BRANCH  48  50
ATOM     50  C13 UNL     1      76.800  64.029 100.059  0.00  0.00    +0.000 C 
BRANCH  50  53
ATOM     51  C2  UNL     1      74.397  61.608 102.104  0.00  0.00    +0.000 C 
ATOM     52  C3  UNL     1      74.779  62.821 101.218  0.00  0.00    +0.000 C 
ATOM     53  C4  UNL     1      76.292  63.160 101.254  0.00  0.00    +0.000 C 
ATOM     54  C5  UNL     1      77.150  61.910 101.539  0.00  0.00    +0.000 C 
ATOM     55  C6  UNL     1      76.809  61.297 102.914  0.00  0.00    +0.000 C 
ATOM     56  C7  UNL     1      75.321  61.463 103.325  0.00  0.00    +0.000 C 
BRANCH  51  58
ATOM     57  C1  UNL     1      72.809  63.125 102.882  0.00  0.00    +0.000 C 
ATOM     58  O1  UNL     1      73.064  61.775 102.563  0.00  0.00    +0.000 OA
ENDBRANCH  51  58
BRANCH  56  59
ATOM     59  O2  UNL     1      74.886  60.327 104.077  0.00  0.00    +0.000 OA
BRANCH  59  60
ATOM     60  C8  UNL     1      74.738  60.305 105.469  0.00  0.00    +0.000 C 
ATOM     61  O3  UNL     1      75.734  60.524 106.213  0.00  0.00    +0.000 OA
BRANCH  60  62
ATOM     62  C9  UNL     1      73.393  59.934 106.075  0.00  0.00    +0.000 C 
ATOM     63  C10 UNL     1      72.493  61.193 106.142  0.00  0.00    +0.000 C 
BRANCH  62  64
ATOM     64  C11 UNL     1      72.715  58.855 105.180  0.00  0.00    +0.000 C 
BRANCH  64  65
ATOM     65  O4  UNL     1      72.316  59.385 103.940  0.00  0.00    +0.000 OA
ATOM     66  H18 UNL     1      72.169  58.621 103.326  0.00  0.00    +0.000 HD
ENDBRANCH  64  65
ENDBRANCH  62  64
BRANCH  62  67
ATOM     67  C12 UNL     1      73.657  59.384 107.498  0.00  0.00    +0.000 C 
BRANCH  67  68
ATOM     68  O5  UNL     1      74.356  58.170 107.451  0.00  0.00    +0.000 OA
ATOM     69  H21 UNL     1      75.004  58.194 108.202  0.00  0.00    +0.000 HD
ENDBRANCH  67  68
ENDBRANCH  62  67
ENDBRANCH  60  62
ENDBRANCH  59  60
ENDBRANCH  56  59
ENDBRANCH  50  53
ENDBRANCH  48  50
ENDBRANCH   1  48
BRANCH  10  70
ATOM     70  O7  UNL     1      80.020  71.285  98.707  0.00  0.00    +0.000 OA
ATOM     71  H40 UNL     1      80.334  70.388  98.992  0.00  0.00    +0.000 HD
ENDBRANCH  10  70
BRANCH  11  72
ATOM     72  O8  UNL     1      79.682  73.487  96.706  0.00  0.00    +0.000 OA
ATOM     73  C26 UNL     1      79.171  74.442  95.801  0.00  0.00    +0.000 C 
ENDBRANCH  11  72
BRANCH  33  74
ATOM     74  O10 UNL     1      74.124  66.274 108.760  0.00  0.00    +0.000 OA
ATOM     75  H75 UNL     1      73.729  67.175 108.630  0.00  0.00    +0.000 HD
ENDBRANCH  33  74
BRANCH  26  76
ATOM     76  O16 UNL     1      73.452  69.015 106.636  0.00  0.00    +0.000 OA
ATOM     77  C56 UNL     1      73.830  69.963 107.612  0.00  0.00    +0.000 C 
ENDBRANCH  26  76
TORSDOF 15
ENDMDL
MODEL 17
REMARK VINA RESULT:      -6.9      4.018      6.788
REMARK  Name = ./S1044.pdb
REMARK  26 active torsions:
REMARK  status: ('A' for Active; 'I' for Inactive)
REMARK    1  A    between atoms: C1_1  and  O1_2
REMARK    2  A    between atoms: O1_2  and  C2_3
REMARK    3  A    between atoms: C4_5  and  C13_18
REMARK    4  A    between atoms: C7_8  and  O2_9
REMARK    5  A    between atoms: O2_9  and  C8_10
REMARK    6  A    between atoms: C8_10  and  C9_12
REMARK    7  A    between atoms: C9_12  and  C10_13
REMARK    8  A    between atoms: C9_12  and  C11_14
REMARK    9  A    between atoms: C9_12  and  C12_16
REMARK   10  A    between atoms: C11_14  and  O4_15
REMARK   11  A    between atoms: C12_16  and  O5_17
REMARK   12  A    between atoms: C13_18  and  C14_19
REMARK   13  A    between atoms: C14_19  and  C15_20
REMARK   14  A    between atoms: C14_19  and  C16_21
REMARK   15  A    between atoms: C19_25  and  C20_26
REMARK   16  A    between atoms: C22_28  and  C23_29
REMARK   17  A    between atoms: C24_30  and  O7_31
REMARK   18  A    between atoms: C25_32  and  O8_33
REMARK   19  A    between atoms: O8_33  and  C26_34
REMARK   20  A    between atoms: C28_37  and  C29_38
REMARK   21  A    between atoms: C31_40  and  C32_41
REMARK   22  A    between atoms: C38_47  and  C39_48
REMARK   23  A    between atoms: C40_49  and  O16_72
REMARK   24  A    between atoms: C45_54  and  C46_55
REMARK   25  A    between atoms: C47_56  and  O10_57
REMARK   26  A    between atoms: O16_72  and  C56_73
REMARK                            x       y       z     vdW  Elec       q    Type
REMARK                         _______ _______ _______ _____ _____    ______ ____
ROOT
ATOM      1  C16 UNL     1      75.114  63.130 105.257  0.00  0.00    +0.000 C 
ATOM      2  C17 UNL     1      76.628  63.119 104.940  0.00  0.00    +0.000 C 
ATOM      3  C18 UNL     1      76.963  62.404 103.652  0.00  0.00    +0.000 C 
ATOM      4  O6  UNL     1      76.609  62.909 102.595  0.00  0.00    +0.000 OA
ATOM      5  C19 UNL     1      77.765  61.105 103.669  0.00  0.00    +0.000 C 
ATOM      6  C20 UNL     1      77.878  60.484 102.257  0.00  0.00    +0.000 C 
ATOM      7  C21 UNL     1      79.136  61.356 104.284  0.00  0.00    +0.000 C 
ATOM      8  C22 UNL     1      80.071  60.415 104.560  0.00  0.00    +0.000 C 
ATOM      9  C23 UNL     1      79.831  58.947 104.288  0.00  0.00    +0.000 C 
ATOM     10  C24 UNL     1      81.392  60.821 105.208  0.00  0.00    +0.000 C 
ATOM     11  C25 UNL     1      82.447  61.299 104.169  0.00  0.00    +0.000 C 
ATOM     12  C27 UNL     1      82.229  62.738 103.720  0.00  0.00    +0.000 C 
ATOM     13  O9  UNL     1      82.425  63.646 104.527  0.00  0.00    +0.000 OA
ATOM     14  C28 UNL     1      81.876  63.101 102.282  0.00  0.00    +0.000 C 
ATOM     15  C29 UNL     1      83.062  63.826 101.633  0.00  0.00    +0.000 C 
ATOM     16  C30 UNL     1      80.587  63.964 102.264  0.00  0.00    +0.000 C 
ATOM     17  C31 UNL     1      80.139  64.543 100.898  0.00  0.00    +0.000 C 
ATOM     18  C32 UNL     1      79.756  63.448  99.897  0.00  0.00    +0.000 C 
ATOM     19  C33 UNL     1      78.942  65.426 101.148  0.00  0.00    +0.000 C 
ATOM     20  C34 UNL     1      78.823  66.650 100.621  0.00  0.00    +0.000 C 
ATOM     21  C35 UNL     1      77.726  67.567 100.999  0.00  0.00    +0.000 C 
ATOM     22  C36 UNL     1      77.203  67.569 102.231  0.00  0.00    +0.000 C 
ATOM     23  C37 UNL     1      76.100  68.442 102.675  0.00  0.00    +0.000 C 
ATOM     24  C38 UNL     1      76.031  69.783 102.524  0.00  0.00    +0.000 C 
ATOM     25  C39 UNL     1      77.076  70.566 101.765  0.00  0.00    +0.000 C 
ATOM     26  C40 UNL     1      74.949  70.542 103.283  0.00  0.00    +0.000 C 
ATOM     27  C41 UNL     1      73.544  70.229 102.695  0.00  0.00    +0.000 C 
ATOM     28  C42 UNL     1      72.419  70.428 103.728  0.00  0.00    +0.000 C 
ATOM     29  C43 UNL     1      71.061  70.586 103.046  0.00  0.00    +0.000 C 
ATOM     30  C44 UNL     1      70.000  70.816 104.118  0.00  0.00    +0.000 C 
ATOM     31  C45 UNL     1      70.051  69.722 105.205  0.00  0.00    +0.000 C 
ATOM     32  C46 UNL     1      69.071  70.109 106.334  0.00  0.00    +0.000 C 
ATOM     33  C47 UNL     1      71.530  69.460 105.695  0.00  0.00    +0.000 C 
ATOM     34  O11 UNL     1      72.384  69.289 104.572  0.00  0.00    +0.000 OA
ATOM     35  C48 UNL     1      71.643  68.169 106.508  0.00  0.00    +0.000 C 
ATOM     36  O12 UNL     1      70.608  67.565 106.905  0.00  0.00    +0.000 OA
ATOM     37  C49 UNL     1      72.958  67.599 106.891  0.00  0.00    +0.000 C 
ATOM     38  O13 UNL     1      73.987  67.846 106.207  0.00  0.00    +0.000 OA
ATOM     39  N1  UNL     1      73.054  66.741 108.044  0.00  0.00    +0.000 N 
ATOM     40  C50 UNL     1      72.727  67.333 109.353  0.00  0.00    +0.000 C 
ATOM     41  C51 UNL     1      72.818  66.303 110.488  0.00  0.00    +0.000 C 
ATOM     42  C52 UNL     1      72.114  65.004 110.081  0.00  0.00    +0.000 C 
ATOM     43  C53 UNL     1      72.673  64.402 108.773  0.00  0.00    +0.000 C 
ATOM     44  C54 UNL     1      73.600  65.363 107.994  0.00  0.00    +0.000 C 
ATOM     45  C55 UNL     1      73.820  64.812 106.608  0.00  0.00    +0.000 C 
ATOM     46  O14 UNL     1      72.973  64.998 105.692  0.00  0.00    +0.000 OA
ATOM     47  O15 UNL     1      74.920  63.963 106.406  0.00  0.00    +0.000 OA
ENDROOT
BRANCH   1  48
ATOM     48  C14 UNL     1      74.523  61.701 105.506  0.00  0.00    +0.000 C 
ATOM     49  C15 UNL     1      74.407  61.382 107.010  0.00  0.00    +0.000 C 
BRANCH  48  50
ATOM     50  C13 UNL     1      73.159  61.533 104.772  0.00  0.00    +0.000 C 
BRANCH  50  53
ATOM     51  C2  UNL     1      73.454  61.621 100.807  0.00  0.00    +0.000 C 
ATOM     52  C3  UNL     1      72.997  62.088 102.213  0.00  0.00    +0.000 C 
ATOM     53  C4  UNL     1      73.146  60.998 103.305  0.00  0.00    +0.000 C 
ATOM     54  C5  UNL     1      74.292  60.017 102.978  0.00  0.00    +0.000 C 
ATOM     55  C6  UNL     1      74.031  59.272 101.652  0.00  0.00    +0.000 C 
ATOM     56  C7  UNL     1      73.256  60.110 100.601  0.00  0.00    +0.000 C 
BRANCH  51  58
ATOM     57  C1  UNL     1      71.318  62.185 100.067  0.00  0.00    +0.000 C 
ATOM     58  O1  UNL     1      72.701  62.316  99.824  0.00  0.00    +0.000 OA
ENDBRANCH  51  58
BRANCH  56  59
ATOM     59  O2  UNL     1      73.699  59.783  99.281  0.00  0.00    +0.000 OA
BRANCH  59  60
ATOM     60  C8  UNL     1      74.995  59.363  98.960  0.00  0.00    +0.000 C 
ATOM     61  O3  UNL     1      75.980  60.114  99.201  0.00  0.00    +0.000 OA
BRANCH  60  62
ATOM     62  C9  UNL     1      75.198  58.036  98.244  0.00  0.00    +0.000 C 
ATOM     63  C10 UNL     1      76.539  58.069  97.469  0.00  0.00    +0.000 C 
BRANCH  62  64
ATOM     64  C11 UNL     1      75.232  56.892  99.298  0.00  0.00    +0.000 C 
BRANCH  64  65
ATOM     65  O4  UNL     1      75.245  55.625  98.689  0.00  0.00    +0.000 OA
ATOM     66  H18 UNL     1      75.192  54.949  99.412  0.00  0.00    +0.000 HD
ENDBRANCH  64  65
ENDBRANCH  62  64
BRANCH  62  67
ATOM     67  C12 UNL     1      74.014  57.848  97.263  0.00  0.00    +0.000 C 
BRANCH  67  68
ATOM     68  O5  UNL     1      72.902  57.295  97.912  0.00  0.00    +0.000 OA
ATOM     69  H21 UNL     1      73.239  56.515  98.423  0.00  0.00    +0.000 HD
ENDBRANCH  67  68
ENDBRANCH  62  67
ENDBRANCH  60  62
ENDBRANCH  59  60
ENDBRANCH  56  59
ENDBRANCH  50  53
ENDBRANCH  48  50
ENDBRANCH   1  48
BRANCH  10  70
ATOM     70  O7  UNL     1      81.168  61.780 106.219  0.00  0.00    +0.000 OA
ATOM     71  H40 UNL     1      80.438  62.376 105.905  0.00  0.00    +0.000 HD
ENDBRANCH  10  70
BRANCH  11  72
ATOM     72  O8  UNL     1      83.723  61.169 104.783  0.00  0.00    +0.000 OA
ATOM     73  C26 UNL     1      83.971  59.842 105.196  0.00  0.00    +0.000 C 
ENDBRANCH  11  72
BRANCH  33  74
ATOM     74  O10 UNL     1      71.996  70.540 106.480  0.00  0.00    +0.000 OA
ATOM     75  H75 UNL     1      72.153  71.319 105.885  0.00  0.00    +0.000 HD
ENDBRANCH  33  74
BRANCH  26  76
ATOM     76  O16 UNL     1      75.001  70.188 104.657  0.00  0.00    +0.000 OA
ATOM     77  C56 UNL     1      75.700  71.163 105.403  0.00  0.00    +0.000 C 
ENDBRANCH  26  76
TORSDOF 15
ENDMDL
MODEL 18
REMARK VINA RESULT:      -6.9      5.430     10.524
REMARK  Name = ./S1044.pdb
REMARK  26 active torsions:
REMARK  status: ('A' for Active; 'I' for Inactive)
REMARK    1  A    between atoms: C1_1  and  O1_2
REMARK    2  A    between atoms: O1_2  and  C2_3
REMARK    3  A    between atoms: C4_5  and  C13_18
REMARK    4  A    between atoms: C7_8  and  O2_9
REMARK    5  A    between atoms: O2_9  and  C8_10
REMARK    6  A    between atoms: C8_10  and  C9_12
REMARK    7  A    between atoms: C9_12  and  C10_13
REMARK    8  A    between atoms: C9_12  and  C11_14
REMARK    9  A    between atoms: C9_12  and  C12_16
REMARK   10  A    between atoms: C11_14  and  O4_15
REMARK   11  A    between atoms: C12_16  and  O5_17
REMARK   12  A    between atoms: C13_18  and  C14_19
REMARK   13  A    between atoms: C14_19  and  C15_20
REMARK   14  A    between atoms: C14_19  and  C16_21
REMARK   15  A    between atoms: C19_25  and  C20_26
REMARK   16  A    between atoms: C22_28  and  C23_29
REMARK   17  A    between atoms: C24_30  and  O7_31
REMARK   18  A    between atoms: C25_32  and  O8_33
REMARK   19  A    between atoms: O8_33  and  C26_34
REMARK   20  A    between atoms: C28_37  and  C29_38
REMARK   21  A    between atoms: C31_40  and  C32_41
REMARK   22  A    between atoms: C38_47  and  C39_48
REMARK   23  A    between atoms: C40_49  and  O16_72
REMARK   24  A    between atoms: C45_54  and  C46_55
REMARK   25  A    between atoms: C47_56  and  O10_57
REMARK   26  A    between atoms: O16_72  and  C56_73
REMARK                            x       y       z     vdW  Elec       q    Type
REMARK                         _______ _______ _______ _____ _____    ______ ____
ROOT
ATOM      1  C16 UNL     1      76.647  68.238 102.444  0.00  0.00    +0.000 C 
ATOM      2  C17 UNL     1      76.059  66.941 103.047  0.00  0.00    +0.000 C 
ATOM      3  C18 UNL     1      76.641  66.593 104.398  0.00  0.00    +0.000 C 
ATOM      4  O6  UNL     1      76.379  67.315 105.349  0.00  0.00    +0.000 OA
ATOM      5  C19 UNL     1      77.499  65.343 104.576  0.00  0.00    +0.000 C 
ATOM      6  C20 UNL     1      78.092  65.254 106.001  0.00  0.00    +0.000 C 
ATOM      7  C21 UNL     1      76.680  64.105 104.229  0.00  0.00    +0.000 C 
ATOM      8  C22 UNL     1      77.145  62.833 104.169  0.00  0.00    +0.000 C 
ATOM      9  C23 UNL     1      78.596  62.499 104.434  0.00  0.00    +0.000 C 
ATOM     10  C24 UNL     1      76.203  61.697 103.775  0.00  0.00    +0.000 C 
ATOM     11  C25 UNL     1      75.392  61.147 104.983  0.00  0.00    +0.000 C 
ATOM     12  C27 UNL     1      74.191  62.014 105.337  0.00  0.00    +0.000 C 
ATOM     13  O9  UNL     1      73.242  62.058 104.556  0.00  0.00    +0.000 OA
ATOM     14  C28 UNL     1      74.078  62.749 106.668  0.00  0.00    +0.000 C 
ATOM     15  C29 UNL     1      72.967  62.109 107.511  0.00  0.00    +0.000 C 
ATOM     16  C30 UNL     1      73.815  64.256 106.410  0.00  0.00    +0.000 C 
ATOM     17  C31 UNL     1      73.540  65.151 107.645  0.00  0.00    +0.000 C 
ATOM     18  C32 UNL     1      74.746  65.234 108.587  0.00  0.00    +0.000 C 
ATOM     19  C33 UNL     1      73.208  66.533 107.142  0.00  0.00    +0.000 C 
ATOM     20  C34 UNL     1      72.167  67.239 107.598  0.00  0.00    +0.000 C 
ATOM     21  C35 UNL     1      71.758  68.522 106.987  0.00  0.00    +0.000 C 
ATOM     22  C36 UNL     1      71.905  68.758 105.678  0.00  0.00    +0.000 C 
ATOM     23  C37 UNL     1      71.535  70.016 105.002  0.00  0.00    +0.000 C 
ATOM     24  C38 UNL     1      70.347  70.653 105.096  0.00  0.00    +0.000 C 
ATOM     25  C39 UNL     1      69.247  70.184 106.018  0.00  0.00    +0.000 C 
ATOM     26  C40 UNL     1      70.055  71.787 104.120  0.00  0.00    +0.000 C 
ATOM     27  C41 UNL     1      70.942  73.025 104.434  0.00  0.00    +0.000 C 
ATOM     28  C42 UNL     1      71.165  73.916 103.197  0.00  0.00    +0.000 C 
ATOM     29  C43 UNL     1      71.608  75.321 103.600  0.00  0.00    +0.000 C 
ATOM     30  C44 UNL     1      71.775  76.160 102.336  0.00  0.00    +0.000 C 
ATOM     31  C45 UNL     1      72.697  75.463 101.314  0.00  0.00    +0.000 C 
ATOM     32  C46 UNL     1      72.684  76.284 100.005  0.00  0.00    +0.000 C 
ATOM     33  C47 UNL     1      72.309  73.943 101.126  0.00  0.00    +0.000 C 
ATOM     34  O11 UNL     1      72.175  73.322 102.398  0.00  0.00    +0.000 OA
ATOM     35  C48 UNL     1      73.399  73.160 100.391  0.00  0.00    +0.000 C 
ATOM     36  O12 UNL     1      74.350  73.763  99.821  0.00  0.00    +0.000 OA
ATOM     37  C49 UNL     1      73.364  71.681 100.286  0.00  0.00    +0.000 C 
ATOM     38  O13 UNL     1      72.755  70.992 101.149  0.00  0.00    +0.000 OA
ATOM     39  N1  UNL     1      74.048  71.028  99.201  0.00  0.00    +0.000 N 
ATOM     40  C50 UNL     1      73.574  71.315  97.836  0.00  0.00    +0.000 C 
ATOM     41  C51 UNL     1      74.418  70.598  96.772  0.00  0.00    +0.000 C 
ATOM     42  C52 UNL     1      75.911  70.773  97.075  0.00  0.00    +0.000 C 
ATOM     43  C53 UNL     1      76.299  70.274  98.485  0.00  0.00    +0.000 C 
ATOM     44  C54 UNL     1      75.086  69.986  99.399  0.00  0.00    +0.000 C 
ATOM     45  C55 UNL     1      75.570  69.825 100.817  0.00  0.00    +0.000 C 
ATOM     46  O14 UNL     1      75.792  70.831 101.546  0.00  0.00    +0.000 OA
ATOM     47  O15 UNL     1      75.908  68.535 101.254  0.00  0.00    +0.000 OA
ENDROOT
BRANCH   1  48
ATOM     48  C14 UNL     1      78.179  68.134 102.129  0.00  0.00    +0.000 C 
ATOM     49  C15 UNL     1      79.042  68.411 103.376  0.00  0.00    +0.000 C 
BRANCH  48  50
ATOM     50  C13 UNL     1      78.518  66.756 101.485  0.00  0.00    +0.000 C 
BRANCH  50  53
ATOM     51  C2  UNL     1      80.051  65.196  98.164  0.00  0.00    +0.000 C 
ATOM     52  C3  UNL     1      79.898  65.433  99.688  0.00  0.00    +0.000 C 
ATOM     53  C4  UNL     1      79.101  66.717 100.037  0.00  0.00    +0.000 C 
ATOM     54  C5  UNL     1      78.083  67.072  98.933  0.00  0.00    +0.000 C 
ATOM     55  C6  UNL     1      78.788  67.350  97.588  0.00  0.00    +0.000 C 
ATOM     56  C7  UNL     1      80.076  66.512  97.368  0.00  0.00    +0.000 C 
BRANCH  51  58
ATOM     57  C1  UNL     1      82.286  64.966  98.784  0.00  0.00    +0.000 C 
ATOM     58  O1  UNL     1      81.267  64.501  97.927  0.00  0.00    +0.000 OA
ENDBRANCH  51  58
BRANCH  56  59
ATOM     59  O2  UNL     1      80.225  66.188  95.983  0.00  0.00    +0.000 OA
BRANCH  59  60
ATOM     60  C8  UNL     1      81.231  66.697  95.153  0.00  0.00    +0.000 C 
ATOM     61  O3  UNL     1      82.429  66.710  95.548  0.00  0.00    +0.000 OA
BRANCH  60  62
ATOM     62  C9  UNL     1      80.857  67.308  93.811  0.00  0.00    +0.000 C 
ATOM     63  C10 UNL     1      81.936  68.339  93.397  0.00  0.00    +0.000 C 
BRANCH  62  64
ATOM     64  C11 UNL     1      80.780  66.177  92.744  0.00  0.00    +0.000 C 
BRANCH  64  65
ATOM     65  O4  UNL     1      80.742  64.904  93.338  0.00  0.00    +0.000 OA
ATOM     66  H18 UNL     1      79.809  64.741  93.630  0.00  0.00    +0.000 HD
ENDBRANCH  64  65
ENDBRANCH  62  64
BRANCH  62  67
ATOM     67  C12 UNL     1      79.484  68.003  93.980  0.00  0.00    +0.000 C 
BRANCH  67  68
ATOM     68  O5  UNL     1      78.440  67.068  93.982  0.00  0.00    +0.000 OA
ATOM     69  H21 UNL     1      78.370  66.729  93.052  0.00  0.00    +0.000 HD
ENDBRANCH  67  68
ENDBRANCH  62  67
ENDBRANCH  60  62
ENDBRANCH  59  60
ENDBRANCH  56  59
ENDBRANCH  50  53
ENDBRANCH  48  50
ENDBRANCH   1  48
BRANCH  10  70
ATOM     70  O7  UNL     1      75.368  62.099 102.711  0.00  0.00    +0.000 OA
ATOM     71  H40 UNL     1      75.955  62.324 101.943  0.00  0.00    +0.000 HD
ENDBRANCH  10  70
BRANCH  11  72
ATOM     72  O8  UNL     1      74.960  59.839 104.632  0.00  0.00    +0.000 OA
ATOM     73  C26 UNL     1      75.377  58.879 105.579  0.00  0.00    +0.000 C 
ENDBRANCH  11  72
BRANCH  33  74
ATOM     74  O10 UNL     1      71.094  73.820 100.414  0.00  0.00    +0.000 OA
ATOM     75  H75 UNL     1      70.473  74.530 100.721  0.00  0.00    +0.000 HD
ENDBRANCH  33  74
BRANCH  26  76
ATOM     76  O16 UNL     1      70.287  71.336 102.792  0.00  0.00    +0.000 OA
ATOM     77  C56 UNL     1      69.315  70.387 102.406  0.00  0.00    +0.000 C 
ENDBRANCH  26  76
TORSDOF 15
ENDMDL
MODEL 19
REMARK VINA RESULT:      -6.9      4.788     11.802
REMARK  Name = ./S1044.pdb
REMARK  26 active torsions:
REMARK  status: ('A' for Active; 'I' for Inactive)
REMARK    1  A    between atoms: C1_1  and  O1_2
REMARK    2  A    between atoms: O1_2  and  C2_3
REMARK    3  A    between atoms: C4_5  and  C13_18
REMARK    4  A    between atoms: C7_8  and  O2_9
REMARK    5  A    between atoms: O2_9  and  C8_10
REMARK    6  A    between atoms: C8_10  and  C9_12
REMARK    7  A    between atoms: C9_12  and  C10_13
REMARK    8  A    between atoms: C9_12  and  C11_14
REMARK    9  A    between atoms: C9_12  and  C12_16
REMARK   10  A    between atoms: C11_14  and  O4_15
REMARK   11  A    between atoms: C12_16  and  O5_17
REMARK   12  A    between atoms: C13_18  and  C14_19
REMARK   13  A    between atoms: C14_19  and  C15_20
REMARK   14  A    between atoms: C14_19  and  C16_21
REMARK   15  A    between atoms: C19_25  and  C20_26
REMARK   16  A    between atoms: C22_28  and  C23_29
REMARK   17  A    between atoms: C24_30  and  O7_31
REMARK   18  A    between atoms: C25_32  and  O8_33
REMARK   19  A    between atoms: O8_33  and  C26_34
REMARK   20  A    between atoms: C28_37  and  C29_38
REMARK   21  A    between atoms: C31_40  and  C32_41
REMARK   22  A    between atoms: C38_47  and  C39_48
REMARK   23  A    between atoms: C40_49  and  O16_72
REMARK   24  A    between atoms: C45_54  and  C46_55
REMARK   25  A    between atoms: C47_56  and  O10_57
REMARK   26  A    between atoms: O16_72  and  C56_73
REMARK                            x       y       z     vdW  Elec       q    Type
REMARK                         _______ _______ _______ _____ _____    ______ ____
ROOT
ATOM      1  C16 UNL     1      78.665  67.890 103.191  0.00  0.00    +0.000 C 
ATOM      2  C17 UNL     1      77.260  67.898 103.837  0.00  0.00    +0.000 C 
ATOM      3  C18 UNL     1      76.974  69.153 104.629  0.00  0.00    +0.000 C 
ATOM      4  O6  UNL     1      76.850  70.209 104.024  0.00  0.00    +0.000 OA
ATOM      5  C19 UNL     1      76.800  69.094 106.145  0.00  0.00    +0.000 C 
ATOM      6  C20 UNL     1      76.646  70.504 106.758  0.00  0.00    +0.000 C 
ATOM      7  C21 UNL     1      75.618  68.197 106.490  0.00  0.00    +0.000 C 
ATOM      8  C22 UNL     1      75.237  67.827 107.737  0.00  0.00    +0.000 C 
ATOM      9  C23 UNL     1      75.992  68.273 108.969  0.00  0.00    +0.000 C 
ATOM     10  C24 UNL     1      74.042  66.894 107.922  0.00  0.00    +0.000 C 
ATOM     11  C25 UNL     1      72.685  67.654 107.932  0.00  0.00    +0.000 C 
ATOM     12  C27 UNL     1      72.189  68.005 106.536  0.00  0.00    +0.000 C 
ATOM     13  O9  UNL     1      71.821  67.097 105.793  0.00  0.00    +0.000 OA
ATOM     14  C28 UNL     1      72.038  69.446 106.061  0.00  0.00    +0.000 C 
ATOM     15  C29 UNL     1      70.549  69.777 105.901  0.00  0.00    +0.000 C 
ATOM     16  C30 UNL     1      72.822  69.643 104.736  0.00  0.00    +0.000 C 
ATOM     17  C31 UNL     1      72.682  71.012 104.025  0.00  0.00    +0.000 C 
ATOM     18  C32 UNL     1      73.251  72.165 104.860  0.00  0.00    +0.000 C 
ATOM     19  C33 UNL     1      73.435  70.928 102.721  0.00  0.00    +0.000 C 
ATOM     20  C34 UNL     1      72.923  71.355 101.561  0.00  0.00    +0.000 C 
ATOM     21  C35 UNL     1      73.602  71.122 100.268  0.00  0.00    +0.000 C 
ATOM     22  C36 UNL     1      74.334  70.024 100.044  0.00  0.00    +0.000 C 
ATOM     23  C37 UNL     1      75.050  69.732  98.788  0.00  0.00    +0.000 C 
ATOM     24  C38 UNL     1      74.528  69.772  97.543  0.00  0.00    +0.000 C 
ATOM     25  C39 UNL     1      73.116  70.233  97.271  0.00  0.00    +0.000 C 
ATOM     26  C40 UNL     1      75.341  69.179  96.398  0.00  0.00    +0.000 C 
ATOM     27  C41 UNL     1      76.584  70.061  96.093  0.00  0.00    +0.000 C 
ATOM     28  C42 UNL     1      77.725  69.259  95.438  0.00  0.00    +0.000 C 
ATOM     29  C43 UNL     1      78.713  70.182  94.726  0.00  0.00    +0.000 C 
ATOM     30  C44 UNL     1      79.793  69.326  94.070  0.00  0.00    +0.000 C 
ATOM     31  C45 UNL     1      80.435  68.355  95.082  0.00  0.00    +0.000 C 
ATOM     32  C46 UNL     1      81.391  67.414  94.318  0.00  0.00    +0.000 C 
ATOM     33  C47 UNL     1      79.340  67.605  95.940  0.00  0.00    +0.000 C 
ATOM     34  O11 UNL     1      78.408  68.545  96.456  0.00  0.00    +0.000 OA
ATOM     35  C48 UNL     1      79.947  66.905  97.159  0.00  0.00    +0.000 C 
ATOM     36  O12 UNL     1      81.198  66.780  97.271  0.00  0.00    +0.000 OA
ATOM     37  C49 UNL     1      79.101  66.321  98.227  0.00  0.00    +0.000 C 
ATOM     38  O13 UNL     1      77.938  66.761  98.436  0.00  0.00    +0.000 OA
ATOM     39  N1  UNL     1      79.620  65.254  99.044  0.00  0.00    +0.000 N 
ATOM     40  C50 UNL     1      79.953  63.989  98.367  0.00  0.00    +0.000 C 
ATOM     41  C51 UNL     1      80.543  62.956  99.338  0.00  0.00    +0.000 C 
ATOM     42  C52 UNL     1      81.610  63.612 100.222  0.00  0.00    +0.000 C 
ATOM     43  C53 UNL     1      81.075  64.831 101.006  0.00  0.00    +0.000 C 
ATOM     44  C54 UNL     1      79.690  65.319 100.524  0.00  0.00    +0.000 C 
ATOM     45  C55 UNL     1      79.417  66.677 101.119  0.00  0.00    +0.000 C 
ATOM     46  O14 UNL     1      79.890  67.723 100.596  0.00  0.00    +0.000 OA
ATOM     47  O15 UNL     1      78.747  66.732 102.351  0.00  0.00    +0.000 OA
ENDROOT
BRANCH   1  48
ATOM     48  C14 UNL     1      79.829  67.893 104.239  0.00  0.00    +0.000 C 
ATOM     49  C15 UNL     1      80.111  69.309 104.780  0.00  0.00    +0.000 C 
BRANCH  48  50
ATOM     50  C13 UNL     1      79.539  66.882 105.389  0.00  0.00    +0.000 C 
BRANCH  50  53
ATOM     51  C2  UNL     1      79.404  63.167 103.977  0.00  0.00    +0.000 C 
ATOM     52  C3  UNL     1      78.850  64.483 104.580  0.00  0.00    +0.000 C 
ATOM     53  C4  UNL     1      79.945  65.385 105.205  0.00  0.00    +0.000 C 
ATOM     54  C5  UNL     1      81.313  65.179 104.521  0.00  0.00    +0.000 C 
ATOM     55  C6  UNL     1      81.805  63.725 104.679  0.00  0.00    +0.000 C 
ATOM     56  C7  UNL     1      80.663  62.674 104.710  0.00  0.00    +0.000 C 
BRANCH  51  58
ATOM     57  C1  UNL     1      77.117  62.738 104.102  0.00  0.00    +0.000 C 
ATOM     58  O1  UNL     1      78.404  62.162 104.069  0.00  0.00    +0.000 OA
ENDBRANCH  51  58
BRANCH  56  59
ATOM     59  O2  UNL     1      81.090  61.459 104.088  0.00  0.00    +0.000 OA
BRANCH  59  60
ATOM     60  C8  UNL     1      81.203  60.227 104.743  0.00  0.00    +0.000 C 
ATOM     61  O3  UNL     1      80.167  59.564 105.023  0.00  0.00    +0.000 OA
BRANCH  60  62
ATOM     62  C9  UNL     1      82.573  59.738 105.188  0.00  0.00    +0.000 C 
ATOM     63  C10 UNL     1      83.624  60.096 104.108  0.00  0.00    +0.000 C 
BRANCH  62  64
ATOM     64  C11 UNL     1      82.948  60.432 106.531  0.00  0.00    +0.000 C 
BRANCH  64  65
ATOM     65  O4  UNL     1      81.806  60.756 107.284  0.00  0.00    +0.000 OA
ATOM     66  H18 UNL     1      81.828  60.203 108.106  0.00  0.00    +0.000 HD
ENDBRANCH  64  65
ENDBRANCH  62  64
BRANCH  62  67
ATOM     67  C12 UNL     1      82.486  58.203 105.367  0.00  0.00    +0.000 C 
BRANCH  67  68
ATOM     68  O5  UNL     1      81.747  57.866 106.509  0.00  0.00    +0.000 OA
ATOM     69  H21 UNL     1      81.932  56.907 106.686  0.00  0.00    +0.000 HD
ENDBRANCH  67  68
ENDBRANCH  62  67
ENDBRANCH  60  62
ENDBRANCH  59  60
ENDBRANCH  56  59
ENDBRANCH  50  53
ENDBRANCH  48  50
ENDBRANCH   1  48
BRANCH  10  70
ATOM     70  O7  UNL     1      74.069  65.866 106.956  0.00  0.00    +0.000 OA
ATOM     71  H40 UNL     1      74.119  65.002 107.443  0.00  0.00    +0.000 HD
ENDBRANCH  10  70
BRANCH  11  72
ATOM     72  O8  UNL     1      71.743  66.812 108.585  0.00  0.00    +0.000 OA
ATOM     73  C26 UNL     1      70.645  67.546 109.085  0.00  0.00    +0.000 C 
ENDBRANCH  11  72
BRANCH  33  74
ATOM     74  O10 UNL     1      78.656  66.648  95.154  0.00  0.00    +0.000 OA
ATOM     75  H75 UNL     1      78.352  67.086  94.317  0.00  0.00    +0.000 HD
ENDBRANCH  33  74
BRANCH  26  76
ATOM     76  O16 UNL     1      75.741  67.859  96.738  0.00  0.00    +0.000 OA
ATOM     77  C56 UNL     1      74.923  66.903  96.098  0.00  0.00    +0.000 C 
ENDBRANCH  26  76
TORSDOF 15
ENDMDL
MODEL 20
REMARK VINA RESULT:      -6.9      4.630      8.062
REMARK  Name = ./S1044.pdb
REMARK  26 active torsions:
REMARK  status: ('A' for Active; 'I' for Inactive)
REMARK    1  A    between atoms: C1_1  and  O1_2
REMARK    2  A    between atoms: O1_2  and  C2_3
REMARK    3  A    between atoms: C4_5  and  C13_18
REMARK    4  A    between atoms: C7_8  and  O2_9
REMARK    5  A    between atoms: O2_9  and  C8_10
REMARK    6  A    between atoms: C8_10  and  C9_12
REMARK    7  A    between atoms: C9_12  and  C10_13
REMARK    8  A    between atoms: C9_12  and  C11_14
REMARK    9  A    between atoms: C9_12  and  C12_16
REMARK   10  A    between atoms: C11_14  and  O4_15
REMARK   11  A    between atoms: C12_16  and  O5_17
REMARK   12  A    between atoms: C13_18  and  C14_19
REMARK   13  A    between atoms: C14_19  and  C15_20
REMARK   14  A    between atoms: C14_19  and  C16_21
REMARK   15  A    between atoms: C19_25  and  C20_26
REMARK   16  A    between atoms: C22_28  and  C23_29
REMARK   17  A    between atoms: C24_30  and  O7_31
REMARK   18  A    between atoms: C25_32  and  O8_33
REMARK   19  A    between atoms: O8_33  and  C26_34
REMARK   20  A    between atoms: C28_37  and  C29_38
REMARK   21  A    between atoms: C31_40  and  C32_41
REMARK   22  A    between atoms: C38_47  and  C39_48
REMARK   23  A    between atoms: C40_49  and  O16_72
REMARK   24  A    between atoms: C45_54  and  C46_55
REMARK   25  A    between atoms: C47_56  and  O10_57
REMARK   26  A    between atoms: O16_72  and  C56_73
REMARK                            x       y       z     vdW  Elec       q    Type
REMARK                         _______ _______ _______ _____ _____    ______ ____
ROOT
ATOM      1  C16 UNL     1      76.897  67.193 102.875  0.00  0.00    +0.000 C 
ATOM      2  C17 UNL     1      77.439  67.476 101.455  0.00  0.00    +0.000 C 
ATOM      3  C18 UNL     1      77.132  66.374 100.467  0.00  0.00    +0.000 C 
ATOM      4  O6  UNL     1      75.969  66.196 100.134  0.00  0.00    +0.000 OA
ATOM      5  C19 UNL     1      78.256  65.533  99.867  0.00  0.00    +0.000 C 
ATOM      6  C20 UNL     1      77.706  64.386  98.988  0.00  0.00    +0.000 C 
ATOM      7  C21 UNL     1      79.208  66.431  99.088  0.00  0.00    +0.000 C 
ATOM      8  C22 UNL     1      80.375  66.049  98.513  0.00  0.00    +0.000 C 
ATOM      9  C23 UNL     1      80.883  64.627  98.606  0.00  0.00    +0.000 C 
ATOM     10  C24 UNL     1      81.240  67.077  97.788  0.00  0.00    +0.000 C 
ATOM     11  C25 UNL     1      80.799  67.296  96.312  0.00  0.00    +0.000 C 
ATOM     12  C27 UNL     1      79.596  68.222  96.182  0.00  0.00    +0.000 C 
ATOM     13  O9  UNL     1      79.735  69.414  96.452  0.00  0.00    +0.000 OA
ATOM     14  C28 UNL     1      78.256  67.746  95.635  0.00  0.00    +0.000 C 
ATOM     15  C29 UNL     1      78.005  68.393  94.266  0.00  0.00    +0.000 C 
ATOM     16  C30 UNL     1      77.130  68.081  96.649  0.00  0.00    +0.000 C 
ATOM     17  C31 UNL     1      75.672  67.792  96.213  0.00  0.00    +0.000 C 
ATOM     18  C32 UNL     1      75.413  66.298  95.992  0.00  0.00    +0.000 C 
ATOM     19  C33 UNL     1      74.761  68.296  97.305  0.00  0.00    +0.000 C 
ATOM     20  C34 UNL     1      73.673  69.035  97.057  0.00  0.00    +0.000 C 
ATOM     21  C35 UNL     1      72.880  69.655  98.140  0.00  0.00    +0.000 C 
ATOM     22  C36 UNL     1      73.449  70.083  99.273  0.00  0.00    +0.000 C 
ATOM     23  C37 UNL     1      72.721  70.697 100.400  0.00  0.00    +0.000 C 
ATOM     24  C38 UNL     1      71.846  71.723 100.322  0.00  0.00    +0.000 C 
ATOM     25  C39 UNL     1      71.420  72.325  99.004  0.00  0.00    +0.000 C 
ATOM     26  C40 UNL     1      71.403  72.397 101.616  0.00  0.00    +0.000 C 
ATOM     27  C41 UNL     1      70.486  71.450 102.441  0.00  0.00    +0.000 C 
ATOM     28  C42 UNL     1      70.515  71.772 103.947  0.00  0.00    +0.000 C 
ATOM     29  C43 UNL     1      69.298  71.188 104.662  0.00  0.00    +0.000 C 
ATOM     30  C44 UNL     1      69.368  71.572 106.137  0.00  0.00    +0.000 C 
ATOM     31  C45 UNL     1      70.726  71.185 106.757  0.00  0.00    +0.000 C 
ATOM     32  C46 UNL     1      70.787  71.751 108.193  0.00  0.00    +0.000 C 
ATOM     33  C47 UNL     1      71.931  71.628 105.836  0.00  0.00    +0.000 C 
ATOM     34  O11 UNL     1      71.693  71.208 104.500  0.00  0.00    +0.000 OA
ATOM     35  C48 UNL     1      73.246  70.966 106.255  0.00  0.00    +0.000 C 
ATOM     36  O12 UNL     1      73.334  70.347 107.351  0.00  0.00    +0.000 OA
ATOM     37  C49 UNL     1      74.467  71.055 105.418  0.00  0.00    +0.000 C 
ATOM     38  O13 UNL     1      74.379  71.241 104.174  0.00  0.00    +0.000 OA
ATOM     39  N1  UNL     1      75.762  70.909 106.031  0.00  0.00    +0.000 N 
ATOM     40  C50 UNL     1      76.154  71.921 107.027  0.00  0.00    +0.000 C 
ATOM     41  C51 UNL     1      77.530  71.621 107.639  0.00  0.00    +0.000 C 
ATOM     42  C52 UNL     1      77.625  70.141 108.029  0.00  0.00    +0.000 C 
ATOM     43  C53 UNL     1      77.354  69.190 106.843  0.00  0.00    +0.000 C 
ATOM     44  C54 UNL     1      76.758  69.895 105.603  0.00  0.00    +0.000 C 
ATOM     45  C55 UNL     1      76.239  68.851 104.649  0.00  0.00    +0.000 C 
ATOM     46  O14 UNL     1      75.102  68.329 104.811  0.00  0.00    +0.000 OA
ATOM     47  O15 UNL     1      77.114  68.369 103.663  0.00  0.00    +0.000 OA
ENDROOT
BRANCH   1  48
ATOM     48  C14 UNL     1      77.561  65.946 103.553  0.00  0.00    +0.000 C 
ATOM     49  C15 UNL     1      78.584  66.355 104.632  0.00  0.00    +0.000 C 
BRANCH  48  50
ATOM     50  C13 UNL     1      76.474  64.984 104.121  0.00  0.00    +0.000 C 
BRANCH  50  53
ATOM     51  C2  UNL     1      74.096  64.917 107.308  0.00  0.00    +0.000 C 
ATOM     52  C3  UNL     1      74.530  65.265 105.862  0.00  0.00    +0.000 C 
ATOM     53  C4  UNL     1      76.055  65.112 105.621  0.00  0.00    +0.000 C 
ATOM     54  C5  UNL     1      76.674  64.043 106.546  0.00  0.00    +0.000 C 
ATOM     55  C6  UNL     1      76.505  64.422 108.032  0.00  0.00    +0.000 C 
ATOM     56  C7  UNL     1      75.202  65.210 108.336  0.00  0.00    +0.000 C 
BRANCH  51  58
ATOM     57  C1  UNL     1      72.177  65.959 106.495  0.00  0.00    +0.000 C 
ATOM     58  O1  UNL     1      72.951  65.687 107.642  0.00  0.00    +0.000 OA
ENDBRANCH  51  58
BRANCH  56  59
ATOM     59  O2  UNL     1      74.704  64.863 109.632  0.00  0.00    +0.000 OA
BRANCH  59  60
ATOM     60  C8  UNL     1      74.934  65.607 110.796  0.00  0.00    +0.000 C 
ATOM     61  O3  UNL     1      75.857  65.271 111.587  0.00  0.00    +0.000 OA
BRANCH  60  62
ATOM     62  C9  UNL     1      74.011  66.766 111.139  0.00  0.00    +0.000 C 
ATOM     63  C10 UNL     1      72.537  66.308 111.004  0.00  0.00    +0.000 C 
BRANCH  62  64
ATOM     64  C11 UNL     1      74.285  67.216 112.603  0.00  0.00    +0.000 C 
BRANCH  64  65
ATOM     65  O4  UNL     1      75.362  68.117 112.676  0.00  0.00    +0.000 OA
ATOM     66  H18 UNL     1      76.197  67.584 112.624  0.00  0.00    +0.000 HD
ENDBRANCH  64  65
ENDBRANCH  62  64
BRANCH  62  67
ATOM     67  C12 UNL     1      74.311  67.914 110.143  0.00  0.00    +0.000 C 
BRANCH  67  68
ATOM     68  O5  UNL     1      73.261  68.081 109.230  0.00  0.00    +0.000 OA
ATOM     69  H21 UNL     1      72.425  68.069 109.765  0.00  0.00    +0.000 HD
ENDBRANCH  67  68
ENDBRANCH  62  67
ENDBRANCH  60  62
ENDBRANCH  59  60
ENDBRANCH  56  59
ENDBRANCH  50  53
ENDBRANCH  48  50
ENDBRANCH   1  48
BRANCH  10  70
ATOM     70  O7  UNL     1      81.280  68.285  98.517  0.00  0.00    +0.000 OA
ATOM     71  H40 UNL     1      82.220  68.427  98.803  0.00  0.00    +0.000 HD
ENDBRANCH  10  70
BRANCH  11  72
ATOM     72  O8  UNL     1      81.913  67.848  95.624  0.00  0.00    +0.000 OA
ATOM     73  C26 UNL     1      81.870  67.559  94.242  0.00  0.00    +0.000 C 
ENDBRANCH  11  72
BRANCH  33  74
ATOM     74  O10 UNL     1      72.094  73.033 105.865  0.00  0.00    +0.000 OA
ATOM     75  H75 UNL     1      71.477  73.437 105.201  0.00  0.00    +0.000 HD
ENDBRANCH  33  74
BRANCH  26  76
ATOM     76  O16 UNL     1      72.548  72.762 102.373  0.00  0.00    +0.000 OA
ATOM     77  C56 UNL     1      72.858  74.127 102.192  0.00  0.00    +0.000 C 
ENDBRANCH  26  76
TORSDOF 15
ENDMDL
