MODEL 1
REMARK VINA RESULT:      -7.9      0.000      0.000
REMARK  Name = ./S1148.pdb
REMARK  25 active torsions:
REMARK  status: ('A' for Active; 'I' for Inactive)
REMARK    1  A    between atoms: C1_1  and  C2_2
REMARK    2  A    between atoms: C2_2  and  O2_4
REMARK    3  A    between atoms: O2_4  and  C3_5
REMARK    4  A    between atoms: C7_10  and  O4_11
REMARK    5  A    between atoms: C8_12  and  C9_13
REMARK    6  A    between atoms: C11_15  and  O5_16
REMARK    7  A    between atoms: O5_16  and  C12_17
REMARK    8  A    between atoms: C12_17  and  C13_19
REMARK    9  A    between atoms: C19_25  and  O7_26
REMARK   10  A    between atoms: C21_28  and  O8_29
REMARK   11  A    between atoms: O8_29  and  C22_30
REMARK   12  A    between atoms: C22_30  and  C23_32
REMARK   13  A    between atoms: C23_32  and  O10_33
REMARK   14  A    between atoms: C23_32  and  C24_34
REMARK   15  A    between atoms: C24_34  and  N1_35
REMARK   16  A    between atoms: C24_34  and  C30_43
REMARK   17  A    between atoms: C25_36  and  O12_38
REMARK   18  A    between atoms: O12_38  and  C26_39
REMARK   19  A    between atoms: C26_39  and  C27_40
REMARK   20  A    between atoms: C26_39  and  C28_41
REMARK   21  A    between atoms: C26_39  and  C29_42
REMARK   22  A    between atoms: C36_49  and  C43_58
REMARK   23  A    between atoms: C38_51  and  O13_52
REMARK   24  A    between atoms: C40_55  and  C41_56
REMARK   25  A    between atoms: C40_55  and  C42_57
REMARK                            x       y       z     vdW  Elec       q    Type
REMARK                         _______ _______ _______ _____ _____    ______ ____
ROOT
ATOM      1  C3  UNL     1      73.103  67.176 107.717  0.00  0.00    +0.000 C 
ATOM      2  C4  UNL     1      73.147  68.024 108.973  0.00  0.00    +0.000 C 
ATOM      3  O3  UNL     1      73.762  69.106 108.308  0.00  0.00    +0.000 OA
ATOM      4  C5  UNL     1      73.657  68.435 107.074  0.00  0.00    +0.000 C 
ATOM      5  C6  UNL     1      74.995  68.255 106.353  0.00  0.00    +0.000 C 
ATOM      6  C7  UNL     1      76.036  67.600 107.255  0.00  0.00    +0.000 C 
ATOM      7  C8  UNL     1      75.629  66.160 107.773  0.00  0.00    +0.000 C 
ATOM      8  C9  UNL     1      76.122  66.103 109.265  0.00  0.00    +0.000 C 
ATOM      9  C10 UNL     1      74.037  65.899 107.636  0.00  0.00    +0.000 C 
ATOM     10  C11 UNL     1      73.482  64.652 108.456  0.00  0.00    +0.000 C 
ATOM     11  C19 UNL     1      73.205  63.273 107.689  0.00  0.00    +0.000 C 
ATOM     12  C20 UNL     1      71.986  63.412 106.712  0.00  0.00    +0.000 C 
ATOM     13  C21 UNL     1      72.293  63.636 105.206  0.00  0.00    +0.000 C 
ATOM     14  C36 UNL     1      73.748  63.895 104.852  0.00  0.00    +0.000 C 
ATOM     15  C37 UNL     1      74.765  63.636 105.746  0.00  0.00    +0.000 C 
ATOM     16  C38 UNL     1      76.110  64.393 105.707  0.00  0.00    +0.000 C 
ATOM     17  C39 UNL     1      76.474  65.085 107.017  0.00  0.00    +0.000 C 
ATOM     18  O14 UNL     1      77.605  64.851 107.426  0.00  0.00    +0.000 OA
ATOM     19  C40 UNL     1      74.449  62.676 106.914  0.00  0.00    +0.000 C 
ATOM     20  C41 UNL     1      75.653  62.387 107.865  0.00  0.00    +0.000 C 
ATOM     21  C42 UNL     1      74.140  61.263 106.323  0.00  0.00    +0.000 C 
ATOM     22  C43 UNL     1      73.956  64.554 103.508  0.00  0.00    +0.000 C 
ENDROOT
BRANCH   6  23
ATOM     23  O4  UNL     1      77.264  67.590 106.569  0.00  0.00    +0.000 OA
ATOM     24  H10 UNL     1      77.862  66.959 107.049  0.00  0.00    +0.000 HD
ENDBRANCH   6  23
BRANCH  11  25
ATOM     25  O7  UNL     1      72.793  62.327 108.656  0.00  0.00    +0.000 OA
ATOM     26  H21 UNL     1      71.898  61.982 108.427  0.00  0.00    +0.000 HD
ENDBRANCH  11  25
BRANCH  16  27
ATOM     27  O13 UNL     1      76.192  65.355 104.692  0.00  0.00    +0.000 OA
ATOM     28  H44 UNL     1      75.926  66.229 105.087  0.00  0.00    +0.000 HD
ENDBRANCH  16  27
BRANCH   1  29
ATOM     29  O2  UNL     1      71.740  66.926 107.344  0.00  0.00    +0.000 OA
BRANCH  29  31
ATOM     30  C1  UNL     1      70.286  68.920 107.010  0.00  0.00    +0.000 C 
ATOM     31  C2  UNL     1      70.637  67.680 107.760  0.00  0.00    +0.000 C 
ATOM     32  O1  UNL     1      69.918  67.308 108.729  0.00  0.00    +0.000 OA
ENDBRANCH  29  31
ENDBRANCH   1  29
BRANCH  10  33
ATOM     33  O5  UNL     1      72.289  65.030 109.155  0.00  0.00    +0.000 OA
BRANCH  33  34
ATOM     34  C12 UNL     1      72.046  64.814 110.520  0.00  0.00    +0.000 C 
ATOM     35  O6  UNL     1      70.936  64.353 110.912  0.00  0.00    +0.000 OA
BRANCH  34  36
ATOM     36  C13 UNL     1      73.110  65.108 111.504  0.00  0.00    +0.000 A 
ATOM     37  C14 UNL     1      73.207  66.382 112.091  0.00  0.00    +0.000 A 
ATOM     38  C15 UNL     1      74.219  66.665 113.012  0.00  0.00    +0.000 A 
ATOM     39  C16 UNL     1      75.139  65.676 113.367  0.00  0.00    +0.000 A 
ATOM     40  C17 UNL     1      75.056  64.408 112.789  0.00  0.00    +0.000 A 
ATOM     41  C18 UNL     1      74.044  64.119 111.868  0.00  0.00    +0.000 A 
ENDBRANCH  34  36
ENDBRANCH  33  34
ENDBRANCH  10  33
BRANCH  13  42
ATOM     42  O8  UNL     1      71.799  62.543 104.430  0.00  0.00    +0.000 OA
BRANCH  42  43
ATOM     43  C22 UNL     1      70.763  62.641 103.490  0.00  0.00    +0.000 C 
ATOM     44  O9  UNL     1      69.570  62.857 103.853  0.00  0.00    +0.000 OA
BRANCH  43  45
ATOM     45  C23 UNL     1      71.086  62.574 102.025  0.00  0.00    +0.000 C 
BRANCH  45  46
ATOM     46  O10 UNL     1      70.238  63.452 101.331  0.00  0.00    +0.000 OA
ATOM     47  H26 UNL     1      69.843  64.073 101.992  0.00  0.00    +0.000 HD
ENDBRANCH  45  46
BRANCH  45  48
ATOM     48  C24 UNL     1      70.960  61.121 101.496  0.00  0.00    +0.000 C 
BRANCH  48  49
ATOM     49  C30 UNL     1      70.070  61.013 100.269  0.00  0.00    +0.000 A 
ATOM     50  C31 UNL     1      70.588  61.206  98.974  0.00  0.00    +0.000 A 
ATOM     51  C32 UNL     1      69.749  61.130  97.861  0.00  0.00    +0.000 A 
ATOM     52  C33 UNL     1      68.388  60.863  98.022  0.00  0.00    +0.000 A 
ATOM     53  C34 UNL     1      67.869  60.646  99.300  0.00  0.00    +0.000 A 
ATOM     54  C35 UNL     1      68.700  60.723 100.420  0.00  0.00    +0.000 A 
ENDBRANCH  48  49
BRANCH  48  55
ATOM     55  N1  UNL     1      72.287  60.561 101.206  0.00  0.00    +0.000 N 
ATOM     56  C25 UNL     1      73.026  59.779 102.151  0.00  0.00    +0.000 C 
ATOM     57  O11 UNL     1      72.520  59.509 103.275  0.00  0.00    +0.000 OA
ATOM     58  H28 UNL     1      72.673  60.636 100.238  0.00  0.00    +0.000 HD
BRANCH  56  59
ATOM     59  O12 UNL     1      74.312  59.330 101.810  0.00  0.00    +0.000 OA
BRANCH  59  60
ATOM     60  C26 UNL     1      75.547  59.774 102.391  0.00  0.00    +0.000 C 
ATOM     61  C27 UNL     1      76.656  59.508 101.360  0.00  0.00    +0.000 C 
ATOM     62  C28 UNL     1      75.860  58.979 103.673  0.00  0.00    +0.000 C 
ATOM     63  C29 UNL     1      75.493  61.288 102.689  0.00  0.00    +0.000 C 
ENDBRANCH  59  60
ENDBRANCH  56  59
ENDBRANCH  48  55
ENDBRANCH  45  48
ENDBRANCH  43  45
ENDBRANCH  42  43
ENDBRANCH  13  42
TORSDOF 17
ENDMDL
MODEL 2
REMARK VINA RESULT:      -7.8      2.580      4.489
REMARK  Name = ./S1148.pdb
REMARK  25 active torsions:
REMARK  status: ('A' for Active; 'I' for Inactive)
REMARK    1  A    between atoms: C1_1  and  C2_2
REMARK    2  A    between atoms: C2_2  and  O2_4
REMARK    3  A    between atoms: O2_4  and  C3_5
REMARK    4  A    between atoms: C7_10  and  O4_11
REMARK    5  A    between atoms: C8_12  and  C9_13
REMARK    6  A    between atoms: C11_15  and  O5_16
REMARK    7  A    between atoms: O5_16  and  C12_17
REMARK    8  A    between atoms: C12_17  and  C13_19
REMARK    9  A    between atoms: C19_25  and  O7_26
REMARK   10  A    between atoms: C21_28  and  O8_29
REMARK   11  A    between atoms: O8_29  and  C22_30
REMARK   12  A    between atoms: C22_30  and  C23_32
REMARK   13  A    between atoms: C23_32  and  O10_33
REMARK   14  A    between atoms: C23_32  and  C24_34
REMARK   15  A    between atoms: C24_34  and  N1_35
REMARK   16  A    between atoms: C24_34  and  C30_43
REMARK   17  A    between atoms: C25_36  and  O12_38
REMARK   18  A    between atoms: O12_38  and  C26_39
REMARK   19  A    between atoms: C26_39  and  C27_40
REMARK   20  A    between atoms: C26_39  and  C28_41
REMARK   21  A    between atoms: C26_39  and  C29_42
REMARK   22  A    between atoms: C36_49  and  C43_58
REMARK   23  A    between atoms: C38_51  and  O13_52
REMARK   24  A    between atoms: C40_55  and  C41_56
REMARK   25  A    between atoms: C40_55  and  C42_57
REMARK                            x       y       z     vdW  Elec       q    Type
REMARK                         _______ _______ _______ _____ _____    ______ ____
ROOT
ATOM      1  C3  UNL     1      72.508  64.887 109.044  0.00  0.00    +0.000 C 
ATOM      2  C4  UNL     1      72.273  64.535 110.499  0.00  0.00    +0.000 C 
ATOM      3  O3  UNL     1      71.605  65.751 110.760  0.00  0.00    +0.000 OA
ATOM      4  C5  UNL     1      71.678  66.108 109.400  0.00  0.00    +0.000 C 
ATOM      5  C6  UNL     1      72.367  67.451 109.150  0.00  0.00    +0.000 C 
ATOM      6  C7  UNL     1      73.739  67.512 109.814  0.00  0.00    +0.000 C 
ATOM      7  C8  UNL     1      74.753  66.406 109.306  0.00  0.00    +0.000 C 
ATOM      8  C9  UNL     1      75.534  65.942 110.589  0.00  0.00    +0.000 C 
ATOM      9  C10 UNL     1      73.990  65.183 108.569  0.00  0.00    +0.000 C 
ATOM     10  C11 UNL     1      74.864  63.869 108.357  0.00  0.00    +0.000 C 
ATOM     11  C19 UNL     1      75.515  63.587 106.920  0.00  0.00    +0.000 C 
ATOM     12  C20 UNL     1      74.409  63.249 105.862  0.00  0.00    +0.000 C 
ATOM     13  C21 UNL     1      73.958  64.386 104.904  0.00  0.00    +0.000 C 
ATOM     14  C36 UNL     1      74.494  65.774 105.216  0.00  0.00    +0.000 C 
ATOM     15  C37 UNL     1      75.550  65.962 106.082  0.00  0.00    +0.000 C 
ATOM     16  C38 UNL     1      75.741  67.271 106.878  0.00  0.00    +0.000 C 
ATOM     17  C39 UNL     1      75.826  67.076 108.389  0.00  0.00    +0.000 C 
ATOM     18  O14 UNL     1      76.780  67.625 108.926  0.00  0.00    +0.000 OA
ATOM     19  C40 UNL     1      76.450  64.740 106.371  0.00  0.00    +0.000 C 
ATOM     20  C41 UNL     1      77.654  65.027 107.324  0.00  0.00    +0.000 C 
ATOM     21  C42 UNL     1      77.163  64.326 105.045  0.00  0.00    +0.000 C 
ATOM     22  C43 UNL     1      73.707  66.902 104.592  0.00  0.00    +0.000 C 
ENDROOT
BRANCH   6  23
ATOM     23  O4  UNL     1      74.247  68.813 109.650  0.00  0.00    +0.000 OA
ATOM     24  H10 UNL     1      75.153  68.826 110.056  0.00  0.00    +0.000 HD
ENDBRANCH   6  23
BRANCH  11  25
ATOM     25  O7  UNL     1      76.288  62.409 107.031  0.00  0.00    +0.000 OA
ATOM     26  H21 UNL     1      75.755  61.697 107.457  0.00  0.00    +0.000 HD
ENDBRANCH  11  25
BRANCH  16  27
ATOM     27  O13 UNL     1      74.751  68.232 106.637  0.00  0.00    +0.000 OA
ATOM     28  H44 UNL     1      74.538  68.203 105.665  0.00  0.00    +0.000 HD
ENDBRANCH  16  27
BRANCH   1  29
ATOM     29  O2  UNL     1      71.797  63.970 108.199  0.00  0.00    +0.000 OA
BRANCH  29  31
ATOM     30  C1  UNL     1      70.372  63.255 106.286  0.00  0.00    +0.000 C 
ATOM     31  C2  UNL     1      71.111  64.315 107.029  0.00  0.00    +0.000 C 
ATOM     32  O1  UNL     1      71.078  65.509 106.618  0.00  0.00    +0.000 OA
ENDBRANCH  29  31
ENDBRANCH   1  29
BRANCH  10  33
ATOM     33  O5  UNL     1      74.101  62.718 108.743  0.00  0.00    +0.000 OA
BRANCH  33  34
ATOM     34  C12 UNL     1      74.504  61.756 109.682  0.00  0.00    +0.000 C 
ATOM     35  O6  UNL     1      74.025  60.587 109.651  0.00  0.00    +0.000 OA
BRANCH  34  36
ATOM     36  C13 UNL     1      75.516  62.110 110.699  0.00  0.00    +0.000 A 
ATOM     37  C14 UNL     1      76.885  61.914 110.442  0.00  0.00    +0.000 A 
ATOM     38  C15 UNL     1      77.842  62.237 111.408  0.00  0.00    +0.000 A 
ATOM     39  C16 UNL     1      77.446  62.769 112.636  0.00  0.00    +0.000 A 
ATOM     40  C17 UNL     1      76.090  62.966 112.905  0.00  0.00    +0.000 A 
ATOM     41  C18 UNL     1      75.128  62.647 111.942  0.00  0.00    +0.000 A 
ENDBRANCH  34  36
ENDBRANCH  33  34
ENDBRANCH  10  33
BRANCH  13  42
ATOM     42  O8  UNL     1      74.265  64.048 103.550  0.00  0.00    +0.000 OA
BRANCH  42  43
ATOM     43  C22 UNL     1      73.415  63.326 102.700  0.00  0.00    +0.000 C 
ATOM     44  O9  UNL     1      72.160  63.474 102.753  0.00  0.00    +0.000 OA
BRANCH  43  45
ATOM     45  C23 UNL     1      74.008  62.426 101.655  0.00  0.00    +0.000 C 
BRANCH  45  46
ATOM     46  O10 UNL     1      73.097  62.299 100.594  0.00  0.00    +0.000 OA
ATOM     47  H26 UNL     1      72.822  63.210 100.324  0.00  0.00    +0.000 HD
ENDBRANCH  45  46
BRANCH  45  48
ATOM     48  C24 UNL     1      74.378  61.045 102.257  0.00  0.00    +0.000 C 
BRANCH  48  49
ATOM     49  C30 UNL     1      75.864  60.903 102.543  0.00  0.00    +0.000 A 
ATOM     50  C31 UNL     1      76.804  60.841 101.496  0.00  0.00    +0.000 A 
ATOM     51  C32 UNL     1      78.162  60.682 101.777  0.00  0.00    +0.000 A 
ATOM     52  C33 UNL     1      78.600  60.582 103.099  0.00  0.00    +0.000 A 
ATOM     53  C34 UNL     1      77.680  60.667 104.145  0.00  0.00    +0.000 A 
ATOM     54  C35 UNL     1      76.318  60.821 103.873  0.00  0.00    +0.000 A 
ENDBRANCH  48  49
BRANCH  48  55
ATOM     55  N1  UNL     1      73.605  60.792 103.481  0.00  0.00    +0.000 N 
ATOM     56  C25 UNL     1      72.868  59.583 103.700  0.00  0.00    +0.000 C 
ATOM     57  O11 UNL     1      72.902  58.662 102.839  0.00  0.00    +0.000 OA
ATOM     58  H28 UNL     1      73.672  61.465 104.277  0.00  0.00    +0.000 HD
BRANCH  56  59
ATOM     59  O12 UNL     1      72.110  59.448 104.874  0.00  0.00    +0.000 OA
BRANCH  59  60
ATOM     60  C26 UNL     1      72.479  58.695 106.040  0.00  0.00    +0.000 C 
ATOM     61  C27 UNL     1      71.820  59.378 107.249  0.00  0.00    +0.000 C 
ATOM     62  C28 UNL     1      74.008  58.711 106.234  0.00  0.00    +0.000 C 
ATOM     63  C29 UNL     1      71.958  57.246 105.936  0.00  0.00    +0.000 C 
ENDBRANCH  59  60
ENDBRANCH  56  59
ENDBRANCH  48  55
ENDBRANCH  45  48
ENDBRANCH  43  45
ENDBRANCH  42  43
ENDBRANCH  13  42
TORSDOF 17
ENDMDL
MODEL 3
REMARK VINA RESULT:      -7.8      2.859      6.212
REMARK  Name = ./S1148.pdb
REMARK  25 active torsions:
REMARK  status: ('A' for Active; 'I' for Inactive)
REMARK    1  A    between atoms: C1_1  and  C2_2
REMARK    2  A    between atoms: C2_2  and  O2_4
REMARK    3  A    between atoms: O2_4  and  C3_5
REMARK    4  A    between atoms: C7_10  and  O4_11
REMARK    5  A    between atoms: C8_12  and  C9_13
REMARK    6  A    between atoms: C11_15  and  O5_16
REMARK    7  A    between atoms: O5_16  and  C12_17
REMARK    8  A    between atoms: C12_17  and  C13_19
REMARK    9  A    between atoms: C19_25  and  O7_26
REMARK   10  A    between atoms: C21_28  and  O8_29
REMARK   11  A    between atoms: O8_29  and  C22_30
REMARK   12  A    between atoms: C22_30  and  C23_32
REMARK   13  A    between atoms: C23_32  and  O10_33
REMARK   14  A    between atoms: C23_32  and  C24_34
REMARK   15  A    between atoms: C24_34  and  N1_35
REMARK   16  A    between atoms: C24_34  and  C30_43
REMARK   17  A    between atoms: C25_36  and  O12_38
REMARK   18  A    between atoms: O12_38  and  C26_39
REMARK   19  A    between atoms: C26_39  and  C27_40
REMARK   20  A    between atoms: C26_39  and  C28_41
REMARK   21  A    between atoms: C26_39  and  C29_42
REMARK   22  A    between atoms: C36_49  and  C43_58
REMARK   23  A    between atoms: C38_51  and  O13_52
REMARK   24  A    between atoms: C40_55  and  C41_56
REMARK   25  A    between atoms: C40_55  and  C42_57
REMARK                            x       y       z     vdW  Elec       q    Type
REMARK                         _______ _______ _______ _____ _____    ______ ____
ROOT
ATOM      1  C3  UNL     1      74.165  64.420 109.771  0.00  0.00    +0.000 C 
ATOM      2  C4  UNL     1      74.949  64.950 110.954  0.00  0.00    +0.000 C 
ATOM      3  O3  UNL     1      73.842  64.855 111.824  0.00  0.00    +0.000 OA
ATOM      4  C5  UNL     1      73.072  64.248 110.811  0.00  0.00    +0.000 C 
ATOM      5  C6  UNL     1      71.767  64.984 110.503  0.00  0.00    +0.000 C 
ATOM      6  C7  UNL     1      72.010  66.461 110.207  0.00  0.00    +0.000 C 
ATOM      7  C8  UNL     1      72.957  66.724 108.964  0.00  0.00    +0.000 C 
ATOM      8  C9  UNL     1      73.856  67.944 109.382  0.00  0.00    +0.000 C 
ATOM      9  C10 UNL     1      73.828  65.413 108.584  0.00  0.00    +0.000 C 
ATOM     10  C11 UNL     1      75.058  65.678 107.607  0.00  0.00    +0.000 C 
ATOM     11  C19 UNL     1      74.905  65.338 106.048  0.00  0.00    +0.000 C 
ATOM     12  C20 UNL     1      74.814  63.789 105.821  0.00  0.00    +0.000 C 
ATOM     13  C21 UNL     1      73.404  63.175 105.604  0.00  0.00    +0.000 C 
ATOM     14  C36 UNL     1      72.226  64.109 105.830  0.00  0.00    +0.000 C 
ATOM     15  C37 UNL     1      72.394  65.475 105.907  0.00  0.00    +0.000 C 
ATOM     16  C38 UNL     1      71.424  66.382 106.695  0.00  0.00    +0.000 C 
ATOM     17  C39 UNL     1      72.098  67.236 107.764  0.00  0.00    +0.000 C 
ATOM     18  O14 UNL     1      71.812  68.426 107.727  0.00  0.00    +0.000 OA
ATOM     19  C40 UNL     1      73.699  66.059 105.320  0.00  0.00    +0.000 C 
ATOM     20  C41 UNL     1      73.809  67.615 105.397  0.00  0.00    +0.000 C 
ATOM     21  C42 UNL     1      73.710  65.797 103.781  0.00  0.00    +0.000 C 
ATOM     22  C43 UNL     1      70.910  63.407 106.070  0.00  0.00    +0.000 C 
ENDROOT
BRANCH   6  23
ATOM     23  O4  UNL     1      70.760  67.089 110.064  0.00  0.00    +0.000 OA
ATOM     24  H10 UNL     1      70.576  67.156 109.090  0.00  0.00    +0.000 HD
ENDBRANCH   6  23
BRANCH  11  25
ATOM     25  O7  UNL     1      76.103  65.732 105.411  0.00  0.00    +0.000 OA
ATOM     26  H21 UNL     1      76.814  65.075 105.597  0.00  0.00    +0.000 HD
ENDBRANCH  11  25
BRANCH  16  27
ATOM     27  O13 UNL     1      70.375  65.690 107.314  0.00  0.00    +0.000 OA
ATOM     28  H44 UNL     1      69.669  66.356 107.535  0.00  0.00    +0.000 HD
ENDBRANCH  16  27
BRANCH   1  29
ATOM     29  O2  UNL     1      74.716  63.166 109.343  0.00  0.00    +0.000 OA
BRANCH  29  31
ATOM     30  C1  UNL     1      76.769  62.114 110.282  0.00  0.00    +0.000 C 
ATOM     31  C2  UNL     1      75.284  62.203 110.185  0.00  0.00    +0.000 C 
ATOM     32  O1  UNL     1      74.562  61.440 110.886  0.00  0.00    +0.000 OA
ENDBRANCH  29  31
ENDBRANCH   1  29
BRANCH  10  33
ATOM     33  O5  UNL     1      76.220  65.004 108.106  0.00  0.00    +0.000 OA
BRANCH  33  34
ATOM     34  C12 UNL     1      77.529  65.510 108.069  0.00  0.00    +0.000 C 
ATOM     35  O6  UNL     1      77.754  66.731 108.303  0.00  0.00    +0.000 OA
BRANCH  34  36
ATOM     36  C13 UNL     1      78.654  64.596 107.778  0.00  0.00    +0.000 A 
ATOM     37  C14 UNL     1      78.978  64.265 106.450  0.00  0.00    +0.000 A 
ATOM     38  C15 UNL     1      80.034  63.392 106.173  0.00  0.00    +0.000 A 
ATOM     39  C16 UNL     1      80.785  62.848 107.217  0.00  0.00    +0.000 A 
ATOM     40  C17 UNL     1      80.471  63.166 108.540  0.00  0.00    +0.000 A 
ATOM     41  C18 UNL     1      79.417  64.041 108.822  0.00  0.00    +0.000 A 
ENDBRANCH  34  36
ENDBRANCH  33  34
ENDBRANCH  10  33
BRANCH  13  42
ATOM     42  O8  UNL     1      73.310  62.592 104.303  0.00  0.00    +0.000 OA
BRANCH  42  43
ATOM     43  C22 UNL     1      73.209  61.215 104.056  0.00  0.00    +0.000 C 
ATOM     44  O9  UNL     1      72.247  60.537 104.518  0.00  0.00    +0.000 OA
BRANCH  43  45
ATOM     45  C23 UNL     1      74.214  60.551 103.159  0.00  0.00    +0.000 C 
BRANCH  45  46
ATOM     46  O10 UNL     1      73.538  59.708 102.263  0.00  0.00    +0.000 OA
ATOM     47  H26 UNL     1      73.476  60.179 101.396  0.00  0.00    +0.000 HD
ENDBRANCH  45  46
BRANCH  45  48
ATOM     48  C24 UNL     1      75.269  59.773 103.989  0.00  0.00    +0.000 C 
BRANCH  48  49
ATOM     49  C30 UNL     1      76.682  60.297 103.791  0.00  0.00    +0.000 A 
ATOM     50  C31 UNL     1      76.918  61.640 103.436  0.00  0.00    +0.000 A 
ATOM     51  C32 UNL     1      78.221  62.096 103.231  0.00  0.00    +0.000 A 
ATOM     52  C33 UNL     1      79.302  61.224 103.375  0.00  0.00    +0.000 A 
ATOM     53  C34 UNL     1      79.082  59.898 103.749  0.00  0.00    +0.000 A 
ATOM     54  C35 UNL     1      77.781  59.431 103.953  0.00  0.00    +0.000 A 
ENDBRANCH  48  49
BRANCH  48  55
ATOM     55  N1  UNL     1      74.921  59.795 105.416  0.00  0.00    +0.000 N 
ATOM     56  C25 UNL     1      74.746  58.604 106.193  0.00  0.00    +0.000 C 
ATOM     57  O11 UNL     1      74.934  57.475 105.663  0.00  0.00    +0.000 OA
ATOM     58  H28 UNL     1      74.902  60.707 105.924  0.00  0.00    +0.000 HD
BRANCH  56  59
ATOM     59  O12 UNL     1      74.358  58.716 107.537  0.00  0.00    +0.000 OA
BRANCH  59  60
ATOM     60  C26 UNL     1      73.041  59.029 108.017  0.00  0.00    +0.000 C 
ATOM     61  C27 UNL     1      72.978  58.593 109.489  0.00  0.00    +0.000 C 
ATOM     62  C28 UNL     1      71.976  58.249 107.222  0.00  0.00    +0.000 C 
ATOM     63  C29 UNL     1      72.780  60.548 107.932  0.00  0.00    +0.000 C 
ENDBRANCH  59  60
ENDBRANCH  56  59
ENDBRANCH  48  55
ENDBRANCH  45  48
ENDBRANCH  43  45
ENDBRANCH  42  43
ENDBRANCH  13  42
TORSDOF 17
ENDMDL
MODEL 4
REMARK VINA RESULT:      -7.6      2.998      9.567
REMARK  Name = ./S1148.pdb
REMARK  25 active torsions:
REMARK  status: ('A' for Active; 'I' for Inactive)
REMARK    1  A    between atoms: C1_1  and  C2_2
REMARK    2  A    between atoms: C2_2  and  O2_4
REMARK    3  A    between atoms: O2_4  and  C3_5
REMARK    4  A    between atoms: C7_10  and  O4_11
REMARK    5  A    between atoms: C8_12  and  C9_13
REMARK    6  A    between atoms: C11_15  and  O5_16
REMARK    7  A    between atoms: O5_16  and  C12_17
REMARK    8  A    between atoms: C12_17  and  C13_19
REMARK    9  A    between atoms: C19_25  and  O7_26
REMARK   10  A    between atoms: C21_28  and  O8_29
REMARK   11  A    between atoms: O8_29  and  C22_30
REMARK   12  A    between atoms: C22_30  and  C23_32
REMARK   13  A    between atoms: C23_32  and  O10_33
REMARK   14  A    between atoms: C23_32  and  C24_34
REMARK   15  A    between atoms: C24_34  and  N1_35
REMARK   16  A    between atoms: C24_34  and  C30_43
REMARK   17  A    between atoms: C25_36  and  O12_38
REMARK   18  A    between atoms: O12_38  and  C26_39
REMARK   19  A    between atoms: C26_39  and  C27_40
REMARK   20  A    between atoms: C26_39  and  C28_41
REMARK   21  A    between atoms: C26_39  and  C29_42
REMARK   22  A    between atoms: C36_49  and  C43_58
REMARK   23  A    between atoms: C38_51  and  O13_52
REMARK   24  A    between atoms: C40_55  and  C41_56
REMARK   25  A    between atoms: C40_55  and  C42_57
REMARK                            x       y       z     vdW  Elec       q    Type
REMARK                         _______ _______ _______ _____ _____    ______ ____
ROOT
ATOM      1  C3  UNL     1      75.434  62.308 104.040  0.00  0.00    +0.000 C 
ATOM      2  C4  UNL     1      76.017  62.050 102.665  0.00  0.00    +0.000 C 
ATOM      3  O3  UNL     1      75.552  63.282 102.157  0.00  0.00    +0.000 OA
ATOM      4  C5  UNL     1      75.080  63.654 103.431  0.00  0.00    +0.000 C 
ATOM      5  C6  UNL     1      73.591  64.003 103.459  0.00  0.00    +0.000 C 
ATOM      6  C7  UNL     1      72.740  62.890 102.855  0.00  0.00    +0.000 C 
ATOM      7  C8  UNL     1      72.871  61.499 103.600  0.00  0.00    +0.000 C 
ATOM      8  C9  UNL     1      72.867  60.417 102.459  0.00  0.00    +0.000 C 
ATOM      9  C10 UNL     1      74.204  61.430 104.516  0.00  0.00    +0.000 C 
ATOM     10  C11 UNL     1      74.617  59.971 105.003  0.00  0.00    +0.000 C 
ATOM     11  C19 UNL     1      74.249  59.511 106.493  0.00  0.00    +0.000 C 
ATOM     12  C20 UNL     1      75.095  60.307 107.547  0.00  0.00    +0.000 C 
ATOM     13  C21 UNL     1      74.413  61.506 108.260  0.00  0.00    +0.000 C 
ATOM     14  C36 UNL     1      73.051  61.917 107.722  0.00  0.00    +0.000 C 
ATOM     15  C37 UNL     1      72.330  61.095 106.882  0.00  0.00    +0.000 C 
ATOM     16  C38 UNL     1      71.305  61.648 105.869  0.00  0.00    +0.000 C 
ATOM     17  C39 UNL     1      71.570  61.234 104.425  0.00  0.00    +0.000 C 
ATOM     18  O14 UNL     1      70.603  60.766 103.838  0.00  0.00    +0.000 OA
ATOM     19  C40 UNL     1      72.712  59.599 106.861  0.00  0.00    +0.000 C 
ATOM     20  C41 UNL     1      71.830  58.713 105.925  0.00  0.00    +0.000 C 
ATOM     21  C42 UNL     1      72.418  58.994 108.271  0.00  0.00    +0.000 C 
ATOM     22  C43 UNL     1      72.630  63.319 108.094  0.00  0.00    +0.000 C 
ENDROOT
BRANCH   6  23
ATOM     23  O4  UNL     1      71.409  63.340 102.799  0.00  0.00    +0.000 OA
ATOM     24  H10 UNL     1      71.156  63.620 103.718  0.00  0.00    +0.000 HD
ENDBRANCH   6  23
BRANCH  11  25
ATOM     25  O7  UNL     1      74.660  58.166 106.634  0.00  0.00    +0.000 OA
ATOM     26  H21 UNL     1      74.105  57.584 106.064  0.00  0.00    +0.000 HD
ENDBRANCH  11  25
BRANCH  16  27
ATOM     27  O13 UNL     1      71.183  63.043 105.886  0.00  0.00    +0.000 OA
ATOM     28  H44 UNL     1      71.773  63.385 106.612  0.00  0.00    +0.000 HD
ENDBRANCH  16  27
BRANCH   1  29
ATOM     29  O2  UNL     1      76.489  62.406 105.008  0.00  0.00    +0.000 OA
BRANCH  29  31
ATOM     30  C1  UNL     1      78.894  61.818 104.735  0.00  0.00    +0.000 C 
ATOM     31  C2  UNL     1      77.796  62.827 104.738  0.00  0.00    +0.000 C 
ATOM     32  O1  UNL     1      78.051  64.033 104.463  0.00  0.00    +0.000 OA
ENDBRANCH  29  31
ENDBRANCH   1  29
BRANCH  10  33
ATOM     33  O5  UNL     1      76.022  59.777 104.802  0.00  0.00    +0.000 OA
BRANCH  33  34
ATOM     34  C12 UNL     1      76.614  58.625 104.261  0.00  0.00    +0.000 C 
ATOM     35  O6  UNL     1      77.388  57.910 104.959  0.00  0.00    +0.000 OA
BRANCH  34  36
ATOM     36  C13 UNL     1      76.307  58.234 102.869  0.00  0.00    +0.000 A 
ATOM     37  C14 UNL     1      75.234  57.368 102.591  0.00  0.00    +0.000 A 
ATOM     38  C15 UNL     1      74.950  56.988 101.277  0.00  0.00    +0.000 A 
ATOM     39  C16 UNL     1      75.725  57.476 100.224  0.00  0.00    +0.000 A 
ATOM     40  C17 UNL     1      76.796  58.334 100.486  0.00  0.00    +0.000 A 
ATOM     41  C18 UNL     1      77.083  58.719 101.799  0.00  0.00    +0.000 A 
ENDBRANCH  34  36
ENDBRANCH  33  34
ENDBRANCH  10  33
BRANCH  13  42
ATOM     42  O8  UNL     1      74.319  61.263 109.665  0.00  0.00    +0.000 OA
BRANCH  42  43
ATOM     43  C22 UNL     1      75.081  61.925 110.638  0.00  0.00    +0.000 C 
ATOM     44  O9  UNL     1      74.583  62.237 111.758  0.00  0.00    +0.000 OA
BRANCH  43  45
ATOM     45  C23 UNL     1      76.536  62.193 110.378  0.00  0.00    +0.000 C 
BRANCH  45  46
ATOM     46  O10 UNL     1      77.294  61.636 111.421  0.00  0.00    +0.000 OA
ATOM     47  H26 UNL     1      78.166  62.101 111.439  0.00  0.00    +0.000 HD
ENDBRANCH  45  46
BRANCH  45  48
ATOM     48  C24 UNL     1      76.801  63.714 110.229  0.00  0.00    +0.000 C 
BRANCH  48  49
ATOM     49  C30 UNL     1      77.928  64.027 109.258  0.00  0.00    +0.000 A 
ATOM     50  C31 UNL     1      77.776  65.005 108.256  0.00  0.00    +0.000 A 
ATOM     51  C32 UNL     1      78.812  65.258 107.356  0.00  0.00    +0.000 A 
ATOM     52  C33 UNL     1      80.008  64.542 107.441  0.00  0.00    +0.000 A 
ATOM     53  C34 UNL     1      80.179  63.588 108.445  0.00  0.00    +0.000 A 
ATOM     54  C35 UNL     1      79.146  63.325 109.348  0.00  0.00    +0.000 A 
ENDBRANCH  48  49
BRANCH  48  55
ATOM     55  N1  UNL     1      75.576  64.414 109.819  0.00  0.00    +0.000 N 
ATOM     56  C25 UNL     1      75.010  65.496 110.567  0.00  0.00    +0.000 C 
ATOM     57  O11 UNL     1      75.592  65.914 111.606  0.00  0.00    +0.000 OA
ATOM     58  H28 UNL     1      75.149  64.196 108.891  0.00  0.00    +0.000 HD
BRANCH  56  59
ATOM     59  O12 UNL     1      73.805  66.071 110.132  0.00  0.00    +0.000 OA
BRANCH  59  60
ATOM     60  C26 UNL     1      73.668  67.131 109.174  0.00  0.00    +0.000 C 
ATOM     61  C27 UNL     1      72.165  67.407 109.012  0.00  0.00    +0.000 C 
ATOM     62  C28 UNL     1      74.245  66.706 107.810  0.00  0.00    +0.000 C 
ATOM     63  C29 UNL     1      74.361  68.414 109.682  0.00  0.00    +0.000 C 
ENDBRANCH  59  60
ENDBRANCH  56  59
ENDBRANCH  48  55
ENDBRANCH  45  48
ENDBRANCH  43  45
ENDBRANCH  42  43
ENDBRANCH  13  42
TORSDOF 17
ENDMDL
MODEL 5
REMARK VINA RESULT:      -7.5      2.583      6.187
REMARK  Name = ./S1148.pdb
REMARK  25 active torsions:
REMARK  status: ('A' for Active; 'I' for Inactive)
REMARK    1  A    between atoms: C1_1  and  C2_2
REMARK    2  A    between atoms: C2_2  and  O2_4
REMARK    3  A    between atoms: O2_4  and  C3_5
REMARK    4  A    between atoms: C7_10  and  O4_11
REMARK    5  A    between atoms: C8_12  and  C9_13
REMARK    6  A    between atoms: C11_15  and  O5_16
REMARK    7  A    between atoms: O5_16  and  C12_17
REMARK    8  A    between atoms: C12_17  and  C13_19
REMARK    9  A    between atoms: C19_25  and  O7_26
REMARK   10  A    between atoms: C21_28  and  O8_29
REMARK   11  A    between atoms: O8_29  and  C22_30
REMARK   12  A    between atoms: C22_30  and  C23_32
REMARK   13  A    between atoms: C23_32  and  O10_33
REMARK   14  A    between atoms: C23_32  and  C24_34
REMARK   15  A    between atoms: C24_34  and  N1_35
REMARK   16  A    between atoms: C24_34  and  C30_43
REMARK   17  A    between atoms: C25_36  and  O12_38
REMARK   18  A    between atoms: O12_38  and  C26_39
REMARK   19  A    between atoms: C26_39  and  C27_40
REMARK   20  A    between atoms: C26_39  and  C28_41
REMARK   21  A    between atoms: C26_39  and  C29_42
REMARK   22  A    between atoms: C36_49  and  C43_58
REMARK   23  A    between atoms: C38_51  and  O13_52
REMARK   24  A    between atoms: C40_55  and  C41_56
REMARK   25  A    between atoms: C40_55  and  C42_57
REMARK                            x       y       z     vdW  Elec       q    Type
REMARK                         _______ _______ _______ _____ _____    ______ ____
ROOT
ATOM      1  C3  UNL     1      76.443  66.505 107.099  0.00  0.00    +0.000 C 
ATOM      2  C4  UNL     1      77.201  67.419 106.157  0.00  0.00    +0.000 C 
ATOM      3  O3  UNL     1      77.821  68.117 107.216  0.00  0.00    +0.000 OA
ATOM      4  C5  UNL     1      77.247  67.240 108.158  0.00  0.00    +0.000 C 
ATOM      5  C6  UNL     1      76.411  67.945 109.228  0.00  0.00    +0.000 C 
ATOM      6  C7  UNL     1      75.360  68.860 108.609  0.00  0.00    +0.000 C 
ATOM      7  C8  UNL     1      74.322  68.114 107.674  0.00  0.00    +0.000 C 
ATOM      8  C9  UNL     1      74.080  69.089 106.465  0.00  0.00    +0.000 C 
ATOM      9  C10 UNL     1      74.871  66.666 107.203  0.00  0.00    +0.000 C 
ATOM     10  C11 UNL     1      74.083  66.007 105.986  0.00  0.00    +0.000 C 
ATOM     11  C19 UNL     1      72.992  64.871 106.284  0.00  0.00    +0.000 C 
ATOM     12  C20 UNL     1      73.679  63.558 106.795  0.00  0.00    +0.000 C 
ATOM     13  C21 UNL     1      73.674  63.293 108.326  0.00  0.00    +0.000 C 
ATOM     14  C36 UNL     1      73.175  64.432 109.200  0.00  0.00    +0.000 C 
ATOM     15  C37 UNL     1      72.480  65.498 108.668  0.00  0.00    +0.000 C 
ATOM     16  C38 UNL     1      72.480  66.893 109.328  0.00  0.00    +0.000 C 
ATOM     17  C39 UNL     1      72.947  68.018 108.409  0.00  0.00    +0.000 C 
ATOM     18  O14 UNL     1      72.202  68.989 108.366  0.00  0.00    +0.000 OA
ATOM     19  C40 UNL     1      71.837  65.296 107.278  0.00  0.00    +0.000 C 
ATOM     20  C41 UNL     1      71.026  66.523 106.751  0.00  0.00    +0.000 C 
ATOM     21  C42 UNL     1      70.739  64.193 107.397  0.00  0.00    +0.000 C 
ATOM     22  C43 UNL     1      73.603  64.343 110.646  0.00  0.00    +0.000 C 
ENDROOT
BRANCH   6  23
ATOM     23  O4  UNL     1      74.728  69.565 109.649  0.00  0.00    +0.000 OA
ATOM     24  H10 UNL     1      73.907  69.059 109.887  0.00  0.00    +0.000 HD
ENDBRANCH   6  23
BRANCH  11  25
ATOM     25  O7  UNL     1      72.402  64.518 105.048  0.00  0.00    +0.000 OA
ATOM     26  H21 UNL     1      73.057  64.631 104.319  0.00  0.00    +0.000 HD
ENDBRANCH  11  25
BRANCH  16  27
ATOM     27  O13 UNL     1      73.244  66.968 110.500  0.00  0.00    +0.000 OA
ATOM     28  H44 UNL     1      72.636  66.774 111.265  0.00  0.00    +0.000 HD
ENDBRANCH  16  27
BRANCH   1  29
ATOM     29  O2  UNL     1      76.881  65.150 106.923  0.00  0.00    +0.000 OA
BRANCH  29  31
ATOM     30  C1  UNL     1      79.088  64.277 107.677  0.00  0.00    +0.000 C 
ATOM     31  C2  UNL     1      77.614  64.410 107.857  0.00  0.00    +0.000 C 
ATOM     32  O1  UNL     1      77.055  63.888 108.862  0.00  0.00    +0.000 OA
ENDBRANCH  29  31
ENDBRANCH   1  29
BRANCH  10  33
ATOM     33  O5  UNL     1      75.020  65.496 105.029  0.00  0.00    +0.000 OA
BRANCH  33  34
ATOM     34  C12 UNL     1      75.069  65.852 103.672  0.00  0.00    +0.000 C 
ATOM     35  O6  UNL     1      74.949  67.059 103.318  0.00  0.00    +0.000 OA
BRANCH  34  36
ATOM     36  C13 UNL     1      75.288  64.805 102.652  0.00  0.00    +0.000 A 
ATOM     37  C14 UNL     1      76.231  64.995 101.625  0.00  0.00    +0.000 A 
ATOM     38  C15 UNL     1      76.430  64.010 100.654  0.00  0.00    +0.000 A 
ATOM     39  C16 UNL     1      75.701  62.821 100.701  0.00  0.00    +0.000 A 
ATOM     40  C17 UNL     1      74.759  62.621 101.713  0.00  0.00    +0.000 A 
ATOM     41  C18 UNL     1      74.557  63.602 102.689  0.00  0.00    +0.000 A 
ENDBRANCH  34  36
ENDBRANCH  33  34
ENDBRANCH  10  33
BRANCH  13  42
ATOM     42  O8  UNL     1      72.939  62.104 108.623  0.00  0.00    +0.000 OA
BRANCH  42  43
ATOM     43  C22 UNL     1      73.382  60.805 108.340  0.00  0.00    +0.000 C 
ATOM     44  O9  UNL     1      74.550  60.430 108.651  0.00  0.00    +0.000 OA
BRANCH  43  45
ATOM     45  C23 UNL     1      72.429  59.816 107.733  0.00  0.00    +0.000 C 
BRANCH  45  46
ATOM     46  O10 UNL     1      72.524  58.603 108.434  0.00  0.00    +0.000 OA
ATOM     47  H26 UNL     1      72.053  57.913 107.905  0.00  0.00    +0.000 HD
ENDBRANCH  45  46
BRANCH  45  48
ATOM     48  C24 UNL     1      72.717  59.624 106.220  0.00  0.00    +0.000 C 
BRANCH  48  49
ATOM     49  C30 UNL     1      71.867  60.523 105.337  0.00  0.00    +0.000 A 
ATOM     50  C31 UNL     1      70.678  61.103 105.820  0.00  0.00    +0.000 A 
ATOM     51  C32 UNL     1      69.895  61.903 104.986  0.00  0.00    +0.000 A 
ATOM     52  C33 UNL     1      70.284  62.134 103.664  0.00  0.00    +0.000 A 
ATOM     53  C34 UNL     1      71.473  61.583 103.183  0.00  0.00    +0.000 A 
ATOM     54  C35 UNL     1      72.260  60.778 104.010  0.00  0.00    +0.000 A 
ENDBRANCH  48  49
BRANCH  48  55
ATOM     55  N1  UNL     1      74.142  59.842 105.935  0.00  0.00    +0.000 N 
ATOM     56  C25 UNL     1      75.043  58.777 105.609  0.00  0.00    +0.000 C 
ATOM     57  O11 UNL     1      74.611  57.596 105.516  0.00  0.00    +0.000 OA
ATOM     58  H28 UNL     1      74.504  60.819 105.857  0.00  0.00    +0.000 HD
BRANCH  56  59
ATOM     59  O12 UNL     1      76.401  59.069 105.407  0.00  0.00    +0.000 OA
BRANCH  59  60
ATOM     60  C26 UNL     1      76.967  59.715 104.256  0.00  0.00    +0.000 C 
ATOM     61  C27 UNL     1      76.061  59.386 103.058  0.00  0.00    +0.000 C 
ATOM     62  C28 UNL     1      78.382  59.173 103.972  0.00  0.00    +0.000 C 
ATOM     63  C29 UNL     1      76.999  61.245 104.454  0.00  0.00    +0.000 C 
ENDBRANCH  59  60
ENDBRANCH  56  59
ENDBRANCH  48  55
ENDBRANCH  45  48
ENDBRANCH  43  45
ENDBRANCH  42  43
ENDBRANCH  13  42
TORSDOF 17
ENDMDL
MODEL 6
REMARK VINA RESULT:      -7.5      3.578     10.310
REMARK  Name = ./S1148.pdb
REMARK  25 active torsions:
REMARK  status: ('A' for Active; 'I' for Inactive)
REMARK    1  A    between atoms: C1_1  and  C2_2
REMARK    2  A    between atoms: C2_2  and  O2_4
REMARK    3  A    between atoms: O2_4  and  C3_5
REMARK    4  A    between atoms: C7_10  and  O4_11
REMARK    5  A    between atoms: C8_12  and  C9_13
REMARK    6  A    between atoms: C11_15  and  O5_16
REMARK    7  A    between atoms: O5_16  and  C12_17
REMARK    8  A    between atoms: C12_17  and  C13_19
REMARK    9  A    between atoms: C19_25  and  O7_26
REMARK   10  A    between atoms: C21_28  and  O8_29
REMARK   11  A    between atoms: O8_29  and  C22_30
REMARK   12  A    between atoms: C22_30  and  C23_32
REMARK   13  A    between atoms: C23_32  and  O10_33
REMARK   14  A    between atoms: C23_32  and  C24_34
REMARK   15  A    between atoms: C24_34  and  N1_35
REMARK   16  A    between atoms: C24_34  and  C30_43
REMARK   17  A    between atoms: C25_36  and  O12_38
REMARK   18  A    between atoms: O12_38  and  C26_39
REMARK   19  A    between atoms: C26_39  and  C27_40
REMARK   20  A    between atoms: C26_39  and  C28_41
REMARK   21  A    between atoms: C26_39  and  C29_42
REMARK   22  A    between atoms: C36_49  and  C43_58
REMARK   23  A    between atoms: C38_51  and  O13_52
REMARK   24  A    between atoms: C40_55  and  C41_56
REMARK   25  A    between atoms: C40_55  and  C42_57
REMARK                            x       y       z     vdW  Elec       q    Type
REMARK                         _______ _______ _______ _____ _____    ______ ____
ROOT
ATOM      1  C3  UNL     1      75.540  65.803 106.313  0.00  0.00    +0.000 C 
ATOM      2  C4  UNL     1      75.350  65.510 104.839  0.00  0.00    +0.000 C 
ATOM      3  O3  UNL     1      75.893  66.752 104.447  0.00  0.00    +0.000 OA
ATOM      4  C5  UNL     1      76.212  67.059 105.784  0.00  0.00    +0.000 C 
ATOM      5  C6  UNL     1      75.603  68.372 106.278  0.00  0.00    +0.000 C 
ATOM      6  C7  UNL     1      74.097  68.419 106.041  0.00  0.00    +0.000 C 
ATOM      7  C8  UNL     1      73.291  67.268 106.773  0.00  0.00    +0.000 C 
ATOM      8  C9  UNL     1      72.179  66.829 105.752  0.00  0.00    +0.000 C 
ATOM      9  C10 UNL     1      74.255  66.042 107.207  0.00  0.00    +0.000 C 
ATOM     10  C11 UNL     1      73.501  64.697 107.607  0.00  0.00    +0.000 C 
ATOM     11  C19 UNL     1      73.297  64.347 109.158  0.00  0.00    +0.000 C 
ATOM     12  C20 UNL     1      74.667  64.003 109.837  0.00  0.00    +0.000 C 
ATOM     13  C21 UNL     1      75.358  65.117 110.670  0.00  0.00    +0.000 C 
ATOM     14  C36 UNL     1      74.733  66.500 110.585  0.00  0.00    +0.000 C 
ATOM     15  C37 UNL     1      73.468  66.689 110.069  0.00  0.00    +0.000 C 
ATOM     16  C38 UNL     1      73.035  68.020 109.417  0.00  0.00    +0.000 C 
ATOM     17  C39 UNL     1      72.519  67.876 107.988  0.00  0.00    +0.000 C 
ATOM     18  O14 UNL     1      71.442  68.417 107.773  0.00  0.00    +0.000 OA
ATOM     19  C40 UNL     1      72.543  65.454 110.001  0.00  0.00    +0.000 C 
ATOM     20  C41 UNL     1      71.110  65.742 109.449  0.00  0.00    +0.000 C 
ATOM     21  C42 UNL     1      72.251  64.974 111.458  0.00  0.00    +0.000 C 
ATOM     22  C43 UNL     1      75.649  67.626 111.002  0.00  0.00    +0.000 C 
ENDROOT
BRANCH   6  23
ATOM     23  O4  UNL     1      73.638  69.699 106.399  0.00  0.00    +0.000 OA
ATOM     24  H10 UNL     1      72.801  69.575 106.919  0.00  0.00    +0.000 HD
ENDBRANCH   6  23
BRANCH  11  25
ATOM     25  O7  UNL     1      72.544  63.153 109.225  0.00  0.00    +0.000 OA
ATOM     26  H21 UNL     1      72.403  62.898 110.167  0.00  0.00    +0.000 HD
ENDBRANCH  11  25
BRANCH  16  27
ATOM     27  O13 UNL     1      74.036  68.999 109.402  0.00  0.00    +0.000 OA
ATOM     28  H44 UNL     1      73.803  69.652 108.688  0.00  0.00    +0.000 HD
ENDBRANCH  16  27
BRANCH   1  29
ATOM     29  O2  UNL     1      76.480  64.877 106.878  0.00  0.00    +0.000 OA
BRANCH  29  31
ATOM     30  C1  UNL     1      78.957  64.619 106.900  0.00  0.00    +0.000 C 
ATOM     31  C2  UNL     1      77.709  65.221 107.451  0.00  0.00    +0.000 C 
ATOM     32  O1  UNL     1      77.779  66.056 108.396  0.00  0.00    +0.000 OA
ENDBRANCH  29  31
ENDBRANCH   1  29
BRANCH  10  33
ATOM     33  O5  UNL     1      74.137  63.583 106.970  0.00  0.00    +0.000 OA
BRANCH  33  34
ATOM     34  C12 UNL     1      73.486  62.420 106.529  0.00  0.00    +0.000 C 
ATOM     35  O6  UNL     1      73.855  61.282 106.934  0.00  0.00    +0.000 OA
BRANCH  34  36
ATOM     36  C13 UNL     1      72.342  62.535 105.600  0.00  0.00    +0.000 A 
ATOM     37  C14 UNL     1      71.025  62.368 106.066  0.00  0.00    +0.000 A 
ATOM     38  C15 UNL     1      69.943  62.465 105.186  0.00  0.00    +0.000 A 
ATOM     39  C16 UNL     1      70.161  62.739 103.835  0.00  0.00    +0.000 A 
ATOM     40  C17 UNL     1      71.464  62.903 103.359  0.00  0.00    +0.000 A 
ATOM     41  C18 UNL     1      72.549  62.810 104.235  0.00  0.00    +0.000 A 
ENDBRANCH  34  36
ENDBRANCH  33  34
ENDBRANCH  10  33
BRANCH  13  42
ATOM     42  O8  UNL     1      75.461  64.722 112.040  0.00  0.00    +0.000 OA
BRANCH  42  43
ATOM     43  C22 UNL     1      76.152  63.587 112.489  0.00  0.00    +0.000 C 
ATOM     44  O9  UNL     1      77.377  63.421 112.225  0.00  0.00    +0.000 OA
BRANCH  43  45
ATOM     45  C23 UNL     1      75.446  62.595 113.368  0.00  0.00    +0.000 C 
BRANCH  45  46
ATOM     46  O10 UNL     1      74.060  62.746 113.204  0.00  0.00    +0.000 OA
ATOM     47  H26 UNL     1      73.812  62.324 112.344  0.00  0.00    +0.000 HD
ENDBRANCH  45  46
BRANCH  45  48
ATOM     48  C24 UNL     1      75.868  62.770 114.851  0.00  0.00    +0.000 C 
BRANCH  48  49
ATOM     49  C30 UNL     1      77.168  62.056 115.184  0.00  0.00    +0.000 A 
ATOM     50  C31 UNL     1      77.391  60.724 114.785  0.00  0.00    +0.000 A 
ATOM     51  C32 UNL     1      78.579  60.076 115.125  0.00  0.00    +0.000 A 
ATOM     52  C33 UNL     1      79.558  60.744 115.865  0.00  0.00    +0.000 A 
ATOM     53  C34 UNL     1      79.357  62.072 116.245  0.00  0.00    +0.000 A 
ATOM     54  C35 UNL     1      78.169  62.727 115.913  0.00  0.00    +0.000 A 
ENDBRANCH  48  49
BRANCH  48  55
ATOM     55  N1  UNL     1      75.975  64.195 115.192  0.00  0.00    +0.000 N 
ATOM     56  C25 UNL     1      75.049  64.858 116.061  0.00  0.00    +0.000 C 
ATOM     57  O11 UNL     1      74.117  64.204 116.604  0.00  0.00    +0.000 OA
ATOM     58  H28 UNL     1      76.814  64.733 114.882  0.00  0.00    +0.000 HD
BRANCH  56  59
ATOM     59  O12 UNL     1      75.194  66.236 116.289  0.00  0.00    +0.000 OA
BRANCH  59  60
ATOM     60  C26 UNL     1      74.639  67.291 115.487  0.00  0.00    +0.000 C 
ATOM     61  C27 UNL     1      75.811  67.987 114.778  0.00  0.00    +0.000 C 
ATOM     62  C28 UNL     1      73.914  68.321 116.375  0.00  0.00    +0.000 C 
ATOM     63  C29 UNL     1      73.679  66.716 114.424  0.00  0.00    +0.000 C 
ENDBRANCH  59  60
ENDBRANCH  56  59
ENDBRANCH  48  55
ENDBRANCH  45  48
ENDBRANCH  43  45
ENDBRANCH  42  43
ENDBRANCH  13  42
TORSDOF 17
ENDMDL
MODEL 7
REMARK VINA RESULT:      -7.5      4.108      8.846
REMARK  Name = ./S1148.pdb
REMARK  25 active torsions:
REMARK  status: ('A' for Active; 'I' for Inactive)
REMARK    1  A    between atoms: C1_1  and  C2_2
REMARK    2  A    between atoms: C2_2  and  O2_4
REMARK    3  A    between atoms: O2_4  and  C3_5
REMARK    4  A    between atoms: C7_10  and  O4_11
REMARK    5  A    between atoms: C8_12  and  C9_13
REMARK    6  A    between atoms: C11_15  and  O5_16
REMARK    7  A    between atoms: O5_16  and  C12_17
REMARK    8  A    between atoms: C12_17  and  C13_19
REMARK    9  A    between atoms: C19_25  and  O7_26
REMARK   10  A    between atoms: C21_28  and  O8_29
REMARK   11  A    between atoms: O8_29  and  C22_30
REMARK   12  A    between atoms: C22_30  and  C23_32
REMARK   13  A    between atoms: C23_32  and  O10_33
REMARK   14  A    between atoms: C23_32  and  C24_34
REMARK   15  A    between atoms: C24_34  and  N1_35
REMARK   16  A    between atoms: C24_34  and  C30_43
REMARK   17  A    between atoms: C25_36  and  O12_38
REMARK   18  A    between atoms: O12_38  and  C26_39
REMARK   19  A    between atoms: C26_39  and  C27_40
REMARK   20  A    between atoms: C26_39  and  C28_41
REMARK   21  A    between atoms: C26_39  and  C29_42
REMARK   22  A    between atoms: C36_49  and  C43_58
REMARK   23  A    between atoms: C38_51  and  O13_52
REMARK   24  A    between atoms: C40_55  and  C41_56
REMARK   25  A    between atoms: C40_55  and  C42_57
REMARK                            x       y       z     vdW  Elec       q    Type
REMARK                         _______ _______ _______ _____ _____    ______ ____
ROOT
ATOM      1  C3  UNL     1      75.019  64.340 106.271  0.00  0.00    +0.000 C 
ATOM      2  C4  UNL     1      76.101  63.477 105.652  0.00  0.00    +0.000 C 
ATOM      3  O3  UNL     1      75.187  62.464 105.290  0.00  0.00    +0.000 OA
ATOM      4  C5  UNL     1      74.106  63.249 105.738  0.00  0.00    +0.000 C 
ATOM      5  C6  UNL     1      73.239  62.562 106.794  0.00  0.00    +0.000 C 
ATOM      6  C7  UNL     1      74.075  62.049 107.962  0.00  0.00    +0.000 C 
ATOM      7  C8  UNL     1      74.874  63.181 108.731  0.00  0.00    +0.000 C 
ATOM      8  C9  UNL     1      76.268  62.540 109.076  0.00  0.00    +0.000 C 
ATOM      9  C10 UNL     1      75.013  64.527 107.844  0.00  0.00    +0.000 C 
ATOM     10  C11 UNL     1      76.096  65.572 108.364  0.00  0.00    +0.000 C 
ATOM     11  C19 UNL     1      75.612  66.848 109.204  0.00  0.00    +0.000 C 
ATOM     12  C20 UNL     1      74.812  67.844 108.295  0.00  0.00    +0.000 C 
ATOM     13  C21 UNL     1      73.261  67.802 108.371  0.00  0.00    +0.000 C 
ATOM     14  C36 UNL     1      72.663  66.661 109.177  0.00  0.00    +0.000 C 
ATOM     15  C37 UNL     1      73.431  65.906 110.040  0.00  0.00    +0.000 C 
ATOM     16  C38 UNL     1      73.076  64.448 110.398  0.00  0.00    +0.000 C 
ATOM     17  C39 UNL     1      74.189  63.446 110.110  0.00  0.00    +0.000 C 
ATOM     18  O14 UNL     1      74.462  62.698 111.041  0.00  0.00    +0.000 OA
ATOM     19  C40 UNL     1      74.773  66.515 110.504  0.00  0.00    +0.000 C 
ATOM     20  C41 UNL     1      75.574  65.633 111.513  0.00  0.00    +0.000 C 
ATOM     21  C42 UNL     1      74.470  67.797 111.343  0.00  0.00    +0.000 C 
ATOM     22  C43 UNL     1      71.214  66.367 108.865  0.00  0.00    +0.000 C 
ENDROOT
BRANCH   6  23
ATOM     23  O4  UNL     1      73.230  61.321 108.819  0.00  0.00    +0.000 OA
ATOM     24  H10 UNL     1      73.685  60.461 109.016  0.00  0.00    +0.000 HD
ENDBRANCH   6  23
BRANCH  11  25
ATOM     25  O7  UNL     1      76.769  67.559 109.596  0.00  0.00    +0.000 OA
ATOM     26  H21 UNL     1      76.699  68.499 109.308  0.00  0.00    +0.000 HD
ENDBRANCH  11  25
BRANCH  16  27
ATOM     27  O13 UNL     1      71.916  63.974 109.771  0.00  0.00    +0.000 OA
ATOM     28  H44 UNL     1      71.137  64.381 110.238  0.00  0.00    +0.000 HD
ENDBRANCH  16  27
BRANCH   1  29
ATOM     29  O2  UNL     1      74.893  65.566 105.537  0.00  0.00    +0.000 OA
BRANCH  29  31
ATOM     30  C1  UNL     1      72.621  66.576 105.394  0.00  0.00    +0.000 C 
ATOM     31  C2  UNL     1      73.796  65.926 104.746  0.00  0.00    +0.000 C 
ATOM     32  O1  UNL     1      73.803  65.743 103.497  0.00  0.00    +0.000 OA
ENDBRANCH  29  31
ENDBRANCH   1  29
BRANCH  10  33
ATOM     33  O5  UNL     1      76.889  66.030 107.261  0.00  0.00    +0.000 OA
BRANCH  33  34
ATOM     34  C12 UNL     1      78.280  66.218 107.285  0.00  0.00    +0.000 C 
ATOM     35  O6  UNL     1      78.771  67.376 107.403  0.00  0.00    +0.000 OA
BRANCH  34  36
ATOM     36  C13 UNL     1      79.175  65.045 107.196  0.00  0.00    +0.000 A 
ATOM     37  C14 UNL     1      79.700  64.641 105.955  0.00  0.00    +0.000 A 
ATOM     38  C15 UNL     1      80.536  63.525 105.867  0.00  0.00    +0.000 A 
ATOM     39  C16 UNL     1      80.868  62.806 107.016  0.00  0.00    +0.000 A 
ATOM     40  C17 UNL     1      80.350  63.194 108.254  0.00  0.00    +0.000 A 
ATOM     41  C18 UNL     1      79.515  64.311 108.348  0.00  0.00    +0.000 A 
ENDBRANCH  34  36
ENDBRANCH  33  34
ENDBRANCH  10  33
BRANCH  13  42
ATOM     42  O8  UNL     1      72.753  69.047 108.855  0.00  0.00    +0.000 OA
BRANCH  42  43
ATOM     43  C22 UNL     1      71.974  69.933 108.097  0.00  0.00    +0.000 C 
ATOM     44  O9  UNL     1      70.881  69.564 107.579  0.00  0.00    +0.000 OA
BRANCH  43  45
ATOM     45  C23 UNL     1      72.402  71.367 107.969  0.00  0.00    +0.000 C 
BRANCH  45  46
ATOM     46  O10 UNL     1      71.313  72.197 108.282  0.00  0.00    +0.000 OA
ATOM     47  H26 UNL     1      71.183  72.820 107.526  0.00  0.00    +0.000 HD
ENDBRANCH  45  46
BRANCH  45  48
ATOM     48  C24 UNL     1      72.951  71.657 106.547  0.00  0.00    +0.000 C 
BRANCH  48  49
ATOM     49  C30 UNL     1      74.282  70.976 106.276  0.00  0.00    +0.000 A 
ATOM     50  C31 UNL     1      75.433  71.304 107.019  0.00  0.00    +0.000 A 
ATOM     51  C32 UNL     1      76.653  70.688 106.736  0.00  0.00    +0.000 A 
ATOM     52  C33 UNL     1      76.743  69.741 105.714  0.00  0.00    +0.000 A 
ATOM     53  C34 UNL     1      75.603  69.390 104.988  0.00  0.00    +0.000 A 
ATOM     54  C35 UNL     1      74.378  70.005 105.261  0.00  0.00    +0.000 A 
ENDBRANCH  48  49
BRANCH  48  55
ATOM     55  N1  UNL     1      71.969  71.267 105.526  0.00  0.00    +0.000 N 
ATOM     56  C25 UNL     1      70.971  72.164 105.023  0.00  0.00    +0.000 C 
ATOM     57  O11 UNL     1      70.939  73.358 105.427  0.00  0.00    +0.000 OA
ATOM     58  H28 UNL     1      72.057  70.336 105.061  0.00  0.00    +0.000 HD
BRANCH  56  59
ATOM     59  O12 UNL     1      70.036  71.691 104.088  0.00  0.00    +0.000 OA
BRANCH  59  60
ATOM     60  C26 UNL     1      68.672  71.333 104.359  0.00  0.00    +0.000 C 
ATOM     61  C27 UNL     1      67.887  72.641 104.541  0.00  0.00    +0.000 C 
ATOM     62  C28 UNL     1      68.576  70.511 105.659  0.00  0.00    +0.000 C 
ATOM     63  C29 UNL     1      68.072  70.548 103.173  0.00  0.00    +0.000 C 
ENDBRANCH  59  60
ENDBRANCH  56  59
ENDBRANCH  48  55
ENDBRANCH  45  48
ENDBRANCH  43  45
ENDBRANCH  42  43
ENDBRANCH  13  42
TORSDOF 17
ENDMDL
MODEL 8
REMARK VINA RESULT:      -7.5      3.982      9.866
REMARK  Name = ./S1148.pdb
REMARK  25 active torsions:
REMARK  status: ('A' for Active; 'I' for Inactive)
REMARK    1  A    between atoms: C1_1  and  C2_2
REMARK    2  A    between atoms: C2_2  and  O2_4
REMARK    3  A    between atoms: O2_4  and  C3_5
REMARK    4  A    between atoms: C7_10  and  O4_11
REMARK    5  A    between atoms: C8_12  and  C9_13
REMARK    6  A    between atoms: C11_15  and  O5_16
REMARK    7  A    between atoms: O5_16  and  C12_17
REMARK    8  A    between atoms: C12_17  and  C13_19
REMARK    9  A    between atoms: C19_25  and  O7_26
REMARK   10  A    between atoms: C21_28  and  O8_29
REMARK   11  A    between atoms: O8_29  and  C22_30
REMARK   12  A    between atoms: C22_30  and  C23_32
REMARK   13  A    between atoms: C23_32  and  O10_33
REMARK   14  A    between atoms: C23_32  and  C24_34
REMARK   15  A    between atoms: C24_34  and  N1_35
REMARK   16  A    between atoms: C24_34  and  C30_43
REMARK   17  A    between atoms: C25_36  and  O12_38
REMARK   18  A    between atoms: O12_38  and  C26_39
REMARK   19  A    between atoms: C26_39  and  C27_40
REMARK   20  A    between atoms: C26_39  and  C28_41
REMARK   21  A    between atoms: C26_39  and  C29_42
REMARK   22  A    between atoms: C36_49  and  C43_58
REMARK   23  A    between atoms: C38_51  and  O13_52
REMARK   24  A    between atoms: C40_55  and  C41_56
REMARK   25  A    between atoms: C40_55  and  C42_57
REMARK                            x       y       z     vdW  Elec       q    Type
REMARK                         _______ _______ _______ _____ _____    ______ ____
ROOT
ATOM      1  C3  UNL     1      72.126  66.519 107.506  0.00  0.00    +0.000 C 
ATOM      2  C4  UNL     1      70.954  65.952 106.730  0.00  0.00    +0.000 C 
ATOM      3  O3  UNL     1      70.046  66.194 107.783  0.00  0.00    +0.000 OA
ATOM      4  C5  UNL     1      71.050  66.841 108.529  0.00  0.00    +0.000 C 
ATOM      5  C6  UNL     1      71.277  66.234 109.915  0.00  0.00    +0.000 C 
ATOM      6  C7  UNL     1      71.523  64.731 109.838  0.00  0.00    +0.000 C 
ATOM      7  C8  UNL     1      72.790  64.326 108.979  0.00  0.00    +0.000 C 
ATOM      8  C9  UNL     1      72.361  63.035 108.192  0.00  0.00    +0.000 C 
ATOM      9  C10 UNL     1      73.258  65.525 107.996  0.00  0.00    +0.000 C 
ATOM     10  C11 UNL     1      74.271  65.099 106.844  0.00  0.00    +0.000 C 
ATOM     11  C19 UNL     1      75.835  65.397 107.029  0.00  0.00    +0.000 C 
ATOM     12  C20 UNL     1      76.121  66.937 106.970  0.00  0.00    +0.000 C 
ATOM     13  C21 UNL     1      76.305  67.687 108.317  0.00  0.00    +0.000 C 
ATOM     14  C36 UNL     1      75.996  66.890 109.574  0.00  0.00    +0.000 C 
ATOM     15  C37 UNL     1      75.871  65.517 109.544  0.00  0.00    +0.000 C 
ATOM     16  C38 UNL     1      75.009  64.745 110.567  0.00  0.00    +0.000 C 
ATOM     17  C39 UNL     1      73.934  63.864 109.938  0.00  0.00    +0.000 C 
ATOM     18  O14 UNL     1      73.912  62.710 110.346  0.00  0.00    +0.000 OA
ATOM     19  C40 UNL     1      76.485  64.780 108.334  0.00  0.00    +0.000 C 
ATOM     20  C41 UNL     1      76.350  63.224 108.380  0.00  0.00    +0.000 C 
ATOM     21  C42 UNL     1      78.033  64.984 108.363  0.00  0.00    +0.000 C 
ATOM     22  C43 UNL     1      75.731  67.733 110.799  0.00  0.00    +0.000 C 
ENDROOT
BRANCH   6  23
ATOM     23  O4  UNL     1      71.590  64.232 111.152  0.00  0.00    +0.000 OA
ATOM     24  H10 UNL     1      72.355  64.683 111.597  0.00  0.00    +0.000 HD
ENDBRANCH   6  23
BRANCH  11  25
ATOM     25  O7  UNL     1      76.504  64.857 105.906  0.00  0.00    +0.000 OA
ATOM     26  H21 UNL     1      77.347  64.432 106.190  0.00  0.00    +0.000 HD
ENDBRANCH  11  25
BRANCH  16  27
ATOM     27  O13 UNL     1      74.377  65.564 111.511  0.00  0.00    +0.000 OA
ATOM     28  H44 UNL     1      74.199  66.441 111.073  0.00  0.00    +0.000 HD
ENDBRANCH  16  27
BRANCH   1  29
ATOM     29  O2  UNL     1      72.625  67.693 106.849  0.00  0.00    +0.000 OA
BRANCH  29  31
ATOM     30  C1  UNL     1      72.792  69.904 107.984  0.00  0.00    +0.000 C 
ATOM     31  C2  UNL     1      72.123  68.988 107.016  0.00  0.00    +0.000 C 
ATOM     32  O1  UNL     1      71.141  69.401 106.337  0.00  0.00    +0.000 OA
ENDBRANCH  29  31
ENDBRANCH   1  29
BRANCH  10  33
ATOM     33  O5  UNL     1      73.847  65.664 105.598  0.00  0.00    +0.000 OA
BRANCH  33  34
ATOM     34  C12 UNL     1      73.540  64.935 104.438  0.00  0.00    +0.000 C 
ATOM     35  O6  UNL     1      73.660  65.461 103.296  0.00  0.00    +0.000 OA
BRANCH  34  36
ATOM     36  C13 UNL     1      73.096  63.530 104.558  0.00  0.00    +0.000 A 
ATOM     37  C14 UNL     1      71.732  63.202 104.451  0.00  0.00    +0.000 A 
ATOM     38  C15 UNL     1      71.309  61.876 104.576  0.00  0.00    +0.000 A 
ATOM     39  C16 UNL     1      72.242  60.861 104.799  0.00  0.00    +0.000 A 
ATOM     40  C17 UNL     1      73.598  61.174 104.911  0.00  0.00    +0.000 A 
ATOM     41  C18 UNL     1      74.027  62.499 104.784  0.00  0.00    +0.000 A 
ENDBRANCH  34  36
ENDBRANCH  33  34
ENDBRANCH  10  33
BRANCH  13  42
ATOM     42  O8  UNL     1      77.624  68.230 108.408  0.00  0.00    +0.000 OA
BRANCH  42  43
ATOM     43  C22 UNL     1      78.294  68.868 107.354  0.00  0.00    +0.000 C 
ATOM     44  O9  UNL     1      79.258  68.306 106.759  0.00  0.00    +0.000 OA
BRANCH  43  45
ATOM     45  C23 UNL     1      77.806  70.203 106.870  0.00  0.00    +0.000 C 
BRANCH  45  46
ATOM     46  O10 UNL     1      78.333  70.442 105.591  0.00  0.00    +0.000 OA
ATOM     47  H26 UNL     1      79.317  70.363 105.651  0.00  0.00    +0.000 HD
ENDBRANCH  45  46
BRANCH  45  48
ATOM     48  C24 UNL     1      78.191  71.328 107.866  0.00  0.00    +0.000 C 
BRANCH  48  49
ATOM     49  C30 UNL     1      76.982  72.012 108.482  0.00  0.00    +0.000 A 
ATOM     50  C31 UNL     1      76.124  71.323 109.362  0.00  0.00    +0.000 A 
ATOM     51  C32 UNL     1      75.003  71.959 109.895  0.00  0.00    +0.000 A 
ATOM     52  C33 UNL     1      74.721  73.285 109.561  0.00  0.00    +0.000 A 
ATOM     53  C34 UNL     1      75.577  73.985 108.709  0.00  0.00    +0.000 A 
ATOM     54  C35 UNL     1      76.699  73.355 108.167  0.00  0.00    +0.000 A 
ENDBRANCH  48  49
BRANCH  48  55
ATOM     55  N1  UNL     1      79.065  70.804 108.924  0.00  0.00    +0.000 N 
ATOM     56  C25 UNL     1      80.115  71.575 109.520  0.00  0.00    +0.000 C 
ATOM     57  O11 UNL     1      80.291  72.774 109.168  0.00  0.00    +0.000 OA
ATOM     58  H28 UNL     1      78.856  69.871 109.345  0.00  0.00    +0.000 HD
BRANCH  56  59
ATOM     59  O12 UNL     1      80.939  70.976 110.486  0.00  0.00    +0.000 OA
BRANCH  59  60
ATOM     60  C26 UNL     1      82.374  71.026 110.526  0.00  0.00    +0.000 C 
ATOM     61  C27 UNL     1      82.843  69.886 111.444  0.00  0.00    +0.000 C 
ATOM     62  C28 UNL     1      82.853  72.367 111.116  0.00  0.00    +0.000 C 
ATOM     63  C29 UNL     1      82.963  70.809 109.116  0.00  0.00    +0.000 C 
ENDBRANCH  59  60
ENDBRANCH  56  59
ENDBRANCH  48  55
ENDBRANCH  45  48
ENDBRANCH  43  45
ENDBRANCH  42  43
ENDBRANCH  13  42
TORSDOF 17
ENDMDL
MODEL 9
REMARK VINA RESULT:      -7.5      2.093      5.024
REMARK  Name = ./S1148.pdb
REMARK  25 active torsions:
REMARK  status: ('A' for Active; 'I' for Inactive)
REMARK    1  A    between atoms: C1_1  and  C2_2
REMARK    2  A    between atoms: C2_2  and  O2_4
REMARK    3  A    between atoms: O2_4  and  C3_5
REMARK    4  A    between atoms: C7_10  and  O4_11
REMARK    5  A    between atoms: C8_12  and  C9_13
REMARK    6  A    between atoms: C11_15  and  O5_16
REMARK    7  A    between atoms: O5_16  and  C12_17
REMARK    8  A    between atoms: C12_17  and  C13_19
REMARK    9  A    between atoms: C19_25  and  O7_26
REMARK   10  A    between atoms: C21_28  and  O8_29
REMARK   11  A    between atoms: O8_29  and  C22_30
REMARK   12  A    between atoms: C22_30  and  C23_32
REMARK   13  A    between atoms: C23_32  and  O10_33
REMARK   14  A    between atoms: C23_32  and  C24_34
REMARK   15  A    between atoms: C24_34  and  N1_35
REMARK   16  A    between atoms: C24_34  and  C30_43
REMARK   17  A    between atoms: C25_36  and  O12_38
REMARK   18  A    between atoms: O12_38  and  C26_39
REMARK   19  A    between atoms: C26_39  and  C27_40
REMARK   20  A    between atoms: C26_39  and  C28_41
REMARK   21  A    between atoms: C26_39  and  C29_42
REMARK   22  A    between atoms: C36_49  and  C43_58
REMARK   23  A    between atoms: C38_51  and  O13_52
REMARK   24  A    between atoms: C40_55  and  C41_56
REMARK   25  A    between atoms: C40_55  and  C42_57
REMARK                            x       y       z     vdW  Elec       q    Type
REMARK                         _______ _______ _______ _____ _____    ______ ____
ROOT
ATOM      1  C3  UNL     1      74.288  65.521 109.914  0.00  0.00    +0.000 C 
ATOM      2  C4  UNL     1      74.867  66.558 110.855  0.00  0.00    +0.000 C 
ATOM      3  O3  UNL     1      73.799  66.432 111.768  0.00  0.00    +0.000 OA
ATOM      4  C5  UNL     1      73.248  65.379 111.012  0.00  0.00    +0.000 C 
ATOM      5  C6  UNL     1      71.805  65.625 110.570  0.00  0.00    +0.000 C 
ATOM      6  C7  UNL     1      71.657  66.961 109.850  0.00  0.00    +0.000 C 
ATOM      7  C8  UNL     1      72.537  67.091 108.540  0.00  0.00    +0.000 C 
ATOM      8  C9  UNL     1      73.068  68.571 108.544  0.00  0.00    +0.000 C 
ATOM      9  C10 UNL     1      73.734  66.003 108.510  0.00  0.00    +0.000 C 
ATOM     10  C11 UNL     1      74.879  66.285 107.439  0.00  0.00    +0.000 C 
ATOM     11  C19 UNL     1      74.869  65.480 106.053  0.00  0.00    +0.000 C 
ATOM     12  C20 UNL     1      75.199  63.965 106.285  0.00  0.00    +0.000 C 
ATOM     13  C21 UNL     1      74.009  62.967 106.324  0.00  0.00    +0.000 C 
ATOM     14  C36 UNL     1      72.620  63.583 106.329  0.00  0.00    +0.000 C 
ATOM     15  C37 UNL     1      72.417  64.908 106.002  0.00  0.00    +0.000 C 
ATOM     16  C38 UNL     1      71.218  65.716 106.543  0.00  0.00    +0.000 C 
ATOM     17  C39 UNL     1      71.609  66.989 107.287  0.00  0.00    +0.000 C 
ATOM     18  O14 UNL     1      71.019  67.999 106.924  0.00  0.00    +0.000 OA
ATOM     19  C40 UNL     1      73.537  65.617 105.209  0.00  0.00    +0.000 C 
ATOM     20  C41 UNL     1      73.229  67.100 104.830  0.00  0.00    +0.000 C 
ATOM     21  C42 UNL     1      73.664  64.932 103.811  0.00  0.00    +0.000 C 
ATOM     22  C43 UNL     1      71.530  62.663 106.825  0.00  0.00    +0.000 C 
ENDROOT
BRANCH   6  23
ATOM     23  O4  UNL     1      70.289  67.170 109.595  0.00  0.00    +0.000 OA
ATOM     24  H10 UNL     1      69.783  66.593 110.225  0.00  0.00    +0.000 HD
ENDBRANCH   6  23
BRANCH  11  25
ATOM     25  O7  UNL     1      75.939  65.972 105.271  0.00  0.00    +0.000 OA
ATOM     26  H21 UNL     1      75.814  66.935 105.100  0.00  0.00    +0.000 HD
ENDBRANCH  11  25
BRANCH  16  27
ATOM     27  O13 UNL     1      70.372  64.984 107.385  0.00  0.00    +0.000 OA
ATOM     28  H44 UNL     1      70.076  65.595 108.114  0.00  0.00    +0.000 HD
ENDBRANCH  16  27
BRANCH   1  29
ATOM     29  O2  UNL     1      75.163  64.387 109.838  0.00  0.00    +0.000 OA
BRANCH  29  31
ATOM     30  C1  UNL     1      75.563  62.556 111.478  0.00  0.00    +0.000 C 
ATOM     31  C2  UNL     1      74.855  63.097 110.283  0.00  0.00    +0.000 C 
ATOM     32  O1  UNL     1      73.965  62.404 109.714  0.00  0.00    +0.000 OA
ENDBRANCH  29  31
ENDBRANCH   1  29
BRANCH  10  33
ATOM     33  O5  UNL     1      76.163  66.115 108.052  0.00  0.00    +0.000 OA
BRANCH  33  34
ATOM     34  C12 UNL     1      77.223  67.032 107.983  0.00  0.00    +0.000 C 
ATOM     35  O6  UNL     1      78.415  66.630 107.865  0.00  0.00    +0.000 OA
BRANCH  34  36
ATOM     36  C13 UNL     1      76.936  68.481 108.026  0.00  0.00    +0.000 A 
ATOM     37  C14 UNL     1      76.846  69.155 109.257  0.00  0.00    +0.000 A 
ATOM     38  C15 UNL     1      76.562  70.523 109.299  0.00  0.00    +0.000 A 
ATOM     39  C16 UNL     1      76.376  71.236 108.114  0.00  0.00    +0.000 A 
ATOM     40  C17 UNL     1      76.458  70.579 106.885  0.00  0.00    +0.000 A 
ATOM     41  C18 UNL     1      76.744  69.211 106.837  0.00  0.00    +0.000 A 
ENDBRANCH  34  36
ENDBRANCH  33  34
ENDBRANCH  10  33
BRANCH  13  42
ATOM     42  O8  UNL     1      74.112  62.028 105.252  0.00  0.00    +0.000 OA
BRANCH  42  43
ATOM     43  C22 UNL     1      74.041  60.636 105.406  0.00  0.00    +0.000 C 
ATOM     44  O9  UNL     1      74.929  60.004 106.047  0.00  0.00    +0.000 OA
BRANCH  43  45
ATOM     45  C23 UNL     1      72.847  59.895 104.875  0.00  0.00    +0.000 C 
BRANCH  45  46
ATOM     46  O10 UNL     1      72.919  58.557 105.294  0.00  0.00    +0.000 OA
ATOM     47  H26 UNL     1      72.416  58.481 106.142  0.00  0.00    +0.000 HD
ENDBRANCH  45  46
BRANCH  45  48
ATOM     48  C24 UNL     1      72.770  60.005 103.329  0.00  0.00    +0.000 C 
BRANCH  48  49
ATOM     49  C30 UNL     1      71.742  61.022 102.859  0.00  0.00    +0.000 A 
ATOM     50  C31 UNL     1      70.805  61.577 103.753  0.00  0.00    +0.000 A 
ATOM     51  C32 UNL     1      69.851  62.488 103.296  0.00  0.00    +0.000 A 
ATOM     52  C33 UNL     1      69.817  62.856 101.950  0.00  0.00    +0.000 A 
ATOM     53  C34 UNL     1      70.756  62.330 101.061  0.00  0.00    +0.000 A 
ATOM     54  C35 UNL     1      71.712  61.415 101.507  0.00  0.00    +0.000 A 
ENDBRANCH  48  49
BRANCH  48  55
ATOM     55  N1  UNL     1      74.089  60.328 102.768  0.00  0.00    +0.000 N 
ATOM     56  C25 UNL     1      74.777  59.467 101.852  0.00  0.00    +0.000 C 
ATOM     57  O11 UNL     1      74.230  58.400 101.462  0.00  0.00    +0.000 OA
ATOM     58  H28 UNL     1      74.506  61.268 102.951  0.00  0.00    +0.000 HD
BRANCH  56  59
ATOM     59  O12 UNL     1      76.060  59.827 101.409  0.00  0.00    +0.000 OA
BRANCH  59  60
ATOM     60  C26 UNL     1      76.371  60.537 100.201  0.00  0.00    +0.000 C 
ATOM     61  C27 UNL     1      77.757  61.175 100.392  0.00  0.00    +0.000 C 
ATOM     62  C28 UNL     1      75.341  61.655  99.948  0.00  0.00    +0.000 C 
ATOM     63  C29 UNL     1      76.428  59.567  99.001  0.00  0.00    +0.000 C 
ENDBRANCH  59  60
ENDBRANCH  56  59
ENDBRANCH  48  55
ENDBRANCH  45  48
ENDBRANCH  43  45
ENDBRANCH  42  43
ENDBRANCH  13  42
TORSDOF 17
ENDMDL
MODEL 10
REMARK VINA RESULT:      -7.4      3.964     10.178
REMARK  Name = ./S1148.pdb
REMARK  25 active torsions:
REMARK  status: ('A' for Active; 'I' for Inactive)
REMARK    1  A    between atoms: C1_1  and  C2_2
REMARK    2  A    between atoms: C2_2  and  O2_4
REMARK    3  A    between atoms: O2_4  and  C3_5
REMARK    4  A    between atoms: C7_10  and  O4_11
REMARK    5  A    between atoms: C8_12  and  C9_13
REMARK    6  A    between atoms: C11_15  and  O5_16
REMARK    7  A    between atoms: O5_16  and  C12_17
REMARK    8  A    between atoms: C12_17  and  C13_19
REMARK    9  A    between atoms: C19_25  and  O7_26
REMARK   10  A    between atoms: C21_28  and  O8_29
REMARK   11  A    between atoms: O8_29  and  C22_30
REMARK   12  A    between atoms: C22_30  and  C23_32
REMARK   13  A    between atoms: C23_32  and  O10_33
REMARK   14  A    between atoms: C23_32  and  C24_34
REMARK   15  A    between atoms: C24_34  and  N1_35
REMARK   16  A    between atoms: C24_34  and  C30_43
REMARK   17  A    between atoms: C25_36  and  O12_38
REMARK   18  A    between atoms: O12_38  and  C26_39
REMARK   19  A    between atoms: C26_39  and  C27_40
REMARK   20  A    between atoms: C26_39  and  C28_41
REMARK   21  A    between atoms: C26_39  and  C29_42
REMARK   22  A    between atoms: C36_49  and  C43_58
REMARK   23  A    between atoms: C38_51  and  O13_52
REMARK   24  A    between atoms: C40_55  and  C41_56
REMARK   25  A    between atoms: C40_55  and  C42_57
REMARK                            x       y       z     vdW  Elec       q    Type
REMARK                         _______ _______ _______ _____ _____    ______ ____
ROOT
ATOM      1  C3  UNL     1      73.720  62.736 106.829  0.00  0.00    +0.000 C 
ATOM      2  C4  UNL     1      72.913  62.797 105.548  0.00  0.00    +0.000 C 
ATOM      3  O3  UNL     1      73.812  61.957 104.856  0.00  0.00    +0.000 OA
ATOM      4  C5  UNL     1      74.559  61.751 106.032  0.00  0.00    +0.000 C 
ATOM      5  C6  UNL     1      76.036  62.124 105.898  0.00  0.00    +0.000 C 
ATOM      6  C7  UNL     1      76.213  63.543 105.369  0.00  0.00    +0.000 C 
ATOM      7  C8  UNL     1      75.569  64.661 106.288  0.00  0.00    +0.000 C 
ATOM      8  C9  UNL     1      74.942  65.703 105.292  0.00  0.00    +0.000 C 
ATOM      9  C10 UNL     1      74.475  64.043 107.309  0.00  0.00    +0.000 C 
ATOM     10  C11 UNL     1      73.518  65.110 108.003  0.00  0.00    +0.000 C 
ATOM     11  C19 UNL     1      73.827  65.577 109.505  0.00  0.00    +0.000 C 
ATOM     12  C20 UNL     1      73.570  64.408 110.517  0.00  0.00    +0.000 C 
ATOM     13  C21 UNL     1      74.802  63.607 111.020  0.00  0.00    +0.000 C 
ATOM     14  C36 UNL     1      76.122  63.908 110.329  0.00  0.00    +0.000 C 
ATOM     15  C37 UNL     1      76.285  65.028 109.541  0.00  0.00    +0.000 C 
ATOM     16  C38 UNL     1      77.310  65.083 108.388  0.00  0.00    +0.000 C 
ATOM     17  C39 UNL     1      76.706  65.433 107.032  0.00  0.00    +0.000 C 
ATOM     18  O14 UNL     1      77.277  66.335 106.431  0.00  0.00    +0.000 OA
ATOM     19  C40 UNL     1      75.273  66.179 109.735  0.00  0.00    +0.000 C 
ATOM     20  C41 UNL     1      75.537  67.436 108.847  0.00  0.00    +0.000 C 
ATOM     21  C42 UNL     1      75.441  66.747 111.180  0.00  0.00    +0.000 C 
ATOM     22  C43 UNL     1      77.171  62.833 110.490  0.00  0.00    +0.000 C 
ENDROOT
BRANCH   6  23
ATOM     23  O4  UNL     1      77.586  63.761 105.152  0.00  0.00    +0.000 OA
ATOM     24  H10 UNL     1      77.888  63.081 104.493  0.00  0.00    +0.000 HD
ENDBRANCH   6  23
BRANCH  11  25
ATOM     25  O7  UNL     1      72.878  66.569 109.842  0.00  0.00    +0.000 OA
ATOM     26  H21 UNL     1      72.278  66.233 110.549  0.00  0.00    +0.000 HD
ENDBRANCH  11  25
BRANCH  16  27
ATOM     27  O13 UNL     1      78.046  63.902 108.224  0.00  0.00    +0.000 OA
ATOM     28  H44 UNL     1      78.422  63.911 107.302  0.00  0.00    +0.000 HD
ENDBRANCH  16  27
BRANCH   1  29
ATOM     29  O2  UNL     1      72.954  62.094 107.859  0.00  0.00    +0.000 OA
BRANCH  29  31
ATOM     30  C1  UNL     1      74.359  60.481 109.135  0.00  0.00    +0.000 C 
ATOM     31  C2  UNL     1      73.151  60.786 108.316  0.00  0.00    +0.000 C 
ATOM     32  O1  UNL     1      72.307  59.876 108.079  0.00  0.00    +0.000 OA
ENDBRANCH  29  31
ENDBRANCH   1  29
BRANCH  10  33
ATOM     33  O5  UNL     1      72.162  64.651 107.941  0.00  0.00    +0.000 OA
BRANCH  33  34
ATOM     34  C12 UNL     1      71.129  65.265 107.216  0.00  0.00    +0.000 C 
ATOM     35  O6  UNL     1      70.193  64.576 106.719  0.00  0.00    +0.000 OA
BRANCH  34  36
ATOM     36  C13 UNL     1      71.127  66.734 107.054  0.00  0.00    +0.000 A 
ATOM     37  C14 UNL     1      70.404  67.549 107.944  0.00  0.00    +0.000 A 
ATOM     38  C15 UNL     1      70.392  68.937 107.785  0.00  0.00    +0.000 A 
ATOM     39  C16 UNL     1      71.109  69.530 106.744  0.00  0.00    +0.000 A 
ATOM     40  C17 UNL     1      71.828  68.732 105.851  0.00  0.00    +0.000 A 
ATOM     41  C18 UNL     1      71.845  67.343 106.007  0.00  0.00    +0.000 A 
ENDBRANCH  34  36
ENDBRANCH  33  34
ENDBRANCH  10  33
BRANCH  13  42
ATOM     42  O8  UNL     1      74.955  63.763 112.432  0.00  0.00    +0.000 OA
BRANCH  42  43
ATOM     43  C22 UNL     1      74.391  62.909 113.390  0.00  0.00    +0.000 C 
ATOM     44  O9  UNL     1      73.199  63.066 113.784  0.00  0.00    +0.000 OA
BRANCH  43  45
ATOM     45  C23 UNL     1      75.186  61.740 113.896  0.00  0.00    +0.000 C 
BRANCH  45  46
ATOM     46  O10 UNL     1      74.305  60.690 114.202  0.00  0.00    +0.000 OA
ATOM     47  H26 UNL     1      74.606  60.284 115.052  0.00  0.00    +0.000 HD
ENDBRANCH  45  46
BRANCH  45  48
ATOM     48  C24 UNL     1      76.044  62.142 115.124  0.00  0.00    +0.000 C 
BRANCH  48  49
ATOM     49  C30 UNL     1      77.348  61.367 115.214  0.00  0.00    +0.000 A 
ATOM     50  C31 UNL     1      77.499  60.119 114.579  0.00  0.00    +0.000 A 
ATOM     51  C32 UNL     1      78.695  59.409 114.697  0.00  0.00    +0.000 A 
ATOM     52  C33 UNL     1      79.753  59.931 115.445  0.00  0.00    +0.000 A 
ATOM     53  C34 UNL     1      79.622  61.178 116.058  0.00  0.00    +0.000 A 
ATOM     54  C35 UNL     1      78.427  61.894 115.950  0.00  0.00    +0.000 A 
ENDBRANCH  48  49
BRANCH  48  55
ATOM     55  N1  UNL     1      76.316  63.586 115.113  0.00  0.00    +0.000 N 
ATOM     56  C25 UNL     1      75.917  64.462 116.173  0.00  0.00    +0.000 C 
ATOM     57  O11 UNL     1      75.341  63.992 117.193  0.00  0.00    +0.000 OA
ATOM     58  H28 UNL     1      76.918  63.986 114.359  0.00  0.00    +0.000 HD
BRANCH  56  59
ATOM     59  O12 UNL     1      76.168  65.838 116.054  0.00  0.00    +0.000 OA
BRANCH  59  60
ATOM     60  C26 UNL     1      75.188  66.863 115.831  0.00  0.00    +0.000 C 
ATOM     61  C27 UNL     1      74.692  67.326 117.211  0.00  0.00    +0.000 C 
ATOM     62  C28 UNL     1      73.992  66.306 115.035  0.00  0.00    +0.000 C 
ATOM     63  C29 UNL     1      75.819  68.066 115.096  0.00  0.00    +0.000 C 
ENDBRANCH  59  60
ENDBRANCH  56  59
ENDBRANCH  48  55
ENDBRANCH  45  48
ENDBRANCH  43  45
ENDBRANCH  42  43
ENDBRANCH  13  42
TORSDOF 17
ENDMDL
MODEL 11
REMARK VINA RESULT:      -7.4      2.013      3.651
REMARK  Name = ./S1148.pdb
REMARK  25 active torsions:
REMARK  status: ('A' for Active; 'I' for Inactive)
REMARK    1  A    between atoms: C1_1  and  C2_2
REMARK    2  A    between atoms: C2_2  and  O2_4
REMARK    3  A    between atoms: O2_4  and  C3_5
REMARK    4  A    between atoms: C7_10  and  O4_11
REMARK    5  A    between atoms: C8_12  and  C9_13
REMARK    6  A    between atoms: C11_15  and  O5_16
REMARK    7  A    between atoms: O5_16  and  C12_17
REMARK    8  A    between atoms: C12_17  and  C13_19
REMARK    9  A    between atoms: C19_25  and  O7_26
REMARK   10  A    between atoms: C21_28  and  O8_29
REMARK   11  A    between atoms: O8_29  and  C22_30
REMARK   12  A    between atoms: C22_30  and  C23_32
REMARK   13  A    between atoms: C23_32  and  O10_33
REMARK   14  A    between atoms: C23_32  and  C24_34
REMARK   15  A    between atoms: C24_34  and  N1_35
REMARK   16  A    between atoms: C24_34  and  C30_43
REMARK   17  A    between atoms: C25_36  and  O12_38
REMARK   18  A    between atoms: O12_38  and  C26_39
REMARK   19  A    between atoms: C26_39  and  C27_40
REMARK   20  A    between atoms: C26_39  and  C28_41
REMARK   21  A    between atoms: C26_39  and  C29_42
REMARK   22  A    between atoms: C36_49  and  C43_58
REMARK   23  A    between atoms: C38_51  and  O13_52
REMARK   24  A    between atoms: C40_55  and  C41_56
REMARK   25  A    between atoms: C40_55  and  C42_57
REMARK                            x       y       z     vdW  Elec       q    Type
REMARK                         _______ _______ _______ _____ _____    ______ ____
ROOT
ATOM      1  C3  UNL     1      71.669  65.243 108.495  0.00  0.00    +0.000 C 
ATOM      2  C4  UNL     1      71.099  65.663 109.835  0.00  0.00    +0.000 C 
ATOM      3  O3  UNL     1      70.103  66.468 109.241  0.00  0.00    +0.000 OA
ATOM      4  C5  UNL     1      70.493  66.041 107.957  0.00  0.00    +0.000 C 
ATOM      5  C6  UNL     1      70.868  67.185 107.014  0.00  0.00    +0.000 C 
ATOM      6  C7  UNL     1      71.913  68.107 107.635  0.00  0.00    +0.000 C 
ATOM      7  C8  UNL     1      73.276  67.386 108.001  0.00  0.00    +0.000 C 
ATOM      8  C9  UNL     1      73.721  68.016 109.370  0.00  0.00    +0.000 C 
ATOM      9  C10 UNL     1      73.102  65.779 108.084  0.00  0.00    +0.000 C 
ATOM     10  C11 UNL     1      74.298  65.005 108.797  0.00  0.00    +0.000 C 
ATOM     11  C19 UNL     1      75.403  64.275 107.895  0.00  0.00    +0.000 C 
ATOM     12  C20 UNL     1      74.791  63.035 107.156  0.00  0.00    +0.000 C 
ATOM     13  C21 UNL     1      74.384  63.213 105.668  0.00  0.00    +0.000 C 
ATOM     14  C36 UNL     1      74.436  64.632 105.126  0.00  0.00    +0.000 C 
ATOM     15  C37 UNL     1      75.098  65.637 105.799  0.00  0.00    +0.000 C 
ATOM     16  C38 UNL     1      74.705  67.123 105.654  0.00  0.00    +0.000 C 
ATOM     17  C39 UNL     1      74.373  67.812 106.974  0.00  0.00    +0.000 C 
ATOM     18  O14 UNL     1      74.951  68.876 107.158  0.00  0.00    +0.000 OA
ATOM     19  C40 UNL     1      76.142  65.210 106.854  0.00  0.00    +0.000 C 
ATOM     20  C41 UNL     1      76.889  66.393 107.549  0.00  0.00    +0.000 C 
ATOM     21  C42 UNL     1      77.303  64.462 106.125  0.00  0.00    +0.000 C 
ATOM     22  C43 UNL     1      73.620  64.852 103.874  0.00  0.00    +0.000 C 
ENDROOT
BRANCH   6  23
ATOM     23  O4  UNL     1      72.105  69.197 106.766  0.00  0.00    +0.000 OA
ATOM     24  H10 UNL     1      71.448  69.895 107.025  0.00  0.00    +0.000 HD
ENDBRANCH   6  23
BRANCH  11  25
ATOM     25  O7  UNL     1      76.374  63.737 108.771  0.00  0.00    +0.000 OA
ATOM     26  H21 UNL     1      75.979  63.595 109.663  0.00  0.00    +0.000 HD
ENDBRANCH  11  25
BRANCH  16  27
ATOM     27  O13 UNL     1      73.628  67.345 104.786  0.00  0.00    +0.000 OA
ATOM     28  H44 UNL     1      72.802  67.383 105.340  0.00  0.00    +0.000 HD
ENDBRANCH  16  27
BRANCH   1  29
ATOM     29  O2  UNL     1      71.500  63.830 108.314  0.00  0.00    +0.000 OA
BRANCH  29  31
ATOM     30  C1  UNL     1      70.642  64.003 105.982  0.00  0.00    +0.000 C 
ATOM     31  C2  UNL     1      71.221  63.199 107.097  0.00  0.00    +0.000 C 
ATOM     32  O1  UNL     1      71.484  61.977 106.918  0.00  0.00    +0.000 OA
ENDBRANCH  29  31
ENDBRANCH   1  29
BRANCH  10  33
ATOM     33  O5  UNL     1      73.766  64.050 109.724  0.00  0.00    +0.000 OA
BRANCH  33  34
ATOM     34  C12 UNL     1      74.232  63.844 111.032  0.00  0.00    +0.000 C 
ATOM     35  O6  UNL     1      74.722  62.730 111.373  0.00  0.00    +0.000 OA
BRANCH  34  36
ATOM     36  C13 UNL     1      74.169  64.950 112.010  0.00  0.00    +0.000 A 
ATOM     37  C14 UNL     1      75.207  65.897 112.084  0.00  0.00    +0.000 A 
ATOM     38  C15 UNL     1      75.154  66.937 113.017  0.00  0.00    +0.000 A 
ATOM     39  C16 UNL     1      74.062  67.049 113.879  0.00  0.00    +0.000 A 
ATOM     40  C17 UNL     1      73.027  66.114 113.819  0.00  0.00    +0.000 A 
ATOM     41  C18 UNL     1      73.074  65.073 112.886  0.00  0.00    +0.000 A 
ENDBRANCH  34  36
ENDBRANCH  33  34
ENDBRANCH  10  33
BRANCH  13  42
ATOM     42  O8  UNL     1      75.162  62.352 104.833  0.00  0.00    +0.000 OA
BRANCH  42  43
ATOM     43  C22 UNL     1      74.974  60.967 104.727  0.00  0.00    +0.000 C 
ATOM     44  O9  UNL     1      75.876  60.156 105.086  0.00  0.00    +0.000 OA
BRANCH  43  45
ATOM     45  C23 UNL     1      73.649  60.435 104.260  0.00  0.00    +0.000 C 
BRANCH  45  46
ATOM     46  O10 UNL     1      73.576  59.066 104.563  0.00  0.00    +0.000 OA
ATOM     47  H26 UNL     1      74.387  58.634 104.198  0.00  0.00    +0.000 HD
ENDBRANCH  45  46
BRANCH  45  48
ATOM     48  C24 UNL     1      73.451  60.696 102.744  0.00  0.00    +0.000 C 
BRANCH  48  49
ATOM     49  C30 UNL     1      72.143  61.405 102.431  0.00  0.00    +0.000 A 
ATOM     50  C31 UNL     1      71.126  61.517 103.399  0.00  0.00    +0.000 A 
ATOM     51  C32 UNL     1      69.921  62.147 103.084  0.00  0.00    +0.000 A 
ATOM     52  C33 UNL     1      69.714  62.672 101.807  0.00  0.00    +0.000 A 
ATOM     53  C34 UNL     1      70.724  62.588 100.848  0.00  0.00    +0.000 A 
ATOM     54  C35 UNL     1      71.932  61.956 101.152  0.00  0.00    +0.000 A 
ENDBRANCH  48  49
BRANCH  48  55
ATOM     55  N1  UNL     1      74.581  61.462 102.200  0.00  0.00    +0.000 N 
ATOM     56  C25 UNL     1      75.399  60.986 101.125  0.00  0.00    +0.000 C 
ATOM     57  O11 UNL     1      75.133  59.882 100.575  0.00  0.00    +0.000 OA
ATOM     58  H28 UNL     1      74.740  62.441 102.528  0.00  0.00    +0.000 HD
BRANCH  56  59
ATOM     59  O12 UNL     1      76.493  61.758 100.705  0.00  0.00    +0.000 OA
BRANCH  59  60
ATOM     60  C26 UNL     1      77.778  61.826 101.342  0.00  0.00    +0.000 C 
ATOM     61  C27 UNL     1      77.699  62.931 102.408  0.00  0.00    +0.000 C 
ATOM     62  C28 UNL     1      78.870  62.198 100.321  0.00  0.00    +0.000 C 
ATOM     63  C29 UNL     1      78.111  60.486 102.033  0.00  0.00    +0.000 C 
ENDBRANCH  59  60
ENDBRANCH  56  59
ENDBRANCH  48  55
ENDBRANCH  45  48
ENDBRANCH  43  45
ENDBRANCH  42  43
ENDBRANCH  13  42
TORSDOF 17
ENDMDL
MODEL 12
REMARK VINA RESULT:      -7.4      2.185      5.856
REMARK  Name = ./S1148.pdb
REMARK  25 active torsions:
REMARK  status: ('A' for Active; 'I' for Inactive)
REMARK    1  A    between atoms: C1_1  and  C2_2
REMARK    2  A    between atoms: C2_2  and  O2_4
REMARK    3  A    between atoms: O2_4  and  C3_5
REMARK    4  A    between atoms: C7_10  and  O4_11
REMARK    5  A    between atoms: C8_12  and  C9_13
REMARK    6  A    between atoms: C11_15  and  O5_16
REMARK    7  A    between atoms: O5_16  and  C12_17
REMARK    8  A    between atoms: C12_17  and  C13_19
REMARK    9  A    between atoms: C19_25  and  O7_26
REMARK   10  A    between atoms: C21_28  and  O8_29
REMARK   11  A    between atoms: O8_29  and  C22_30
REMARK   12  A    between atoms: C22_30  and  C23_32
REMARK   13  A    between atoms: C23_32  and  O10_33
REMARK   14  A    between atoms: C23_32  and  C24_34
REMARK   15  A    between atoms: C24_34  and  N1_35
REMARK   16  A    between atoms: C24_34  and  C30_43
REMARK   17  A    between atoms: C25_36  and  O12_38
REMARK   18  A    between atoms: O12_38  and  C26_39
REMARK   19  A    between atoms: C26_39  and  C27_40
REMARK   20  A    between atoms: C26_39  and  C28_41
REMARK   21  A    between atoms: C26_39  and  C29_42
REMARK   22  A    between atoms: C36_49  and  C43_58
REMARK   23  A    between atoms: C38_51  and  O13_52
REMARK   24  A    between atoms: C40_55  and  C41_56
REMARK   25  A    between atoms: C40_55  and  C42_57
REMARK                            x       y       z     vdW  Elec       q    Type
REMARK                         _______ _______ _______ _____ _____    ______ ____
ROOT
ATOM      1  C3  UNL     1      74.354  64.546 109.851  0.00  0.00    +0.000 C 
ATOM      2  C4  UNL     1      75.134  65.078 111.036  0.00  0.00    +0.000 C 
ATOM      3  O3  UNL     1      74.050  64.903 111.922  0.00  0.00    +0.000 OA
ATOM      4  C5  UNL     1      73.291  64.291 110.906  0.00  0.00    +0.000 C 
ATOM      5  C6  UNL     1      71.946  64.972 110.643  0.00  0.00    +0.000 C 
ATOM      6  C7  UNL     1      72.113  66.466 110.388  0.00  0.00    +0.000 C 
ATOM      7  C8  UNL     1      73.022  66.812 109.138  0.00  0.00    +0.000 C 
ATOM      8  C9  UNL     1      73.869  68.061 109.577  0.00  0.00    +0.000 C 
ATOM      9  C10 UNL     1      73.946  65.557 108.702  0.00  0.00    +0.000 C 
ATOM     10  C11 UNL     1      75.143  65.909 107.712  0.00  0.00    +0.000 C 
ATOM     11  C19 UNL     1      74.976  65.609 106.146  0.00  0.00    +0.000 C 
ATOM     12  C20 UNL     1      74.955  64.066 105.873  0.00  0.00    +0.000 C 
ATOM     13  C21 UNL     1      73.572  63.390 105.663  0.00  0.00    +0.000 C 
ATOM     14  C36 UNL     1      72.356  64.259 105.938  0.00  0.00    +0.000 C 
ATOM     15  C37 UNL     1      72.459  65.630 106.054  0.00  0.00    +0.000 C 
ATOM     16  C38 UNL     1      71.463  66.464 106.887  0.00  0.00    +0.000 C 
ATOM     17  C39 UNL     1      72.116  67.317 107.969  0.00  0.00    +0.000 C 
ATOM     18  O14 UNL     1      71.773  68.493 107.975  0.00  0.00    +0.000 OA
ATOM     19  C40 UNL     1      73.723  66.293 105.463  0.00  0.00    +0.000 C 
ATOM     20  C41 UNL     1      73.761  67.849 105.585  0.00  0.00    +0.000 C 
ATOM     21  C42 UNL     1      73.717  66.078 103.916  0.00  0.00    +0.000 C 
ATOM     22  C43 UNL     1      71.080  63.488 106.180  0.00  0.00    +0.000 C 
ENDROOT
BRANCH   6  23
ATOM     23  O4  UNL     1      70.831  67.038 110.288  0.00  0.00    +0.000 OA
ATOM     24  H10 UNL     1      70.261  66.598 110.972  0.00  0.00    +0.000 HD
ENDBRANCH   6  23
BRANCH  11  25
ATOM     25  O7  UNL     1      76.142  66.080 105.500  0.00  0.00    +0.000 OA
ATOM     26  H21 UNL     1      76.537  66.820 106.017  0.00  0.00    +0.000 HD
ENDBRANCH  11  25
BRANCH  16  27
ATOM     27  O13 UNL     1      70.460  65.704 107.503  0.00  0.00    +0.000 OA
ATOM     28  H44 UNL     1      69.705  65.628 106.858  0.00  0.00    +0.000 HD
ENDBRANCH  16  27
BRANCH   1  29
ATOM     29  O2  UNL     1      74.955  63.333 109.375  0.00  0.00    +0.000 OA
BRANCH  29  31
ATOM     30  C1  UNL     1      74.997  60.851 109.175  0.00  0.00    +0.000 C 
ATOM     31  C2  UNL     1      74.268  62.149 109.089  0.00  0.00    +0.000 C 
ATOM     32  O1  UNL     1      73.038  62.160 108.799  0.00  0.00    +0.000 OA
ENDBRANCH  29  31
ENDBRANCH   1  29
BRANCH  10  33
ATOM     33  O5  UNL     1      76.345  65.279 108.169  0.00  0.00    +0.000 OA
BRANCH  33  34
ATOM     34  C12 UNL     1      77.647  65.758 107.951  0.00  0.00    +0.000 C 
ATOM     35  O6  UNL     1      77.902  66.992 108.041  0.00  0.00    +0.000 OA
BRANCH  34  36
ATOM     36  C13 UNL     1      78.731  64.804 107.636  0.00  0.00    +0.000 A 
ATOM     37  C14 UNL     1      79.130  64.590 106.304  0.00  0.00    +0.000 A 
ATOM     38  C15 UNL     1      80.146  63.679 106.005  0.00  0.00    +0.000 A 
ATOM     39  C16 UNL     1      80.783  62.979 107.030  0.00  0.00    +0.000 A 
ATOM     40  C17 UNL     1      80.394  63.178 108.357  0.00  0.00    +0.000 A 
ATOM     41  C18 UNL     1      79.379  64.090 108.662  0.00  0.00    +0.000 A 
ENDBRANCH  34  36
ENDBRANCH  33  34
ENDBRANCH  10  33
BRANCH  13  42
ATOM     42  O8  UNL     1      73.481  62.842 104.346  0.00  0.00    +0.000 OA
BRANCH  42  43
ATOM     43  C22 UNL     1      74.523  62.172 103.691  0.00  0.00    +0.000 C 
ATOM     44  O9  UNL     1      75.075  62.664 102.665  0.00  0.00    +0.000 OA
BRANCH  43  45
ATOM     45  C23 UNL     1      75.051  60.888 104.266  0.00  0.00    +0.000 C 
BRANCH  45  46
ATOM     46  O10 UNL     1      76.248  60.555 103.612  0.00  0.00    +0.000 OA
ATOM     47  H26 UNL     1      76.976  60.594 104.280  0.00  0.00    +0.000 HD
ENDBRANCH  45  46
BRANCH  45  48
ATOM     48  C24 UNL     1      73.999  59.754 104.146  0.00  0.00    +0.000 C 
BRANCH  48  49
ATOM     49  C30 UNL     1      73.409  59.350 105.487  0.00  0.00    +0.000 A 
ATOM     50  C31 UNL     1      74.073  58.437 106.330  0.00  0.00    +0.000 A 
ATOM     51  C32 UNL     1      73.501  58.056 107.545  0.00  0.00    +0.000 A 
ATOM     52  C33 UNL     1      72.265  58.577 107.935  0.00  0.00    +0.000 A 
ATOM     53  C34 UNL     1      71.611  59.501 107.119  0.00  0.00    +0.000 A 
ATOM     54  C35 UNL     1      72.173  59.884 105.899  0.00  0.00    +0.000 A 
ENDBRANCH  48  49
BRANCH  48  55
ATOM     55  N1  UNL     1      72.926  60.141 103.220  0.00  0.00    +0.000 N 
ATOM     56  C25 UNL     1      72.787  59.577 101.911  0.00  0.00    +0.000 C 
ATOM     57  O11 UNL     1      73.582  58.677 101.527  0.00  0.00    +0.000 OA
ATOM     58  H28 UNL     1      72.164  60.772 103.556  0.00  0.00    +0.000 HD
BRANCH  56  59
ATOM     59  O12 UNL     1      71.765  60.047 101.070  0.00  0.00    +0.000 OA
BRANCH  59  60
ATOM     60  C26 UNL     1      71.736  61.313 100.395  0.00  0.00    +0.000 C 
ATOM     61  C27 UNL     1      73.165  61.599  99.904  0.00  0.00    +0.000 C 
ATOM     62  C28 UNL     1      71.311  62.434 101.363  0.00  0.00    +0.000 C 
ATOM     63  C29 UNL     1      70.790  61.257  99.176  0.00  0.00    +0.000 C 
ENDBRANCH  59  60
ENDBRANCH  56  59
ENDBRANCH  48  55
ENDBRANCH  45  48
ENDBRANCH  43  45
ENDBRANCH  42  43
ENDBRANCH  13  42
TORSDOF 17
ENDMDL
MODEL 13
REMARK VINA RESULT:      -7.4      2.575      3.935
REMARK  Name = ./S1148.pdb
REMARK  25 active torsions:
REMARK  status: ('A' for Active; 'I' for Inactive)
REMARK    1  A    between atoms: C1_1  and  C2_2
REMARK    2  A    between atoms: C2_2  and  O2_4
REMARK    3  A    between atoms: O2_4  and  C3_5
REMARK    4  A    between atoms: C7_10  and  O4_11
REMARK    5  A    between atoms: C8_12  and  C9_13
REMARK    6  A    between atoms: C11_15  and  O5_16
REMARK    7  A    between atoms: O5_16  and  C12_17
REMARK    8  A    between atoms: C12_17  and  C13_19
REMARK    9  A    between atoms: C19_25  and  O7_26
REMARK   10  A    between atoms: C21_28  and  O8_29
REMARK   11  A    between atoms: O8_29  and  C22_30
REMARK   12  A    between atoms: C22_30  and  C23_32
REMARK   13  A    between atoms: C23_32  and  O10_33
REMARK   14  A    between atoms: C23_32  and  C24_34
REMARK   15  A    between atoms: C24_34  and  N1_35
REMARK   16  A    between atoms: C24_34  and  C30_43
REMARK   17  A    between atoms: C25_36  and  O12_38
REMARK   18  A    between atoms: O12_38  and  C26_39
REMARK   19  A    between atoms: C26_39  and  C27_40
REMARK   20  A    between atoms: C26_39  and  C28_41
REMARK   21  A    between atoms: C26_39  and  C29_42
REMARK   22  A    between atoms: C36_49  and  C43_58
REMARK   23  A    between atoms: C38_51  and  O13_52
REMARK   24  A    between atoms: C40_55  and  C41_56
REMARK   25  A    between atoms: C40_55  and  C42_57
REMARK                            x       y       z     vdW  Elec       q    Type
REMARK                         _______ _______ _______ _____ _____    ______ ____
ROOT
ATOM      1  C3  UNL     1      72.880  67.635 107.655  0.00  0.00    +0.000 C 
ATOM      2  C4  UNL     1      72.817  68.875 108.524  0.00  0.00    +0.000 C 
ATOM      3  O3  UNL     1      72.004  69.569 107.601  0.00  0.00    +0.000 OA
ATOM      4  C5  UNL     1      71.914  68.423 106.787  0.00  0.00    +0.000 C 
ATOM      5  C6  UNL     1      72.380  68.651 105.348  0.00  0.00    +0.000 C 
ATOM      6  C7  UNL     1      73.777  69.259 105.298  0.00  0.00    +0.000 C 
ATOM      7  C8  UNL     1      74.896  68.366 105.976  0.00  0.00    +0.000 C 
ATOM      8  C9  UNL     1      75.838  69.380 106.722  0.00  0.00    +0.000 C 
ATOM      9  C10 UNL     1      74.260  67.261 106.974  0.00  0.00    +0.000 C 
ATOM     10  C11 UNL     1      75.295  66.574 107.970  0.00  0.00    +0.000 C 
ATOM     11  C19 UNL     1      75.862  65.115 107.624  0.00  0.00    +0.000 C 
ATOM     12  C20 UNL     1      74.734  64.033 107.749  0.00  0.00    +0.000 C 
ATOM     13  C21 UNL     1      74.047  63.554 106.441  0.00  0.00    +0.000 C 
ATOM     14  C36 UNL     1      74.400  64.326 105.180  0.00  0.00    +0.000 C 
ATOM     15  C37 UNL     1      75.485  65.177 105.135  0.00  0.00    +0.000 C 
ATOM     16  C38 UNL     1      75.548  66.382 104.172  0.00  0.00    +0.000 C 
ATOM     17  C39 UNL     1      75.783  67.721 104.863  0.00  0.00    +0.000 C 
ATOM     18  O14 UNL     1      76.688  68.395 104.386  0.00  0.00    +0.000 OA
ATOM     19  C40 UNL     1      76.573  64.990 106.216  0.00  0.00    +0.000 C 
ATOM     20  C41 UNL     1      77.795  65.952 106.085  0.00  0.00    +0.000 C 
ATOM     21  C42 UNL     1      77.228  63.586 106.020  0.00  0.00    +0.000 C 
ATOM     22  C43 UNL     1      73.410  64.165 104.051  0.00  0.00    +0.000 C 
ENDROOT
BRANCH   6  23
ATOM     23  O4  UNL     1      74.077  69.557 103.956  0.00  0.00    +0.000 OA
ATOM     24  H10 UNL     1      73.491  70.313 103.687  0.00  0.00    +0.000 HD
ENDBRANCH   6  23
BRANCH  11  25
ATOM     25  O7  UNL     1      76.803  64.780 108.624  0.00  0.00    +0.000 OA
ATOM     26  H21 UNL     1      76.929  63.802 108.653  0.00  0.00    +0.000 HD
ENDBRANCH  11  25
BRANCH  16  27
ATOM     27  O13 UNL     1      74.414  66.523 103.362  0.00  0.00    +0.000 OA
ATOM     28  H44 UNL     1      74.657  66.208 102.450  0.00  0.00    +0.000 HD
ENDBRANCH  16  27
BRANCH   1  29
ATOM     29  O2  UNL     1      72.243  66.537 108.324  0.00  0.00    +0.000 OA
BRANCH  29  31
ATOM     30  C1  UNL     1      70.675  65.084 107.046  0.00  0.00    +0.000 C 
ATOM     31  C2  UNL     1      70.931  66.106 108.101  0.00  0.00    +0.000 C 
ATOM     32  O1  UNL     1      69.972  66.540 108.800  0.00  0.00    +0.000 OA
ENDBRANCH  29  31
ENDBRANCH   1  29
BRANCH  10  33
ATOM     33  O5  UNL     1      74.740  66.543 109.291  0.00  0.00    +0.000 OA
BRANCH  33  34
ATOM     34  C12 UNL     1      75.303  67.155 110.422  0.00  0.00    +0.000 C 
ATOM     35  O6  UNL     1      75.863  68.285 110.331  0.00  0.00    +0.000 OA
BRANCH  34  36
ATOM     36  C13 UNL     1      75.217  66.480 111.734  0.00  0.00    +0.000 A 
ATOM     37  C14 UNL     1      75.011  67.227 112.908  0.00  0.00    +0.000 A 
ATOM     38  C15 UNL     1      74.941  66.591 114.151  0.00  0.00    +0.000 A 
ATOM     39  C16 UNL     1      75.064  65.203 114.236  0.00  0.00    +0.000 A 
ATOM     40  C17 UNL     1      75.273  64.451 113.078  0.00  0.00    +0.000 A 
ATOM     41  C18 UNL     1      75.341  65.081 111.832  0.00  0.00    +0.000 A 
ENDBRANCH  34  36
ENDBRANCH  33  34
ENDBRANCH  10  33
BRANCH  13  42
ATOM     42  O8  UNL     1      74.289  62.162 106.233  0.00  0.00    +0.000 OA
BRANCH  42  43
ATOM     43  C22 UNL     1      74.021  61.160 107.177  0.00  0.00    +0.000 C 
ATOM     44  O9  UNL     1      74.948  60.654 107.873  0.00  0.00    +0.000 OA
BRANCH  43  45
ATOM     45  C23 UNL     1      72.601  60.740 107.424  0.00  0.00    +0.000 C 
BRANCH  45  46
ATOM     46  O10 UNL     1      72.546  60.001 108.616  0.00  0.00    +0.000 OA
ATOM     47  H26 UNL     1      73.446  60.021 109.024  0.00  0.00    +0.000 HD
ENDBRANCH  45  46
BRANCH  45  48
ATOM     48  C24 UNL     1      72.046  59.929 106.223  0.00  0.00    +0.000 C 
BRANCH  48  49
ATOM     49  C30 UNL     1      71.442  60.811 105.142  0.00  0.00    +0.000 A 
ATOM     50  C31 UNL     1      70.459  61.772 105.451  0.00  0.00    +0.000 A 
ATOM     51  C32 UNL     1      69.896  62.553 104.441  0.00  0.00    +0.000 A 
ATOM     52  C33 UNL     1      70.301  62.387 103.115  0.00  0.00    +0.000 A 
ATOM     53  C34 UNL     1      71.290  61.454 102.801  0.00  0.00    +0.000 A 
ATOM     54  C35 UNL     1      71.857  60.665 103.805  0.00  0.00    +0.000 A 
ENDBRANCH  48  49
BRANCH  48  55
ATOM     55  N1  UNL     1      73.094  59.076 105.648  0.00  0.00    +0.000 N 
ATOM     56  C25 UNL     1      73.294  57.714 106.044  0.00  0.00    +0.000 C 
ATOM     57  O11 UNL     1      72.523  57.187 106.892  0.00  0.00    +0.000 OA
ATOM     58  H28 UNL     1      73.655  59.429 104.840  0.00  0.00    +0.000 HD
BRANCH  56  59
ATOM     59  O12 UNL     1      74.357  56.988 105.483  0.00  0.00    +0.000 OA
BRANCH  59  60
ATOM     60  C26 UNL     1      74.406  56.448 104.153  0.00  0.00    +0.000 C 
ATOM     61  C27 UNL     1      75.283  55.186 104.208  0.00  0.00    +0.000 C 
ATOM     62  C28 UNL     1      75.049  57.457 103.182  0.00  0.00    +0.000 C 
ATOM     63  C29 UNL     1      72.992  56.055 103.675  0.00  0.00    +0.000 C 
ENDBRANCH  59  60
ENDBRANCH  56  59
ENDBRANCH  48  55
ENDBRANCH  45  48
ENDBRANCH  43  45
ENDBRANCH  42  43
ENDBRANCH  13  42
TORSDOF 17
ENDMDL
MODEL 14
REMARK VINA RESULT:      -7.4      3.135      8.135
REMARK  Name = ./S1148.pdb
REMARK  25 active torsions:
REMARK  status: ('A' for Active; 'I' for Inactive)
REMARK    1  A    between atoms: C1_1  and  C2_2
REMARK    2  A    between atoms: C2_2  and  O2_4
REMARK    3  A    between atoms: O2_4  and  C3_5
REMARK    4  A    between atoms: C7_10  and  O4_11
REMARK    5  A    between atoms: C8_12  and  C9_13
REMARK    6  A    between atoms: C11_15  and  O5_16
REMARK    7  A    between atoms: O5_16  and  C12_17
REMARK    8  A    between atoms: C12_17  and  C13_19
REMARK    9  A    between atoms: C19_25  and  O7_26
REMARK   10  A    between atoms: C21_28  and  O8_29
REMARK   11  A    between atoms: O8_29  and  C22_30
REMARK   12  A    between atoms: C22_30  and  C23_32
REMARK   13  A    between atoms: C23_32  and  O10_33
REMARK   14  A    between atoms: C23_32  and  C24_34
REMARK   15  A    between atoms: C24_34  and  N1_35
REMARK   16  A    between atoms: C24_34  and  C30_43
REMARK   17  A    between atoms: C25_36  and  O12_38
REMARK   18  A    between atoms: O12_38  and  C26_39
REMARK   19  A    between atoms: C26_39  and  C27_40
REMARK   20  A    between atoms: C26_39  and  C28_41
REMARK   21  A    between atoms: C26_39  and  C29_42
REMARK   22  A    between atoms: C36_49  and  C43_58
REMARK   23  A    between atoms: C38_51  and  O13_52
REMARK   24  A    between atoms: C40_55  and  C41_56
REMARK   25  A    between atoms: C40_55  and  C42_57
REMARK                            x       y       z     vdW  Elec       q    Type
REMARK                         _______ _______ _______ _____ _____    ______ ____
ROOT
ATOM      1  C3  UNL     1      73.688  60.942 107.337  0.00  0.00    +0.000 C 
ATOM      2  C4  UNL     1      72.468  60.067 107.544  0.00  0.00    +0.000 C 
ATOM      3  O3  UNL     1      73.241  58.894 107.675  0.00  0.00    +0.000 OA
ATOM      4  C5  UNL     1      74.431  59.644 107.606  0.00  0.00    +0.000 C 
ATOM      5  C6  UNL     1      75.377  59.200 106.490  0.00  0.00    +0.000 C 
ATOM      6  C7  UNL     1      74.672  59.153 105.139  0.00  0.00    +0.000 C 
ATOM      7  C8  UNL     1      74.077  60.545 104.671  0.00  0.00    +0.000 C 
ATOM      8  C9  UNL     1      72.698  60.200 104.000  0.00  0.00    +0.000 C 
ATOM      9  C10 UNL     1      73.925  61.579 105.906  0.00  0.00    +0.000 C 
ATOM     10  C11 UNL     1      73.009  62.849 105.617  0.00  0.00    +0.000 C 
ATOM     11  C19 UNL     1      73.703  64.249 105.263  0.00  0.00    +0.000 C 
ATOM     12  C20 UNL     1      74.446  64.836 106.513  0.00  0.00    +0.000 C 
ATOM     13  C21 UNL     1      75.985  64.638 106.593  0.00  0.00    +0.000 C 
ATOM     14  C36 UNL     1      76.596  63.721 105.547  0.00  0.00    +0.000 C 
ATOM     15  C37 UNL     1      75.897  63.347 104.418  0.00  0.00    +0.000 C 
ATOM     16  C38 UNL     1      76.182  62.026 103.672  0.00  0.00    +0.000 C 
ATOM     17  C39 UNL     1      74.964  61.120 103.520  0.00  0.00    +0.000 C 
ATOM     18  O14 UNL     1      74.763  60.715 102.382  0.00  0.00    +0.000 OA
ATOM     19  C40 UNL     1      74.683  64.216 104.021  0.00  0.00    +0.000 C 
ATOM     20  C41 UNL     1      73.961  63.768 102.711  0.00  0.00    +0.000 C 
ATOM     21  C42 UNL     1      75.198  65.643 103.650  0.00  0.00    +0.000 C 
ATOM     22  C43 UNL     1      77.961  63.182 105.908  0.00  0.00    +0.000 C 
ENDROOT
BRANCH   6  23
ATOM     23  O4  UNL     1      75.567  58.614 104.197  0.00  0.00    +0.000 OA
ATOM     24  H10 UNL     1      75.060  57.948 103.661  0.00  0.00    +0.000 HD
ENDBRANCH   6  23
BRANCH  11  25
ATOM     25  O7  UNL     1      72.670  65.174 104.985  0.00  0.00    +0.000 OA
ATOM     26  H21 UNL     1      71.798  64.714 104.987  0.00  0.00    +0.000 HD
ENDBRANCH  11  25
BRANCH  16  27
ATOM     27  O13 UNL     1      77.203  61.257 104.245  0.00  0.00    +0.000 OA
ATOM     28  H44 UNL     1      77.970  61.259 103.610  0.00  0.00    +0.000 HD
ENDBRANCH  16  27
BRANCH   1  29
ATOM     29  O2  UNL     1      73.808  61.876 108.419  0.00  0.00    +0.000 OA
BRANCH  29  31
ATOM     30  C1  UNL     1      76.085  62.354 109.310  0.00  0.00    +0.000 C 
ATOM     31  C2  UNL     1      74.720  61.776 109.475  0.00  0.00    +0.000 C 
ATOM     32  O1  UNL     1      74.395  61.240 110.572  0.00  0.00    +0.000 OA
ENDBRANCH  29  31
ENDBRANCH   1  29
BRANCH  10  33
ATOM     33  O5  UNL     1      72.111  63.053 106.715  0.00  0.00    +0.000 OA
BRANCH  33  34
ATOM     34  C12 UNL     1      70.987  63.894 106.699  0.00  0.00    +0.000 C 
ATOM     35  O6  UNL     1      70.063  63.718 105.854  0.00  0.00    +0.000 OA
BRANCH  34  36
ATOM     36  C13 UNL     1      70.875  64.979 107.696  0.00  0.00    +0.000 A 
ATOM     37  C14 UNL     1      71.239  64.756 109.037  0.00  0.00    +0.000 A 
ATOM     38  C15 UNL     1      71.123  65.777 109.984  0.00  0.00    +0.000 A 
ATOM     39  C16 UNL     1      70.653  67.035 109.603  0.00  0.00    +0.000 A 
ATOM     40  C17 UNL     1      70.285  67.269 108.276  0.00  0.00    +0.000 A 
ATOM     41  C18 UNL     1      70.401  66.251 107.324  0.00  0.00    +0.000 A 
ENDBRANCH  34  36
ENDBRANCH  33  34
ENDBRANCH  10  33
BRANCH  13  42
ATOM     42  O8  UNL     1      76.651  65.901 106.570  0.00  0.00    +0.000 OA
BRANCH  42  43
ATOM     43  C22 UNL     1      76.997  66.637 107.713  0.00  0.00    +0.000 C 
ATOM     44  O9  UNL     1      77.435  66.064 108.752  0.00  0.00    +0.000 OA
BRANCH  43  45
ATOM     45  C23 UNL     1      76.926  68.137 107.674  0.00  0.00    +0.000 C 
BRANCH  45  46
ATOM     46  O10 UNL     1      77.780  68.658 108.659  0.00  0.00    +0.000 OA
ATOM     47  H26 UNL     1      78.478  69.188 108.202  0.00  0.00    +0.000 HD
ENDBRANCH  45  46
BRANCH  45  48
ATOM     48  C24 UNL     1      75.467  68.628 107.864  0.00  0.00    +0.000 C 
BRANCH  48  49
ATOM     49  C30 UNL     1      74.696  68.716 106.557  0.00  0.00    +0.000 A 
ATOM     50  C31 UNL     1      75.328  69.123 105.366  0.00  0.00    +0.000 A 
ATOM     51  C32 UNL     1      74.598  69.225 104.181  0.00  0.00    +0.000 A 
ATOM     52  C33 UNL     1      73.234  68.925 104.166  0.00  0.00    +0.000 A 
ATOM     53  C34 UNL     1      72.604  68.498 105.336  0.00  0.00    +0.000 A 
ATOM     54  C35 UNL     1      73.325  68.397 106.528  0.00  0.00    +0.000 A 
ENDBRANCH  48  49
BRANCH  48  55
ATOM     55  N1  UNL     1      74.751  67.763 108.812  0.00  0.00    +0.000 N 
ATOM     56  C25 UNL     1      74.472  68.151 110.163  0.00  0.00    +0.000 C 
ATOM     57  O11 UNL     1      74.808  69.297 110.569  0.00  0.00    +0.000 OA
ATOM     58  H28 UNL     1      74.328  66.871 108.471  0.00  0.00    +0.000 HD
BRANCH  56  59
ATOM     59  O12 UNL     1      73.832  67.239 111.017  0.00  0.00    +0.000 OA
BRANCH  59  60
ATOM     60  C26 UNL     1      74.433  66.545 112.121  0.00  0.00    +0.000 C 
ATOM     61  C27 UNL     1      75.384  65.491 111.533  0.00  0.00    +0.000 C 
ATOM     62  C28 UNL     1      73.358  65.830 112.962  0.00  0.00    +0.000 C 
ATOM     63  C29 UNL     1      75.248  67.523 112.996  0.00  0.00    +0.000 C 
ENDBRANCH  59  60
ENDBRANCH  56  59
ENDBRANCH  48  55
ENDBRANCH  45  48
ENDBRANCH  43  45
ENDBRANCH  42  43
ENDBRANCH  13  42
TORSDOF 17
ENDMDL
MODEL 15
REMARK VINA RESULT:      -7.4      2.036      5.083
REMARK  Name = ./S1148.pdb
REMARK  25 active torsions:
REMARK  status: ('A' for Active; 'I' for Inactive)
REMARK    1  A    between atoms: C1_1  and  C2_2
REMARK    2  A    between atoms: C2_2  and  O2_4
REMARK    3  A    between atoms: O2_4  and  C3_5
REMARK    4  A    between atoms: C7_10  and  O4_11
REMARK    5  A    between atoms: C8_12  and  C9_13
REMARK    6  A    between atoms: C11_15  and  O5_16
REMARK    7  A    between atoms: O5_16  and  C12_17
REMARK    8  A    between atoms: C12_17  and  C13_19
REMARK    9  A    between atoms: C19_25  and  O7_26
REMARK   10  A    between atoms: C21_28  and  O8_29
REMARK   11  A    between atoms: O8_29  and  C22_30
REMARK   12  A    between atoms: C22_30  and  C23_32
REMARK   13  A    between atoms: C23_32  and  O10_33
REMARK   14  A    between atoms: C23_32  and  C24_34
REMARK   15  A    between atoms: C24_34  and  N1_35
REMARK   16  A    between atoms: C24_34  and  C30_43
REMARK   17  A    between atoms: C25_36  and  O12_38
REMARK   18  A    between atoms: O12_38  and  C26_39
REMARK   19  A    between atoms: C26_39  and  C27_40
REMARK   20  A    between atoms: C26_39  and  C28_41
REMARK   21  A    between atoms: C26_39  and  C29_42
REMARK   22  A    between atoms: C36_49  and  C43_58
REMARK   23  A    between atoms: C38_51  and  O13_52
REMARK   24  A    between atoms: C40_55  and  C41_56
REMARK   25  A    between atoms: C40_55  and  C42_57
REMARK                            x       y       z     vdW  Elec       q    Type
REMARK                         _______ _______ _______ _____ _____    ______ ____
ROOT
ATOM      1  C3  UNL     1      74.513  65.083 109.971  0.00  0.00    +0.000 C 
ATOM      2  C4  UNL     1      75.221  66.000 110.949  0.00  0.00    +0.000 C 
ATOM      3  O3  UNL     1      74.159  65.950 111.876  0.00  0.00    +0.000 OA
ATOM      4  C5  UNL     1      73.480  65.005 111.082  0.00  0.00    +0.000 C 
ATOM      5  C6  UNL     1      72.068  65.435 110.681  0.00  0.00    +0.000 C 
ATOM      6  C7  UNL     1      72.064  66.814 110.029  0.00  0.00    +0.000 C 
ATOM      7  C8  UNL     1      72.934  66.908 108.709  0.00  0.00    +0.000 C 
ATOM      8  C9  UNL     1      73.631  68.316 108.773  0.00  0.00    +0.000 C 
ATOM      9  C10 UNL     1      73.999  65.694 108.603  0.00  0.00    +0.000 C 
ATOM     10  C11 UNL     1      75.152  65.897 107.524  0.00  0.00    +0.000 C 
ATOM     11  C19 UNL     1      75.030  65.168 106.102  0.00  0.00    +0.000 C 
ATOM     12  C20 UNL     1      75.187  63.616 106.254  0.00  0.00    +0.000 C 
ATOM     13  C21 UNL     1      73.892  62.759 106.270  0.00  0.00    +0.000 C 
ATOM     14  C36 UNL     1      72.583  63.528 106.332  0.00  0.00    +0.000 C 
ATOM     15  C37 UNL     1      72.528  64.881 106.072  0.00  0.00    +0.000 C 
ATOM     16  C38 UNL     1      71.438  65.793 106.675  0.00  0.00    +0.000 C 
ATOM     17  C39 UNL     1      71.983  66.975 107.471  0.00  0.00    +0.000 C 
ATOM     18  O14 UNL     1      71.507  68.062 107.169  0.00  0.00    +0.000 OA
ATOM     19  C40 UNL     1      73.710  65.497 105.292  0.00  0.00    +0.000 C 
ATOM     20  C41 UNL     1      73.569  67.023 104.990  0.00  0.00    +0.000 C 
ATOM     21  C42 UNL     1      73.737  64.872 103.861  0.00  0.00    +0.000 C 
ATOM     22  C43 UNL     1      71.402  62.714 106.806  0.00  0.00    +0.000 C 
ENDROOT
BRANCH   6  23
ATOM     23  O4  UNL     1      70.726  67.190 109.811  0.00  0.00    +0.000 OA
ATOM     24  H10 UNL     1      70.625  67.361 108.838  0.00  0.00    +0.000 HD
ENDBRANCH   6  23
BRANCH  11  25
ATOM     25  O7  UNL     1      76.138  65.573 105.323  0.00  0.00    +0.000 OA
ATOM     26  H21 UNL     1      76.246  64.968 104.552  0.00  0.00    +0.000 HD
ENDBRANCH  11  25
BRANCH  16  27
ATOM     27  O13 UNL     1      70.526  65.121 107.499  0.00  0.00    +0.000 OA
ATOM     28  H44 UNL     1      70.421  65.660 108.330  0.00  0.00    +0.000 HD
ENDBRANCH  16  27
BRANCH   1  29
ATOM     29  O2  UNL     1      75.252  63.862 109.824  0.00  0.00    +0.000 OA
BRANCH  29  31
ATOM     30  C1  UNL     1      75.414  61.998 111.468  0.00  0.00    +0.000 C 
ATOM     31  C2  UNL     1      74.817  62.599 110.241  0.00  0.00    +0.000 C 
ATOM     32  O1  UNL     1      73.907  61.983 109.619  0.00  0.00    +0.000 OA
ENDBRANCH  29  31
ENDBRANCH   1  29
BRANCH  10  33
ATOM     33  O5  UNL     1      76.417  65.552 108.103  0.00  0.00    +0.000 OA
BRANCH  33  34
ATOM     34  C12 UNL     1      77.669  65.961 107.619  0.00  0.00    +0.000 C 
ATOM     35  O6  UNL     1      77.891  67.175 107.351  0.00  0.00    +0.000 OA
BRANCH  34  36
ATOM     36  C13 UNL     1      78.745  64.961 107.447  0.00  0.00    +0.000 A 
ATOM     37  C14 UNL     1      79.284  64.706 106.173  0.00  0.00    +0.000 A 
ATOM     38  C15 UNL     1      80.292  63.753 106.007  0.00  0.00    +0.000 A 
ATOM     39  C16 UNL     1      80.781  63.051 107.110  0.00  0.00    +0.000 A 
ATOM     40  C17 UNL     1      80.252  63.292 108.379  0.00  0.00    +0.000 A 
ATOM     41  C18 UNL     1      79.245  64.246 108.552  0.00  0.00    +0.000 A 
ENDBRANCH  34  36
ENDBRANCH  33  34
ENDBRANCH  10  33
BRANCH  13  42
ATOM     42  O8  UNL     1      73.871  61.869 105.152  0.00  0.00    +0.000 OA
BRANCH  42  43
ATOM     43  C22 UNL     1      73.751  60.475 105.249  0.00  0.00    +0.000 C 
ATOM     44  O9  UNL     1      74.438  59.817 106.083  0.00  0.00    +0.000 OA
BRANCH  43  45
ATOM     45  C23 UNL     1      72.731  59.762 104.410  0.00  0.00    +0.000 C 
BRANCH  45  46
ATOM     46  O10 UNL     1      72.860  58.378 104.614  0.00  0.00    +0.000 OA
ATOM     47  H26 UNL     1      73.804  58.137 104.443  0.00  0.00    +0.000 HD
ENDBRANCH  45  46
BRANCH  45  48
ATOM     48  C24 UNL     1      72.887  60.135 102.912  0.00  0.00    +0.000 C 
BRANCH  48  49
ATOM     49  C30 UNL     1      71.828  61.115 102.433  0.00  0.00    +0.000 A 
ATOM     50  C31 UNL     1      70.873  61.646 103.321  0.00  0.00    +0.000 A 
ATOM     51  C32 UNL     1      69.891  62.523 102.856  0.00  0.00    +0.000 A 
ATOM     52  C33 UNL     1      69.847  62.880 101.507  0.00  0.00    +0.000 A 
ATOM     53  C34 UNL     1      70.804  62.378 100.623  0.00  0.00    +0.000 A 
ATOM     54  C35 UNL     1      71.788  61.496 101.078  0.00  0.00    +0.000 A 
ENDBRANCH  48  49
BRANCH  48  55
ATOM     55  N1  UNL     1      74.228  60.676 102.652  0.00  0.00    +0.000 N 
ATOM     56  C25 UNL     1      75.280  59.901 102.067  0.00  0.00    +0.000 C 
ATOM     57  O11 UNL     1      75.061  58.710 101.711  0.00  0.00    +0.000 OA
ATOM     58  H28 UNL     1      74.404  61.696 102.795  0.00  0.00    +0.000 HD
BRANCH  56  59
ATOM     59  O12 UNL     1      76.548  60.482 101.906  0.00  0.00    +0.000 OA
BRANCH  59  60
ATOM     60  C26 UNL     1      77.441  60.875 102.959  0.00  0.00    +0.000 C 
ATOM     61  C27 UNL     1      78.866  60.844 102.383  0.00  0.00    +0.000 C 
ATOM     62  C28 UNL     1      77.361  59.883 104.136  0.00  0.00    +0.000 C 
ATOM     63  C29 UNL     1      77.123  62.309 103.433  0.00  0.00    +0.000 C 
ENDBRANCH  59  60
ENDBRANCH  56  59
ENDBRANCH  48  55
ENDBRANCH  45  48
ENDBRANCH  43  45
ENDBRANCH  42  43
ENDBRANCH  13  42
TORSDOF 17
ENDMDL
MODEL 16
REMARK VINA RESULT:      -7.4      2.501      6.104
REMARK  Name = ./S1148.pdb
REMARK  25 active torsions:
REMARK  status: ('A' for Active; 'I' for Inactive)
REMARK    1  A    between atoms: C1_1  and  C2_2
REMARK    2  A    between atoms: C2_2  and  O2_4
REMARK    3  A    between atoms: O2_4  and  C3_5
REMARK    4  A    between atoms: C7_10  and  O4_11
REMARK    5  A    between atoms: C8_12  and  C9_13
REMARK    6  A    between atoms: C11_15  and  O5_16
REMARK    7  A    between atoms: O5_16  and  C12_17
REMARK    8  A    between atoms: C12_17  and  C13_19
REMARK    9  A    between atoms: C19_25  and  O7_26
REMARK   10  A    between atoms: C21_28  and  O8_29
REMARK   11  A    between atoms: O8_29  and  C22_30
REMARK   12  A    between atoms: C22_30  and  C23_32
REMARK   13  A    between atoms: C23_32  and  O10_33
REMARK   14  A    between atoms: C23_32  and  C24_34
REMARK   15  A    between atoms: C24_34  and  N1_35
REMARK   16  A    between atoms: C24_34  and  C30_43
REMARK   17  A    between atoms: C25_36  and  O12_38
REMARK   18  A    between atoms: O12_38  and  C26_39
REMARK   19  A    between atoms: C26_39  and  C27_40
REMARK   20  A    between atoms: C26_39  and  C28_41
REMARK   21  A    between atoms: C26_39  and  C29_42
REMARK   22  A    between atoms: C36_49  and  C43_58
REMARK   23  A    between atoms: C38_51  and  O13_52
REMARK   24  A    between atoms: C40_55  and  C41_56
REMARK   25  A    between atoms: C40_55  and  C42_57
REMARK                            x       y       z     vdW  Elec       q    Type
REMARK                         _______ _______ _______ _____ _____    ______ ____
ROOT
ATOM      1  C3  UNL     1      75.251  64.088 109.230  0.00  0.00    +0.000 C 
ATOM      2  C4  UNL     1      76.347  64.096 110.277  0.00  0.00    +0.000 C 
ATOM      3  O3  UNL     1      75.457  63.753 111.316  0.00  0.00    +0.000 OA
ATOM      4  C5  UNL     1      74.401  63.610 110.394  0.00  0.00    +0.000 C 
ATOM      5  C6  UNL     1      73.186  64.485 110.707  0.00  0.00    +0.000 C 
ATOM      6  C7  UNL     1      73.576  65.949 110.882  0.00  0.00    +0.000 C 
ATOM      7  C8  UNL     1      74.255  66.595 109.605  0.00  0.00    +0.000 C 
ATOM      8  C9  UNL     1      75.396  67.518 110.167  0.00  0.00    +0.000 C 
ATOM      9  C10 UNL     1      74.813  65.468 108.586  0.00  0.00    +0.000 C 
ATOM     10  C11 UNL     1      75.823  66.000 107.476  0.00  0.00    +0.000 C 
ATOM     11  C19 UNL     1      75.282  66.269 105.992  0.00  0.00    +0.000 C 
ATOM     12  C20 UNL     1      74.912  64.922 105.279  0.00  0.00    +0.000 C 
ATOM     13  C21 UNL     1      73.413  64.517 105.239  0.00  0.00    +0.000 C 
ATOM     14  C36 UNL     1      72.468  65.371 106.069  0.00  0.00    +0.000 C 
ATOM     15  C37 UNL     1      72.851  66.600 106.563  0.00  0.00    +0.000 C 
ATOM     16  C38 UNL     1      72.226  67.207 107.837  0.00  0.00    +0.000 C 
ATOM     17  C39 UNL     1      73.239  67.564 108.920  0.00  0.00    +0.000 C 
ATOM     18  O14 UNL     1      73.134  68.699 109.369  0.00  0.00    +0.000 OA
ATOM     19  C40 UNL     1      74.067  67.279 105.895  0.00  0.00    +0.000 C 
ATOM     20  C41 UNL     1      74.424  68.687 106.469  0.00  0.00    +0.000 C 
ATOM     21  C42 UNL     1      73.699  67.604 104.412  0.00  0.00    +0.000 C 
ATOM     22  C43 UNL     1      71.147  64.710 106.387  0.00  0.00    +0.000 C 
ENDROOT
BRANCH   6  23
ATOM     23  O4  UNL     1      72.434  66.659 111.294  0.00  0.00    +0.000 OA
ATOM     24  H10 UNL     1      72.401  66.611 112.285  0.00  0.00    +0.000 HD
ENDBRANCH   6  23
BRANCH  11  25
ATOM     25  O7  UNL     1      76.356  66.798 105.240  0.00  0.00    +0.000 OA
ATOM     26  H21 UNL     1      76.185  67.747 105.032  0.00  0.00    +0.000 HD
ENDBRANCH  11  25
BRANCH  16  27
ATOM     27  O13 UNL     1      71.248  66.400 108.431  0.00  0.00    +0.000 OA
ATOM     28  H44 UNL     1      70.621  67.001 108.918  0.00  0.00    +0.000 HD
ENDBRANCH  16  27
BRANCH   1  29
ATOM     29  O2  UNL     1      75.499  63.050 108.271  0.00  0.00    +0.000 OA
BRANCH  29  31
ATOM     30  C1  UNL     1      75.027  60.686 108.898  0.00  0.00    +0.000 C 
ATOM     31  C2  UNL     1      74.714  61.905 108.098  0.00  0.00    +0.000 C 
ATOM     32  O1  UNL     1      73.728  61.901 107.309  0.00  0.00    +0.000 OA
ENDBRANCH  29  31
ENDBRANCH   1  29
BRANCH  10  33
ATOM     33  O5  UNL     1      76.953  65.122 107.394  0.00  0.00    +0.000 OA
BRANCH  33  34
ATOM     34  C12 UNL     1      78.295  65.529 107.343  0.00  0.00    +0.000 C 
ATOM     35  O6  UNL     1      78.607  66.742 107.506  0.00  0.00    +0.000 OA
BRANCH  34  36
ATOM     36  C13 UNL     1      79.353  64.521 107.120  0.00  0.00    +0.000 A 
ATOM     37  C14 UNL     1      79.831  63.740 108.189  0.00  0.00    +0.000 A 
ATOM     38  C15 UNL     1      80.840  62.796 107.982  0.00  0.00    +0.000 A 
ATOM     39  C16 UNL     1      81.376  62.610 106.707  0.00  0.00    +0.000 A 
ATOM     40  C17 UNL     1      80.912  63.381 105.638  0.00  0.00    +0.000 A 
ATOM     41  C18 UNL     1      79.902  64.326 105.838  0.00  0.00    +0.000 A 
ENDBRANCH  34  36
ENDBRANCH  33  34
ENDBRANCH  10  33
BRANCH  13  42
ATOM     42  O8  UNL     1      72.948  64.462 103.889  0.00  0.00    +0.000 OA
BRANCH  42  43
ATOM     43  C22 UNL     1      72.591  63.283 103.220  0.00  0.00    +0.000 C 
ATOM     44  O9  UNL     1      71.428  62.796 103.329  0.00  0.00    +0.000 OA
BRANCH  43  45
ATOM     45  C23 UNL     1      73.578  62.632 102.293  0.00  0.00    +0.000 C 
BRANCH  45  46
ATOM     46  O10 UNL     1      72.949  62.380 101.064  0.00  0.00    +0.000 OA
ATOM     47  H26 UNL     1      72.167  62.981 100.997  0.00  0.00    +0.000 HD
ENDBRANCH  45  46
BRANCH  45  48
ATOM     48  C24 UNL     1      74.152  61.334 102.919  0.00  0.00    +0.000 C 
BRANCH  48  49
ATOM     49  C30 UNL     1      75.644  61.420 103.196  0.00  0.00    +0.000 A 
ATOM     50  C31 UNL     1      76.322  60.381 103.863  0.00  0.00    +0.000 A 
ATOM     51  C32 UNL     1      77.687  60.491 104.134  0.00  0.00    +0.000 A 
ATOM     52  C33 UNL     1      78.392  61.633 103.747  0.00  0.00    +0.000 A 
ATOM     53  C34 UNL     1      77.735  62.658 103.064  0.00  0.00    +0.000 A 
ATOM     54  C35 UNL     1      76.368  62.558 102.792  0.00  0.00    +0.000 A 
ENDBRANCH  48  49
BRANCH  48  55
ATOM     55  N1  UNL     1      73.430  60.992 104.152  0.00  0.00    +0.000 N 
ATOM     56  C25 UNL     1      72.775  59.733 104.347  0.00  0.00    +0.000 C 
ATOM     57  O11 UNL     1      72.841  58.846 103.452  0.00  0.00    +0.000 OA
ATOM     58  H28 UNL     1      73.480  61.640 104.969  0.00  0.00    +0.000 HD
BRANCH  56  59
ATOM     59  O12 UNL     1      72.061  59.511 105.534  0.00  0.00    +0.000 OA
BRANCH  59  60
ATOM     60  C26 UNL     1      72.335  58.497 106.513  0.00  0.00    +0.000 C 
ATOM     61  C27 UNL     1      71.899  59.052 107.878  0.00  0.00    +0.000 C 
ATOM     62  C28 UNL     1      73.843  58.186 106.562  0.00  0.00    +0.000 C 
ATOM     63  C29 UNL     1      71.525  57.218 106.209  0.00  0.00    +0.000 C 
ENDBRANCH  59  60
ENDBRANCH  56  59
ENDBRANCH  48  55
ENDBRANCH  45  48
ENDBRANCH  43  45
ENDBRANCH  42  43
ENDBRANCH  13  42
TORSDOF 17
ENDMDL
MODEL 17
REMARK VINA RESULT:      -7.3      3.084     11.147
REMARK  Name = ./S1148.pdb
REMARK  25 active torsions:
REMARK  status: ('A' for Active; 'I' for Inactive)
REMARK    1  A    between atoms: C1_1  and  C2_2
REMARK    2  A    between atoms: C2_2  and  O2_4
REMARK    3  A    between atoms: O2_4  and  C3_5
REMARK    4  A    between atoms: C7_10  and  O4_11
REMARK    5  A    between atoms: C8_12  and  C9_13
REMARK    6  A    between atoms: C11_15  and  O5_16
REMARK    7  A    between atoms: O5_16  and  C12_17
REMARK    8  A    between atoms: C12_17  and  C13_19
REMARK    9  A    between atoms: C19_25  and  O7_26
REMARK   10  A    between atoms: C21_28  and  O8_29
REMARK   11  A    between atoms: O8_29  and  C22_30
REMARK   12  A    between atoms: C22_30  and  C23_32
REMARK   13  A    between atoms: C23_32  and  O10_33
REMARK   14  A    between atoms: C23_32  and  C24_34
REMARK   15  A    between atoms: C24_34  and  N1_35
REMARK   16  A    between atoms: C24_34  and  C30_43
REMARK   17  A    between atoms: C25_36  and  O12_38
REMARK   18  A    between atoms: O12_38  and  C26_39
REMARK   19  A    between atoms: C26_39  and  C27_40
REMARK   20  A    between atoms: C26_39  and  C28_41
REMARK   21  A    between atoms: C26_39  and  C29_42
REMARK   22  A    between atoms: C36_49  and  C43_58
REMARK   23  A    between atoms: C38_51  and  O13_52
REMARK   24  A    between atoms: C40_55  and  C41_56
REMARK   25  A    between atoms: C40_55  and  C42_57
REMARK                            x       y       z     vdW  Elec       q    Type
REMARK                         _______ _______ _______ _____ _____    ______ ____
ROOT
ATOM      1  C3  UNL     1      70.824  58.401  99.418  0.00  0.00    +0.000 C 
ATOM      2  C4  UNL     1      70.177  58.115  98.078  0.00  0.00    +0.000 C 
ATOM      3  O3  UNL     1      69.950  56.759  98.394  0.00  0.00    +0.000 OA
ATOM      4  C5  UNL     1      70.432  56.961  99.702  0.00  0.00    +0.000 C 
ATOM      5  C6  UNL     1      71.593  56.040 100.081  0.00  0.00    +0.000 C 
ATOM      6  C7  UNL     1      72.721  56.105  99.057  0.00  0.00    +0.000 C 
ATOM      7  C8  UNL     1      73.355  57.546  98.883  0.00  0.00    +0.000 C 
ATOM      8  C9  UNL     1      73.627  57.694  97.343  0.00  0.00    +0.000 C 
ATOM      9  C10 UNL     1      72.378  58.705  99.454  0.00  0.00    +0.000 C 
ATOM     10  C11 UNL     1      72.747  60.186  99.000  0.00  0.00    +0.000 C 
ATOM     11  C19 UNL     1      73.543  61.139 100.013  0.00  0.00    +0.000 C 
ATOM     12  C20 UNL     1      72.641  61.537 101.231  0.00  0.00    +0.000 C 
ATOM     13  C21 UNL     1      72.841  60.757 102.560  0.00  0.00    +0.000 C 
ATOM     14  C36 UNL     1      73.759  59.548 102.493  0.00  0.00    +0.000 C 
ATOM     15  C37 UNL     1      74.603  59.341 101.422  0.00  0.00    +0.000 C 
ATOM     16  C38 UNL     1      75.077  57.932 101.006  0.00  0.00    +0.000 C 
ATOM     17  C39 UNL     1      74.764  57.572  99.557  0.00  0.00    +0.000 C 
ATOM     18  O14 UNL     1      75.715  57.138  98.918  0.00  0.00    +0.000 OA
ATOM     19  C40 UNL     1      74.923  60.562 100.531  0.00  0.00    +0.000 C 
ATOM     20  C41 UNL     1      75.918  60.274  99.363  0.00  0.00    +0.000 C 
ATOM     21  C42 UNL     1      75.703  61.609 101.388  0.00  0.00    +0.000 C 
ATOM     22  C43 UNL     1      73.579  58.564 103.625  0.00  0.00    +0.000 C 
ENDROOT
BRANCH   6  23
ATOM     23  O4  UNL     1      73.684  55.140  99.406  0.00  0.00    +0.000 OA
ATOM     24  H10 UNL     1      74.016  54.740  98.560  0.00  0.00    +0.000 HD
ENDBRANCH   6  23
BRANCH  11  25
ATOM     25  O7  UNL     1      73.800  62.353  99.336  0.00  0.00    +0.000 OA
ATOM     26  H21 UNL     1      74.451  62.202  98.610  0.00  0.00    +0.000 HD
ENDBRANCH  11  25
BRANCH  16  27
ATOM     27  O13 UNL     1      74.572  56.902 101.810  0.00  0.00    +0.000 OA
ATOM     28  H44 UNL     1      74.394  57.287 102.711  0.00  0.00    +0.000 HD
ENDBRANCH  16  27
BRANCH   1  29
ATOM     29  O2  UNL     1      70.029  59.340 100.155  0.00  0.00    +0.000 OA
BRANCH  29  31
ATOM     30  C1  UNL     1      68.053  60.678  99.441  0.00  0.00    +0.000 C 
ATOM     31  C2  UNL     1      68.637  59.460 100.073  0.00  0.00    +0.000 C 
ATOM     32  O1  UNL     1      67.876  58.542 100.489  0.00  0.00    +0.000 OA
ENDBRANCH  29  31
ENDBRANCH   1  29
BRANCH  10  33
ATOM     33  O5  UNL     1      71.560  60.867  98.574  0.00  0.00    +0.000 OA
BRANCH  33  34
ATOM     34  C12 UNL     1      71.406  61.542  97.353  0.00  0.00    +0.000 C 
ATOM     35  O6  UNL     1      71.944  62.670  97.169  0.00  0.00    +0.000 OA
BRANCH  34  36
ATOM     36  C13 UNL     1      70.625  60.912  96.267  0.00  0.00    +0.000 A 
ATOM     37  C14 UNL     1      71.274  60.197  95.245  0.00  0.00    +0.000 A 
ATOM     38  C15 UNL     1      70.538  59.611  94.211  0.00  0.00    +0.000 A 
ATOM     39  C16 UNL     1      69.147  59.724  94.190  0.00  0.00    +0.000 A 
ATOM     40  C17 UNL     1      68.491  60.434  95.198  0.00  0.00    +0.000 A 
ATOM     41  C18 UNL     1      69.222  61.020  96.236  0.00  0.00    +0.000 A 
ENDBRANCH  34  36
ENDBRANCH  33  34
ENDBRANCH  10  33
BRANCH  13  42
ATOM     42  O8  UNL     1      73.285  61.639 103.592  0.00  0.00    +0.000 OA
BRANCH  42  43
ATOM     43  C22 UNL     1      72.476  62.595 104.222  0.00  0.00    +0.000 C 
ATOM     44  O9  UNL     1      72.853  63.797 104.336  0.00  0.00    +0.000 OA
BRANCH  43  45
ATOM     45  C23 UNL     1      71.104  62.206 104.694  0.00  0.00    +0.000 C 
BRANCH  45  46
ATOM     46  O10 UNL     1      70.185  63.182 104.278  0.00  0.00    +0.000 OA
ATOM     47  H26 UNL     1      69.876  62.936 103.371  0.00  0.00    +0.000 HD
ENDBRANCH  45  46
BRANCH  45  48
ATOM     48  C24 UNL     1      71.081  62.019 106.235  0.00  0.00    +0.000 C 
BRANCH  48  49
ATOM     49  C30 UNL     1      71.659  60.685 106.678  0.00  0.00    +0.000 A 
ATOM     50  C31 UNL     1      71.059  59.469 106.297  0.00  0.00    +0.000 A 
ATOM     51  C32 UNL     1      71.587  58.254 106.737  0.00  0.00    +0.000 A 
ATOM     52  C33 UNL     1      72.715  58.235 107.560  0.00  0.00    +0.000 A 
ATOM     53  C34 UNL     1      73.332  59.433 107.924  0.00  0.00    +0.000 A 
ATOM     54  C35 UNL     1      72.808  60.654 107.491  0.00  0.00    +0.000 A 
ENDBRANCH  48  49
BRANCH  48  55
ATOM     55  N1  UNL     1      71.792  63.120 106.898  0.00  0.00    +0.000 N 
ATOM     56  C25 UNL     1      71.171  64.375 107.204  0.00  0.00    +0.000 C 
ATOM     57  O11 UNL     1      69.951  64.553 106.939  0.00  0.00    +0.000 OA
ATOM     58  H28 UNL     1      72.756  62.959 107.265  0.00  0.00    +0.000 HD
BRANCH  56  59
ATOM     59  O12 UNL     1      71.941  65.393 107.789  0.00  0.00    +0.000 OA
BRANCH  59  60
ATOM     60  C26 UNL     1      71.751  65.954 109.097  0.00  0.00    +0.000 C 
ATOM     61  C27 UNL     1      73.071  66.632 109.497  0.00  0.00    +0.000 C 
ATOM     62  C28 UNL     1      71.432  64.847 110.121  0.00  0.00    +0.000 C 
ATOM     63  C29 UNL     1      70.629  67.015 109.074  0.00  0.00    +0.000 C 
ENDBRANCH  59  60
ENDBRANCH  56  59
ENDBRANCH  48  55
ENDBRANCH  45  48
ENDBRANCH  43  45
ENDBRANCH  42  43
ENDBRANCH  13  42
TORSDOF 17
ENDMDL
MODEL 18
REMARK VINA RESULT:      -7.3      3.121      8.653
REMARK  Name = ./S1148.pdb
REMARK  25 active torsions:
REMARK  status: ('A' for Active; 'I' for Inactive)
REMARK    1  A    between atoms: C1_1  and  C2_2
REMARK    2  A    between atoms: C2_2  and  O2_4
REMARK    3  A    between atoms: O2_4  and  C3_5
REMARK    4  A    between atoms: C7_10  and  O4_11
REMARK    5  A    between atoms: C8_12  and  C9_13
REMARK    6  A    between atoms: C11_15  and  O5_16
REMARK    7  A    between atoms: O5_16  and  C12_17
REMARK    8  A    between atoms: C12_17  and  C13_19
REMARK    9  A    between atoms: C19_25  and  O7_26
REMARK   10  A    between atoms: C21_28  and  O8_29
REMARK   11  A    between atoms: O8_29  and  C22_30
REMARK   12  A    between atoms: C22_30  and  C23_32
REMARK   13  A    between atoms: C23_32  and  O10_33
REMARK   14  A    between atoms: C23_32  and  C24_34
REMARK   15  A    between atoms: C24_34  and  N1_35
REMARK   16  A    between atoms: C24_34  and  C30_43
REMARK   17  A    between atoms: C25_36  and  O12_38
REMARK   18  A    between atoms: O12_38  and  C26_39
REMARK   19  A    between atoms: C26_39  and  C27_40
REMARK   20  A    between atoms: C26_39  and  C28_41
REMARK   21  A    between atoms: C26_39  and  C29_42
REMARK   22  A    between atoms: C36_49  and  C43_58
REMARK   23  A    between atoms: C38_51  and  O13_52
REMARK   24  A    between atoms: C40_55  and  C41_56
REMARK   25  A    between atoms: C40_55  and  C42_57
REMARK                            x       y       z     vdW  Elec       q    Type
REMARK                         _______ _______ _______ _____ _____    ______ ____
ROOT
ATOM      1  C3  UNL     1      73.704  60.870 107.395  0.00  0.00    +0.000 C 
ATOM      2  C4  UNL     1      72.490  60.012 107.687  0.00  0.00    +0.000 C 
ATOM      3  O3  UNL     1      73.258  58.833 107.797  0.00  0.00    +0.000 OA
ATOM      4  C5  UNL     1      74.449  59.570 107.648  0.00  0.00    +0.000 C 
ATOM      5  C6  UNL     1      75.328  59.095 106.489  0.00  0.00    +0.000 C 
ATOM      6  C7  UNL     1      74.547  59.030 105.181  0.00  0.00    +0.000 C 
ATOM      7  C8  UNL     1      73.940  60.419 104.720  0.00  0.00    +0.000 C 
ATOM      8  C9  UNL     1      72.522  60.076 104.134  0.00  0.00    +0.000 C 
ATOM      9  C10 UNL     1      73.867  61.478 105.942  0.00  0.00    +0.000 C 
ATOM     10  C11 UNL     1      72.947  62.751 105.680  0.00  0.00    +0.000 C 
ATOM     11  C19 UNL     1      73.633  64.138 105.260  0.00  0.00    +0.000 C 
ATOM     12  C20 UNL     1      74.451  64.740 106.455  0.00  0.00    +0.000 C 
ATOM     13  C21 UNL     1      75.989  64.528 106.454  0.00  0.00    +0.000 C 
ATOM     14  C36 UNL     1      76.532  63.585 105.392  0.00  0.00    +0.000 C 
ATOM     15  C37 UNL     1      75.768  63.197 104.312  0.00  0.00    +0.000 C 
ATOM     16  C38 UNL     1      75.998  61.859 103.577  0.00  0.00    +0.000 C 
ATOM     17  C39 UNL     1      74.766  60.964 103.510  0.00  0.00    +0.000 C 
ATOM     18  O14 UNL     1      74.498  60.539 102.393  0.00  0.00    +0.000 OA
ATOM     19  C40 UNL     1      74.542  64.071 103.967  0.00  0.00    +0.000 C 
ATOM     20  C41 UNL     1      73.743  63.606 102.708  0.00  0.00    +0.000 C 
ATOM     21  C42 UNL     1      75.048  65.486 103.540  0.00  0.00    +0.000 C 
ATOM     22  C43 UNL     1      77.910  63.040 105.687  0.00  0.00    +0.000 C 
ENDROOT
BRANCH   6  23
ATOM     23  O4  UNL     1      75.383  58.464 104.201  0.00  0.00    +0.000 OA
ATOM     24  H10 UNL     1      74.841  57.794 103.707  0.00  0.00    +0.000 HD
ENDBRANCH   6  23
BRANCH  11  25
ATOM     25  O7  UNL     1      72.595  65.067 105.022  0.00  0.00    +0.000 OA
ATOM     26  H21 UNL     1      72.316  65.024 104.078  0.00  0.00    +0.000 HD
ENDBRANCH  11  25
BRANCH  16  27
ATOM     27  O13 UNL     1      77.043  61.092 104.107  0.00  0.00    +0.000 OA
ATOM     28  H44 UNL     1      77.773  61.074 103.429  0.00  0.00    +0.000 HD
ENDBRANCH  16  27
BRANCH   1  29
ATOM     29  O2  UNL     1      73.894  61.823 108.451  0.00  0.00    +0.000 OA
BRANCH  29  31
ATOM     30  C1  UNL     1      76.185  62.197 109.351  0.00  0.00    +0.000 C 
ATOM     31  C2  UNL     1      74.795  61.685 109.513  0.00  0.00    +0.000 C 
ATOM     32  O1  UNL     1      74.438  61.170 110.610  0.00  0.00    +0.000 OA
ENDBRANCH  29  31
ENDBRANCH   1  29
BRANCH  10  33
ATOM     33  O5  UNL     1      72.114  62.985 106.822  0.00  0.00    +0.000 OA
BRANCH  33  34
ATOM     34  C12 UNL     1      71.039  63.886 106.872  0.00  0.00    +0.000 C 
ATOM     35  O6  UNL     1      70.063  63.769 106.078  0.00  0.00    +0.000 OA
BRANCH  34  36
ATOM     36  C13 UNL     1      71.041  64.967 107.880  0.00  0.00    +0.000 A 
ATOM     37  C14 UNL     1      71.741  64.811 109.091  0.00  0.00    +0.000 A 
ATOM     38  C15 UNL     1      71.734  65.827 110.050  0.00  0.00    +0.000 A 
ATOM     39  C16 UNL     1      71.039  67.014 109.809  0.00  0.00    +0.000 A 
ATOM     40  C17 UNL     1      70.338  67.180 108.613  0.00  0.00    +0.000 A 
ATOM     41  C18 UNL     1      70.343  66.167 107.649  0.00  0.00    +0.000 A 
ENDBRANCH  34  36
ENDBRANCH  33  34
ENDBRANCH  10  33
BRANCH  13  42
ATOM     42  O8  UNL     1      76.665  65.784 106.369  0.00  0.00    +0.000 OA
BRANCH  42  43
ATOM     43  C22 UNL     1      77.230  66.456 107.462  0.00  0.00    +0.000 C 
ATOM     44  O9  UNL     1      78.313  66.062 107.982  0.00  0.00    +0.000 OA
BRANCH  43  45
ATOM     45  C23 UNL     1      76.583  67.713 107.969  0.00  0.00    +0.000 C 
BRANCH  45  46
ATOM     46  O10 UNL     1      77.408  68.284 108.952  0.00  0.00    +0.000 OA
ATOM     47  H26 UNL     1      77.179  69.244 109.014  0.00  0.00    +0.000 HD
ENDBRANCH  45  46
BRANCH  45  48
ATOM     48  C24 UNL     1      75.161  67.422 108.516  0.00  0.00    +0.000 C 
BRANCH  48  49
ATOM     49  C30 UNL     1      75.163  66.996 109.975  0.00  0.00    +0.000 A 
ATOM     50  C31 UNL     1      75.476  65.673 110.346  0.00  0.00    +0.000 A 
ATOM     51  C32 UNL     1      75.446  65.293 111.689  0.00  0.00    +0.000 A 
ATOM     52  C33 UNL     1      75.103  66.220 112.676  0.00  0.00    +0.000 A 
ATOM     53  C34 UNL     1      74.815  67.539 112.321  0.00  0.00    +0.000 A 
ATOM     54  C35 UNL     1      74.839  67.928 110.979  0.00  0.00    +0.000 A 
ENDBRANCH  48  49
BRANCH  48  55
ATOM     55  N1  UNL     1      74.290  68.592 108.336  0.00  0.00    +0.000 N 
ATOM     56  C25 UNL     1      73.363  68.712 107.250  0.00  0.00    +0.000 C 
ATOM     57  O11 UNL     1      73.239  67.768 106.422  0.00  0.00    +0.000 OA
ATOM     58  H28 UNL     1      74.256  69.324 109.080  0.00  0.00    +0.000 HD
BRANCH  56  59
ATOM     59  O12 UNL     1      72.609  69.890 107.123  0.00  0.00    +0.000 OA
BRANCH  59  60
ATOM     60  C26 UNL     1      72.869  70.969 106.213  0.00  0.00    +0.000 C 
ATOM     61  C27 UNL     1      71.980  70.748 104.978  0.00  0.00    +0.000 C 
ATOM     62  C28 UNL     1      74.345  70.960 105.769  0.00  0.00    +0.000 C 
ATOM     63  C29 UNL     1      72.502  72.323 106.858  0.00  0.00    +0.000 C 
ENDBRANCH  59  60
ENDBRANCH  56  59
ENDBRANCH  48  55
ENDBRANCH  45  48
ENDBRANCH  43  45
ENDBRANCH  42  43
ENDBRANCH  13  42
TORSDOF 17
ENDMDL
MODEL 19
REMARK VINA RESULT:      -7.3      2.589      9.803
REMARK  Name = ./S1148.pdb
REMARK  25 active torsions:
REMARK  status: ('A' for Active; 'I' for Inactive)
REMARK    1  A    between atoms: C1_1  and  C2_2
REMARK    2  A    between atoms: C2_2  and  O2_4
REMARK    3  A    between atoms: O2_4  and  C3_5
REMARK    4  A    between atoms: C7_10  and  O4_11
REMARK    5  A    between atoms: C8_12  and  C9_13
REMARK    6  A    between atoms: C11_15  and  O5_16
REMARK    7  A    between atoms: O5_16  and  C12_17
REMARK    8  A    between atoms: C12_17  and  C13_19
REMARK    9  A    between atoms: C19_25  and  O7_26
REMARK   10  A    between atoms: C21_28  and  O8_29
REMARK   11  A    between atoms: O8_29  and  C22_30
REMARK   12  A    between atoms: C22_30  and  C23_32
REMARK   13  A    between atoms: C23_32  and  O10_33
REMARK   14  A    between atoms: C23_32  and  C24_34
REMARK   15  A    between atoms: C24_34  and  N1_35
REMARK   16  A    between atoms: C24_34  and  C30_43
REMARK   17  A    between atoms: C25_36  and  O12_38
REMARK   18  A    between atoms: O12_38  and  C26_39
REMARK   19  A    between atoms: C26_39  and  C27_40
REMARK   20  A    between atoms: C26_39  and  C28_41
REMARK   21  A    between atoms: C26_39  and  C29_42
REMARK   22  A    between atoms: C36_49  and  C43_58
REMARK   23  A    between atoms: C38_51  and  O13_52
REMARK   24  A    between atoms: C40_55  and  C41_56
REMARK   25  A    between atoms: C40_55  and  C42_57
REMARK                            x       y       z     vdW  Elec       q    Type
REMARK                         _______ _______ _______ _____ _____    ______ ____
ROOT
ATOM      1  C3  UNL     1      73.549  58.834 103.550  0.00  0.00    +0.000 C 
ATOM      2  C4  UNL     1      73.123  57.816 102.512  0.00  0.00    +0.000 C 
ATOM      3  O3  UNL     1      74.111  56.890 102.908  0.00  0.00    +0.000 OA
ATOM      4  C5  UNL     1      74.498  57.726 103.974  0.00  0.00    +0.000 C 
ATOM      5  C6  UNL     1      75.980  58.104 103.955  0.00  0.00    +0.000 C 
ATOM      6  C7  UNL     1      76.394  58.692 102.610  0.00  0.00    +0.000 C 
ATOM      7  C8  UNL     1      75.609  60.008 102.210  0.00  0.00    +0.000 C 
ATOM      8  C9  UNL     1      75.350  59.880 100.665  0.00  0.00    +0.000 C 
ATOM      9  C10 UNL     1      74.239  60.172 103.057  0.00  0.00    +0.000 C 
ATOM     10  C11 UNL     1      73.211  61.242 102.480  0.00  0.00    +0.000 C 
ATOM     11  C19 UNL     1      73.138  62.696 103.150  0.00  0.00    +0.000 C 
ATOM     12  C20 UNL     1      72.534  62.616 104.595  0.00  0.00    +0.000 C 
ATOM     13  C21 UNL     1      73.525  62.638 105.791  0.00  0.00    +0.000 C 
ATOM     14  C36 UNL     1      75.000  62.538 105.439  0.00  0.00    +0.000 C 
ATOM     15  C37 UNL     1      75.449  62.735 104.150  0.00  0.00    +0.000 C 
ATOM     16  C38 UNL     1      76.748  62.089 103.622  0.00  0.00    +0.000 C 
ATOM     17  C39 UNL     1      76.557  61.240 102.369  0.00  0.00    +0.000 C 
ATOM     18  O14 UNL     1      77.332  61.491 101.454  0.00  0.00    +0.000 OA
ATOM     19  C40 UNL     1      74.508  63.488 103.184  0.00  0.00    +0.000 C 
ATOM     20  C41 UNL     1      75.091  63.719 101.753  0.00  0.00    +0.000 C 
ATOM     21  C42 UNL     1      74.322  64.946 103.710  0.00  0.00    +0.000 C 
ATOM     22  C43 UNL     1      75.887  62.100 106.581  0.00  0.00    +0.000 C 
ENDROOT
BRANCH   6  23
ATOM     23  O4  UNL     1      77.787  58.890 102.630  0.00  0.00    +0.000 OA
ATOM     24  H10 UNL     1      78.162  58.404 101.849  0.00  0.00    +0.000 HD
ENDBRANCH   6  23
BRANCH  11  25
ATOM     25  O7  UNL     1      72.207  63.458 102.407  0.00  0.00    +0.000 OA
ATOM     26  H21 UNL     1      71.594  62.857 101.921  0.00  0.00    +0.000 HD
ENDBRANCH  11  25
BRANCH  16  27
ATOM     27  O13 UNL     1      77.413  61.295 104.565  0.00  0.00    +0.000 OA
ATOM     28  H44 UNL     1      77.952  60.625 104.063  0.00  0.00    +0.000 HD
ENDBRANCH  16  27
BRANCH   1  29
ATOM     29  O2  UNL     1      72.490  59.039 104.497  0.00  0.00    +0.000 OA
BRANCH  29  31
ATOM     30  C1  UNL     1      71.747  57.507 106.314  0.00  0.00    +0.000 C 
ATOM     31  C2  UNL     1      72.535  58.684 105.849  0.00  0.00    +0.000 C 
ATOM     32  O1  UNL     1      73.258  59.319 106.668  0.00  0.00    +0.000 OA
ENDBRANCH  29  31
ENDBRANCH   1  29
BRANCH  10  33
ATOM     33  O5  UNL     1      71.892  60.682 102.468  0.00  0.00    +0.000 OA
BRANCH  33  34
ATOM     34  C12 UNL     1      70.983  60.769 101.402  0.00  0.00    +0.000 C 
ATOM     35  O6  UNL     1      69.743  60.877 101.620  0.00  0.00    +0.000 OA
BRANCH  34  36
ATOM     36  C13 UNL     1      71.488  60.759 100.013  0.00  0.00    +0.000 A 
ATOM     37  C14 UNL     1      71.905  59.556  99.414  0.00  0.00    +0.000 A 
ATOM     38  C15 UNL     1      72.394  59.547  98.105  0.00  0.00    +0.000 A 
ATOM     39  C16 UNL     1      72.462  60.734  97.374  0.00  0.00    +0.000 A 
ATOM     40  C17 UNL     1      72.054  61.936  97.958  0.00  0.00    +0.000 A 
ATOM     41  C18 UNL     1      71.562  61.950  99.266  0.00  0.00    +0.000 A 
ENDBRANCH  34  36
ENDBRANCH  33  34
ENDBRANCH  10  33
BRANCH  13  42
ATOM     42  O8  UNL     1      73.304  63.796 106.599  0.00  0.00    +0.000 OA
BRANCH  42  43
ATOM     43  C22 UNL     1      72.752  63.770 107.888  0.00  0.00    +0.000 C 
ATOM     44  O9  UNL     1      71.501  63.700 108.062  0.00  0.00    +0.000 OA
BRANCH  43  45
ATOM     45  C23 UNL     1      73.664  63.740 109.081  0.00  0.00    +0.000 C 
BRANCH  45  46
ATOM     46  O10 UNL     1      72.898  63.506 110.234  0.00  0.00    +0.000 OA
ATOM     47  H26 UNL     1      72.153  64.155 110.236  0.00  0.00    +0.000 HD
ENDBRANCH  45  46
BRANCH  45  48
ATOM     48  C24 UNL     1      74.474  65.059 109.192  0.00  0.00    +0.000 C 
BRANCH  48  49
ATOM     49  C30 UNL     1      75.902  64.921 108.689  0.00  0.00    +0.000 A 
ATOM     50  C31 UNL     1      76.322  65.560 107.505  0.00  0.00    +0.000 A 
ATOM     51  C32 UNL     1      77.629  65.398 107.044  0.00  0.00    +0.000 A 
ATOM     52  C33 UNL     1      78.532  64.602 107.751  0.00  0.00    +0.000 A 
ATOM     53  C34 UNL     1      78.133  63.984 108.938  0.00  0.00    +0.000 A 
ATOM     54  C35 UNL     1      76.826  64.136 109.405  0.00  0.00    +0.000 A 
ENDBRANCH  48  49
BRANCH  48  55
ATOM     55  N1  UNL     1      73.792  66.145 108.476  0.00  0.00    +0.000 N 
ATOM     56  C25 UNL     1      73.292  67.317 109.132  0.00  0.00    +0.000 C 
ATOM     57  O11 UNL     1      73.469  67.466 110.372  0.00  0.00    +0.000 OA
ATOM     58  H28 UNL     1      73.758  66.128 107.432  0.00  0.00    +0.000 HD
BRANCH  56  59
ATOM     59  O12 UNL     1      72.602  68.280 108.379  0.00  0.00    +0.000 OA
BRANCH  59  60
ATOM     60  C26 UNL     1      71.264  68.161 107.871  0.00  0.00    +0.000 C 
ATOM     61  C27 UNL     1      70.672  69.578 107.814  0.00  0.00    +0.000 C 
ATOM     62  C28 UNL     1      70.401  67.300 108.814  0.00  0.00    +0.000 C 
ATOM     63  C29 UNL     1      71.276  67.565 106.447  0.00  0.00    +0.000 C 
ENDBRANCH  59  60
ENDBRANCH  56  59
ENDBRANCH  48  55
ENDBRANCH  45  48
ENDBRANCH  43  45
ENDBRANCH  42  43
ENDBRANCH  13  42
TORSDOF 17
ENDMDL
MODEL 20
REMARK VINA RESULT:      -7.3      2.243      6.224
REMARK  Name = ./S1148.pdb
REMARK  25 active torsions:
REMARK  status: ('A' for Active; 'I' for Inactive)
REMARK    1  A    between atoms: C1_1  and  C2_2
REMARK    2  A    between atoms: C2_2  and  O2_4
REMARK    3  A    between atoms: O2_4  and  C3_5
REMARK    4  A    between atoms: C7_10  and  O4_11
REMARK    5  A    between atoms: C8_12  and  C9_13
REMARK    6  A    between atoms: C11_15  and  O5_16
REMARK    7  A    between atoms: O5_16  and  C12_17
REMARK    8  A    between atoms: C12_17  and  C13_19
REMARK    9  A    between atoms: C19_25  and  O7_26
REMARK   10  A    between atoms: C21_28  and  O8_29
REMARK   11  A    between atoms: O8_29  and  C22_30
REMARK   12  A    between atoms: C22_30  and  C23_32
REMARK   13  A    between atoms: C23_32  and  O10_33
REMARK   14  A    between atoms: C23_32  and  C24_34
REMARK   15  A    between atoms: C24_34  and  N1_35
REMARK   16  A    between atoms: C24_34  and  C30_43
REMARK   17  A    between atoms: C25_36  and  O12_38
REMARK   18  A    between atoms: O12_38  and  C26_39
REMARK   19  A    between atoms: C26_39  and  C27_40
REMARK   20  A    between atoms: C26_39  and  C28_41
REMARK   21  A    between atoms: C26_39  and  C29_42
REMARK   22  A    between atoms: C36_49  and  C43_58
REMARK   23  A    between atoms: C38_51  and  O13_52
REMARK   24  A    between atoms: C40_55  and  C41_56
REMARK   25  A    between atoms: C40_55  and  C42_57
REMARK                            x       y       z     vdW  Elec       q    Type
REMARK                         _______ _______ _______ _____ _____    ______ ____
ROOT
ATOM      1  C3  UNL     1      74.795  67.826 108.651  0.00  0.00    +0.000 C 
ATOM      2  C4  UNL     1      74.129  69.173 108.841  0.00  0.00    +0.000 C 
ATOM      3  O3  UNL     1      74.571  69.285 110.176  0.00  0.00    +0.000 OA
ATOM      4  C5  UNL     1      75.315  68.096 110.052  0.00  0.00    +0.000 C 
ATOM      5  C6  UNL     1      74.955  67.031 111.089  0.00  0.00    +0.000 C 
ATOM      6  C7  UNL     1      73.456  66.749 111.109  0.00  0.00    +0.000 C 
ATOM      7  C8  UNL     1      72.879  66.221 109.732  0.00  0.00    +0.000 C 
ATOM      8  C9  UNL     1      71.480  66.921 109.575  0.00  0.00    +0.000 C 
ATOM      9  C10 UNL     1      73.876  66.545 108.499  0.00  0.00    +0.000 C 
ATOM     10  C11 UNL     1      73.233  66.392 107.050  0.00  0.00    +0.000 C 
ATOM     11  C19 UNL     1      73.523  65.064 106.202  0.00  0.00    +0.000 C 
ATOM     12  C20 UNL     1      75.023  65.008 105.747  0.00  0.00    +0.000 C 
ATOM     13  C21 UNL     1      75.992  64.119 106.573  0.00  0.00    +0.000 C 
ATOM     14  C36 UNL     1      75.433  63.541 107.863  0.00  0.00    +0.000 C 
ATOM     15  C37 UNL     1      74.079  63.537 108.125  0.00  0.00    +0.000 C 
ATOM     16  C38 UNL     1      73.518  63.541 109.563  0.00  0.00    +0.000 C 
ATOM     17  C39 UNL     1      72.565  64.695 109.858  0.00  0.00    +0.000 C 
ATOM     18  O14 UNL     1      71.500  64.367 110.366  0.00  0.00    +0.000 OA
ATOM     19  C40 UNL     1      73.128  63.710 106.920  0.00  0.00    +0.000 C 
ATOM     20  C41 UNL     1      71.608  63.653 107.275  0.00  0.00    +0.000 C 
ATOM     21  C42 UNL     1      73.299  62.480 105.974  0.00  0.00    +0.000 C 
ATOM     22  C43 UNL     1      76.483  63.090 108.852  0.00  0.00    +0.000 C 
ENDROOT
BRANCH   6  23
ATOM     23  O4  UNL     1      73.192  65.863 112.170  0.00  0.00    +0.000 OA
ATOM     24  H10 UNL     1      72.497  66.287 112.738  0.00  0.00    +0.000 HD
ENDBRANCH   6  23
BRANCH  11  25
ATOM     25  O7  UNL     1      72.781  65.159 105.002  0.00  0.00    +0.000 OA
ATOM     26  H21 UNL     1      73.085  65.938 104.480  0.00  0.00    +0.000 HD
ENDBRANCH  11  25
BRANCH  16  27
ATOM     27  O13 UNL     1      74.503  63.549 110.559  0.00  0.00    +0.000 OA
ATOM     28  H44 UNL     1      74.164  64.109 111.309  0.00  0.00    +0.000 HD
ENDBRANCH  16  27
BRANCH   1  29
ATOM     29  O2  UNL     1      75.825  67.926 107.656  0.00  0.00    +0.000 OA
BRANCH  29  31
ATOM     30  C1  UNL     1      78.001  69.103 107.940  0.00  0.00    +0.000 C 
ATOM     31  C2  UNL     1      77.199  67.846 107.905  0.00  0.00    +0.000 C 
ATOM     32  O1  UNL     1      77.759  66.738 108.136  0.00  0.00    +0.000 OA
ENDBRANCH  29  31
ENDBRANCH   1  29
BRANCH  10  33
ATOM     33  O5  UNL     1      73.582  67.528 106.248  0.00  0.00    +0.000 OA
BRANCH  33  34
ATOM     34  C12 UNL     1      72.843  68.008 105.156  0.00  0.00    +0.000 C 
ATOM     35  O6  UNL     1      73.178  67.717 103.973  0.00  0.00    +0.000 OA
BRANCH  34  36
ATOM     36  C13 UNL     1      71.646  68.841 105.397  0.00  0.00    +0.000 A 
ATOM     37  C14 UNL     1      71.238  69.796 104.447  0.00  0.00    +0.000 A 
ATOM     38  C15 UNL     1      70.114  70.593 104.679  0.00  0.00    +0.000 A 
ATOM     39  C16 UNL     1      69.378  70.441 105.856  0.00  0.00    +0.000 A 
ATOM     40  C17 UNL     1      69.774  69.500 106.809  0.00  0.00    +0.000 A 
ATOM     41  C18 UNL     1      70.897  68.698 106.580  0.00  0.00    +0.000 A 
ENDBRANCH  34  36
ENDBRANCH  33  34
ENDBRANCH  10  33
BRANCH  13  42
ATOM     42  O8  UNL     1      76.512  63.063 105.763  0.00  0.00    +0.000 OA
BRANCH  42  43
ATOM     43  C22 UNL     1      77.691  63.150 105.008  0.00  0.00    +0.000 C 
ATOM     44  O9  UNL     1      78.827  63.078 105.560  0.00  0.00    +0.000 OA
BRANCH  43  45
ATOM     45  C23 UNL     1      77.604  63.245 103.512  0.00  0.00    +0.000 C 
BRANCH  45  46
ATOM     46  O10 UNL     1      77.162  64.531 103.163  0.00  0.00    +0.000 OA
ATOM     47  H26 UNL     1      77.947  65.131 103.171  0.00  0.00    +0.000 HD
ENDBRANCH  45  46
BRANCH  45  48
ATOM     48  C24 UNL     1      76.670  62.145 102.940  0.00  0.00    +0.000 C 
BRANCH  48  49
ATOM     49  C30 UNL     1      76.980  60.762 103.487  0.00  0.00    +0.000 A 
ATOM     50  C31 UNL     1      78.242  60.166 103.288  0.00  0.00    +0.000 A 
ATOM     51  C32 UNL     1      78.499  58.883 103.773  0.00  0.00    +0.000 A 
ATOM     52  C33 UNL     1      77.508  58.179 104.460  0.00  0.00    +0.000 A 
ATOM     53  C34 UNL     1      76.263  58.769 104.684  0.00  0.00    +0.000 A 
ATOM     54  C35 UNL     1      75.995  60.051 104.198  0.00  0.00    +0.000 A 
ENDBRANCH  48  49
BRANCH  48  55
ATOM     55  N1  UNL     1      75.262  62.482 103.193  0.00  0.00    +0.000 N 
ATOM     56  C25 UNL     1      74.351  62.852 102.152  0.00  0.00    +0.000 C 
ATOM     57  O11 UNL     1      74.738  62.858 100.951  0.00  0.00    +0.000 OA
ATOM     58  H28 UNL     1      74.868  62.345 104.151  0.00  0.00    +0.000 HD
BRANCH  56  59
ATOM     59  O12 UNL     1      73.037  63.212 102.490  0.00  0.00    +0.000 OA
BRANCH  59  60
ATOM     60  C26 UNL     1      71.871  62.384 102.362  0.00  0.00    +0.000 C 
ATOM     61  C27 UNL     1      72.303  60.940 102.663  0.00  0.00    +0.000 C 
ATOM     62  C28 UNL     1      71.316  62.447 100.926  0.00  0.00    +0.000 C 
ATOM     63  C29 UNL     1      70.791  62.807 103.382  0.00  0.00    +0.000 C 
ENDBRANCH  59  60
ENDBRANCH  56  59
ENDBRANCH  48  55
ENDBRANCH  45  48
ENDBRANCH  43  45
ENDBRANCH  42  43
ENDBRANCH  13  42
TORSDOF 17
ENDMDL
