MODEL 1
REMARK VINA RESULT:      -7.4      0.000      0.000
REMARK  Name = ./S1150.pdb
REMARK  23 active torsions:
REMARK  status: ('A' for Active; 'I' for Inactive)
REMARK    1  A    between atoms: C1_1  and  C2_2
REMARK    2  A    between atoms: C2_2  and  O2_4
REMARK    3  A    between atoms: O2_4  and  C3_5
REMARK    4  A    between atoms: C5_8  and  C6_9
REMARK    5  A    between atoms: C7_10  and  O4_11
REMARK    6  A    between atoms: C11_16  and  O6_17
REMARK    7  A    between atoms: O6_17  and  C12_18
REMARK    8  A    between atoms: C12_18  and  C13_19
REMARK    9  A    between atoms: C15_22  and  O8_23
REMARK   10  A    between atoms: O8_23  and  C16_24
REMARK   11  A    between atoms: C16_24  and  C17_26
REMARK   12  A    between atoms: C23_32  and  O10_33
REMARK   13  A    between atoms: C25_35  and  O11_36
REMARK   14  A    between atoms: O11_36  and  C26_37
REMARK   15  A    between atoms: C26_37  and  C27_39
REMARK   16  A    between atoms: C27_39  and  O13_40
REMARK   17  A    between atoms: C27_39  and  C28_41
REMARK   18  A    between atoms: C28_41  and  N1_42
REMARK   19  A    between atoms: C28_41  and  C36_51
REMARK   20  A    between atoms: C29_43  and  C30_45
REMARK   21  A    between atoms: C42_57  and  C47_62
REMARK   22  A    between atoms: C44_59  and  C45_60
REMARK   23  A    between atoms: C44_59  and  C46_61
REMARK                            x       y       z     vdW  Elec       q    Type
REMARK                         _______ _______ _______ _____ _____    ______ ____
ROOT
ATOM      1  C3  UNL     1      75.278  66.603 106.120  0.00  0.00    +0.000 C 
ATOM      2  C4  UNL     1      74.630  67.327 107.267  0.00  0.00    +0.000 C 
ATOM      3  O3  UNL     1      75.090  68.473 107.496  0.00  0.00    +0.000 OA
ATOM      4  C5  UNL     1      73.392  66.889 108.092  0.00  0.00    +0.000 C 
ATOM      5  C6  UNL     1      73.457  67.604 109.491  0.00  0.00    +0.000 C 
ATOM      6  C7  UNL     1      72.227  67.505 107.267  0.00  0.00    +0.000 C 
ATOM      7  C8  UNL     1      70.937  67.488 108.071  0.00  0.00    +0.000 C 
ATOM      8  C9  UNL     1      70.624  66.148 108.721  0.00  0.00    +0.000 C 
ATOM      9  O5  UNL     1      70.651  66.161 110.154  0.00  0.00    +0.000 OA
ATOM     10  C10 UNL     1      71.340  64.945 110.126  0.00  0.00    +0.000 C 
ATOM     11  C11 UNL     1      71.646  64.993 108.631  0.00  0.00    +0.000 C 
ATOM     12  C14 UNL     1      73.167  65.309 108.271  0.00  0.00    +0.000 C 
ATOM     13  C15 UNL     1      74.221  64.449 109.114  0.00  0.00    +0.000 C 
ATOM     14  C23 UNL     1      75.537  63.773 108.479  0.00  0.00    +0.000 C 
ATOM     15  C24 UNL     1      75.144  62.505 107.623  0.00  0.00    +0.000 C 
ATOM     16  C25 UNL     1      75.188  62.668 106.077  0.00  0.00    +0.000 C 
ATOM     17  C42 UNL     1      75.139  64.124 105.620  0.00  0.00    +0.000 C 
ATOM     18  C43 UNL     1      75.563  65.144 106.433  0.00  0.00    +0.000 C 
ATOM     19  C44 UNL     1      76.421  64.768 107.633  0.00  0.00    +0.000 C 
ATOM     20  C45 UNL     1      77.725  64.080 107.163  0.00  0.00    +0.000 C 
ATOM     21  C46 UNL     1      76.965  65.986 108.442  0.00  0.00    +0.000 C 
ATOM     22  C47 UNL     1      74.587  64.276 104.185  0.00  0.00    +0.000 C 
ENDROOT
BRANCH   6  23
ATOM     23  O4  UNL     1      71.977  66.767 106.092  0.00  0.00    +0.000 OA
ATOM     24  H9  UNL     1      72.546  65.955 106.151  0.00  0.00    +0.000 HD
ENDBRANCH   6  23
BRANCH  14  25
ATOM     25  O10 UNL     1      76.242  63.234 109.564  0.00  0.00    +0.000 OA
ATOM     26  H25 UNL     1      76.345  62.241 109.491  0.00  0.00    +0.000 HD
ENDBRANCH  14  25
BRANCH   1  27
ATOM     27  O2  UNL     1      74.494  66.815 104.926  0.00  0.00    +0.000 OA
BRANCH  27  29
ATOM     28  C1  UNL     1      75.684  68.798 103.932  0.00  0.00    +0.000 C 
ATOM     29  C2  UNL     1      74.439  68.009 104.183  0.00  0.00    +0.000 C 
ATOM     30  O1  UNL     1      73.325  68.494 103.824  0.00  0.00    +0.000 OA
ENDBRANCH  27  29
ENDBRANCH   1  27
BRANCH  11  31
ATOM     31  O6  UNL     1      71.033  63.851 108.032  0.00  0.00    +0.000 OA
BRANCH  31  32
ATOM     32  C12 UNL     1      71.090  63.287 106.730  0.00  0.00    +0.000 C 
ATOM     33  C13 UNL     1      71.653  61.913 106.584  0.00  0.00    +0.000 C 
ATOM     34  O7  UNL     1      70.893  63.940 105.665  0.00  0.00    +0.000 OA
ENDBRANCH  31  32
ENDBRANCH  11  31
BRANCH  13  35
ATOM     35  O8  UNL     1      74.596  65.173 110.278  0.00  0.00    +0.000 OA
BRANCH  35  36
ATOM     36  C16 UNL     1      74.525  64.625 111.593  0.00  0.00    +0.000 C 
ATOM     37  O9  UNL     1      74.134  63.435 111.811  0.00  0.00    +0.000 OA
BRANCH  36  38
ATOM     38  C17 UNL     1      74.867  65.479 112.730  0.00  0.00    +0.000 A 
ATOM     39  C18 UNL     1      74.909  64.888 114.037  0.00  0.00    +0.000 A 
ATOM     40  C19 UNL     1      75.152  65.705 115.151  0.00  0.00    +0.000 A 
ATOM     41  C20 UNL     1      75.307  67.081 114.978  0.00  0.00    +0.000 A 
ATOM     42  C21 UNL     1      75.289  67.674 113.666  0.00  0.00    +0.000 A 
ATOM     43  C22 UNL     1      75.098  66.842 112.562  0.00  0.00    +0.000 A 
ENDBRANCH  36  38
ENDBRANCH  35  36
ENDBRANCH  13  35
BRANCH  16  44
ATOM     44  O11 UNL     1      76.336  62.099 105.500  0.00  0.00    +0.000 OA
BRANCH  44  45
ATOM     45  C26 UNL     1      76.279  61.110 104.541  0.00  0.00    +0.000 C 
ATOM     46  O12 UNL     1      76.550  61.331 103.331  0.00  0.00    +0.000 OA
BRANCH  45  47
ATOM     47  C27 UNL     1      76.010  59.713 105.003  0.00  0.00    +0.000 C 
BRANCH  47  48
ATOM     48  O13 UNL     1      76.904  58.789 104.409  0.00  0.00    +0.000 OA
ATOM     49  H30 UNL     1      77.278  58.204 105.123  0.00  0.00    +0.000 HD
ENDBRANCH  47  48
BRANCH  47  50
ATOM     50  C28 UNL     1      74.535  59.302 104.735  0.00  0.00    +0.000 C 
BRANCH  50  51
ATOM     51  C36 UNL     1      73.813  58.896 106.026  0.00  0.00    +0.000 A 
ATOM     52  C37 UNL     1      72.487  58.374 105.970  0.00  0.00    +0.000 A 
ATOM     53  C38 UNL     1      71.749  58.192 107.128  0.00  0.00    +0.000 A 
ATOM     54  C39 UNL     1      72.375  58.354 108.387  0.00  0.00    +0.000 A 
ATOM     55  C40 UNL     1      73.700  58.764 108.445  0.00  0.00    +0.000 A 
ATOM     56  C41 UNL     1      74.432  58.992 107.273  0.00  0.00    +0.000 A 
ENDBRANCH  50  51
BRANCH  50  57
ATOM     57  N1  UNL     1      73.778  60.362 103.999  0.00  0.00    +0.000 N 
ATOM     58  C29 UNL     1      73.195  60.125 102.720  0.00  0.00    +0.000 C 
ATOM     59  O14 UNL     1      73.643  59.273 101.910  0.00  0.00    +0.000 OA
ATOM     60  H32 UNL     1      73.335  61.069 104.566  0.00  0.00    +0.000 HD
BRANCH  58  61
ATOM     61  C30 UNL     1      72.121  60.988 102.239  0.00  0.00    +0.000 A 
ATOM     62  C31 UNL     1      72.116  61.420 100.919  0.00  0.00    +0.000 A 
ATOM     63  C32 UNL     1      71.072  62.266 100.449  0.00  0.00    +0.000 A 
ATOM     64  C33 UNL     1      70.039  62.634 101.351  0.00  0.00    +0.000 A 
ATOM     65  C34 UNL     1      70.032  62.219 102.674  0.00  0.00    +0.000 A 
ATOM     66  C35 UNL     1      71.115  61.453 103.138  0.00  0.00    +0.000 A 
ENDBRANCH  58  61
ENDBRANCH  50  57
ENDBRANCH  47  50
ENDBRANCH  45  47
ENDBRANCH  44  45
ENDBRANCH  16  44
TORSDOF 17
ENDMDL
MODEL 2
REMARK VINA RESULT:      -7.2      3.351      8.545
REMARK  Name = ./S1150.pdb
REMARK  23 active torsions:
REMARK  status: ('A' for Active; 'I' for Inactive)
REMARK    1  A    between atoms: C1_1  and  C2_2
REMARK    2  A    between atoms: C2_2  and  O2_4
REMARK    3  A    between atoms: O2_4  and  C3_5
REMARK    4  A    between atoms: C5_8  and  C6_9
REMARK    5  A    between atoms: C7_10  and  O4_11
REMARK    6  A    between atoms: C11_16  and  O6_17
REMARK    7  A    between atoms: O6_17  and  C12_18
REMARK    8  A    between atoms: C12_18  and  C13_19
REMARK    9  A    between atoms: C15_22  and  O8_23
REMARK   10  A    between atoms: O8_23  and  C16_24
REMARK   11  A    between atoms: C16_24  and  C17_26
REMARK   12  A    between atoms: C23_32  and  O10_33
REMARK   13  A    between atoms: C25_35  and  O11_36
REMARK   14  A    between atoms: O11_36  and  C26_37
REMARK   15  A    between atoms: C26_37  and  C27_39
REMARK   16  A    between atoms: C27_39  and  O13_40
REMARK   17  A    between atoms: C27_39  and  C28_41
REMARK   18  A    between atoms: C28_41  and  N1_42
REMARK   19  A    between atoms: C28_41  and  C36_51
REMARK   20  A    between atoms: C29_43  and  C30_45
REMARK   21  A    between atoms: C42_57  and  C47_62
REMARK   22  A    between atoms: C44_59  and  C45_60
REMARK   23  A    between atoms: C44_59  and  C46_61
REMARK                            x       y       z     vdW  Elec       q    Type
REMARK                         _______ _______ _______ _____ _____    ______ ____
ROOT
ATOM      1  C3  UNL     1      77.085  65.397 108.460  0.00  0.00    +0.000 C 
ATOM      2  C4  UNL     1      76.507  65.979 107.201  0.00  0.00    +0.000 C 
ATOM      3  O3  UNL     1      77.108  66.989 106.761  0.00  0.00    +0.000 OA
ATOM      4  C5  UNL     1      75.365  65.404 106.324  0.00  0.00    +0.000 C 
ATOM      5  C6  UNL     1      74.723  66.590 105.514  0.00  0.00    +0.000 C 
ATOM      6  C7  UNL     1      76.149  64.490 105.340  0.00  0.00    +0.000 C 
ATOM      7  C8  UNL     1      75.265  64.083 104.172  0.00  0.00    +0.000 C 
ATOM      8  C9  UNL     1      73.895  63.560 104.578  0.00  0.00    +0.000 C 
ATOM      9  O5  UNL     1      72.797  64.385 104.163  0.00  0.00    +0.000 OA
ATOM     10  C10 UNL     1      72.221  64.206 105.424  0.00  0.00    +0.000 C 
ATOM     11  C11 UNL     1      73.467  63.597 106.062  0.00  0.00    +0.000 C 
ATOM     12  C14 UNL     1      74.231  64.555 107.082  0.00  0.00    +0.000 C 
ATOM     13  C15 UNL     1      73.265  65.283 108.130  0.00  0.00    +0.000 C 
ATOM     14  C23 UNL     1      73.605  65.450 109.695  0.00  0.00    +0.000 C 
ATOM     15  C24 UNL     1      73.429  64.071 110.446  0.00  0.00    +0.000 C 
ATOM     16  C25 UNL     1      74.733  63.319 110.836  0.00  0.00    +0.000 C 
ATOM     17  C42 UNL     1      75.953  63.771 110.038  0.00  0.00    +0.000 C 
ATOM     18  C43 UNL     1      76.019  65.019 109.476  0.00  0.00    +0.000 C 
ATOM     19  C44 UNL     1      75.031  66.062 109.976  0.00  0.00    +0.000 C 
ATOM     20  C45 UNL     1      75.233  66.308 111.491  0.00  0.00    +0.000 C 
ATOM     21  C46 UNL     1      75.243  67.489 109.381  0.00  0.00    +0.000 C 
ATOM     22  C47 UNL     1      77.050  62.684 109.969  0.00  0.00    +0.000 C 
ENDROOT
BRANCH   6  23
ATOM     23  O4  UNL     1      76.566  63.296 105.963  0.00  0.00    +0.000 OA
ATOM     24  H9  UNL     1      77.544  63.230 105.804  0.00  0.00    +0.000 HD
ENDBRANCH   6  23
BRANCH  14  25
ATOM     25  O10 UNL     1      72.576  66.245 110.219  0.00  0.00    +0.000 OA
ATOM     26  H25 UNL     1      72.704  67.215 110.008  0.00  0.00    +0.000 HD
ENDBRANCH  14  25
BRANCH   1  27
ATOM     27  O2  UNL     1      77.986  64.323 108.113  0.00  0.00    +0.000 OA
BRANCH  27  29
ATOM     28  C1  UNL     1      80.306  63.528 108.683  0.00  0.00    +0.000 C 
ATOM     29  C2  UNL     1      79.379  64.443 107.948  0.00  0.00    +0.000 C 
ATOM     30  O1  UNL     1      79.868  65.399 107.276  0.00  0.00    +0.000 OA
ENDBRANCH  27  29
ENDBRANCH   1  27
BRANCH  11  31
ATOM     31  O6  UNL     1      73.125  62.281 106.498  0.00  0.00    +0.000 OA
BRANCH  31  32
ATOM     32  C12 UNL     1      73.574  61.464 107.569  0.00  0.00    +0.000 C 
ATOM     33  C13 UNL     1      74.817  60.664 107.367  0.00  0.00    +0.000 C 
ATOM     34  O7  UNL     1      72.888  61.204 108.600  0.00  0.00    +0.000 OA
ENDBRANCH  31  32
ENDBRANCH  11  31
BRANCH  13  35
ATOM     35  O8  UNL     1      72.871  66.546 107.611  0.00  0.00    +0.000 OA
BRANCH  35  36
ATOM     36  C16 UNL     1      71.508  66.947 107.489  0.00  0.00    +0.000 C 
ATOM     37  O9  UNL     1      70.555  66.270 107.989  0.00  0.00    +0.000 OA
BRANCH  36  38
ATOM     38  C17 UNL     1      71.197  68.151 106.720  0.00  0.00    +0.000 A 
ATOM     39  C18 UNL     1      70.119  68.986 107.169  0.00  0.00    +0.000 A 
ATOM     40  C19 UNL     1      69.749  70.100 106.401  0.00  0.00    +0.000 A 
ATOM     41  C20 UNL     1      70.403  70.355 105.194  0.00  0.00    +0.000 A 
ATOM     42  C21 UNL     1      71.499  69.533 104.752  0.00  0.00    +0.000 A 
ATOM     43  C22 UNL     1      71.891  68.459 105.552  0.00  0.00    +0.000 A 
ENDBRANCH  36  38
ENDBRANCH  35  36
ENDBRANCH  13  35
BRANCH  16  44
ATOM     44  O11 UNL     1      75.060  63.463 112.196  0.00  0.00    +0.000 OA
BRANCH  44  45
ATOM     45  C26 UNL     1      74.990  62.421 113.096  0.00  0.00    +0.000 C 
ATOM     46  O12 UNL     1      74.546  61.287 112.776  0.00  0.00    +0.000 OA
BRANCH  45  47
ATOM     47  C27 UNL     1      75.586  62.635 114.451  0.00  0.00    +0.000 C 
BRANCH  47  48
ATOM     48  O13 UNL     1      76.100  61.430 114.987  0.00  0.00    +0.000 OA
ATOM     49  H30 UNL     1      77.091  61.507 115.052  0.00  0.00    +0.000 HD
ENDBRANCH  47  48
BRANCH  47  50
ATOM     50  C28 UNL     1      74.561  63.279 115.426  0.00  0.00    +0.000 C 
BRANCH  50  51
ATOM     51  C36 UNL     1      74.541  64.808 115.304  0.00  0.00    +0.000 A 
ATOM     52  C37 UNL     1      75.647  65.578 115.773  0.00  0.00    +0.000 A 
ATOM     53  C38 UNL     1      75.564  66.958 115.855  0.00  0.00    +0.000 A 
ATOM     54  C39 UNL     1      74.444  67.624 115.302  0.00  0.00    +0.000 A 
ATOM     55  C40 UNL     1      73.409  66.880 114.750  0.00  0.00    +0.000 A 
ATOM     56  C41 UNL     1      73.474  65.481 114.708  0.00  0.00    +0.000 A 
ENDBRANCH  50  51
BRANCH  50  57
ATOM     57  N1  UNL     1      73.190  62.703 115.265  0.00  0.00    +0.000 N 
ATOM     58  C29 UNL     1      72.769  61.542 115.975  0.00  0.00    +0.000 C 
ATOM     59  O14 UNL     1      73.568  60.652 116.367  0.00  0.00    +0.000 OA
ATOM     60  H32 UNL     1      72.462  63.351 114.999  0.00  0.00    +0.000 HD
BRANCH  58  61
ATOM     61  C30 UNL     1      71.346  61.269 116.145  0.00  0.00    +0.000 A 
ATOM     62  C31 UNL     1      70.738  60.260 115.408  0.00  0.00    +0.000 A 
ATOM     63  C32 UNL     1      69.349  59.996 115.569  0.00  0.00    +0.000 A 
ATOM     64  C33 UNL     1      68.616  60.769 116.508  0.00  0.00    +0.000 A 
ATOM     65  C34 UNL     1      69.204  61.784 117.247  0.00  0.00    +0.000 A 
ATOM     66  C35 UNL     1      70.556  62.083 117.011  0.00  0.00    +0.000 A 
ENDBRANCH  58  61
ENDBRANCH  50  57
ENDBRANCH  47  50
ENDBRANCH  45  47
ENDBRANCH  44  45
ENDBRANCH  16  44
TORSDOF 17
ENDMDL
MODEL 3
REMARK VINA RESULT:      -7.1      3.219      9.708
REMARK  Name = ./S1150.pdb
REMARK  23 active torsions:
REMARK  status: ('A' for Active; 'I' for Inactive)
REMARK    1  A    between atoms: C1_1  and  C2_2
REMARK    2  A    between atoms: C2_2  and  O2_4
REMARK    3  A    between atoms: O2_4  and  C3_5
REMARK    4  A    between atoms: C5_8  and  C6_9
REMARK    5  A    between atoms: C7_10  and  O4_11
REMARK    6  A    between atoms: C11_16  and  O6_17
REMARK    7  A    between atoms: O6_17  and  C12_18
REMARK    8  A    between atoms: C12_18  and  C13_19
REMARK    9  A    between atoms: C15_22  and  O8_23
REMARK   10  A    between atoms: O8_23  and  C16_24
REMARK   11  A    between atoms: C16_24  and  C17_26
REMARK   12  A    between atoms: C23_32  and  O10_33
REMARK   13  A    between atoms: C25_35  and  O11_36
REMARK   14  A    between atoms: O11_36  and  C26_37
REMARK   15  A    between atoms: C26_37  and  C27_39
REMARK   16  A    between atoms: C27_39  and  O13_40
REMARK   17  A    between atoms: C27_39  and  C28_41
REMARK   18  A    between atoms: C28_41  and  N1_42
REMARK   19  A    between atoms: C28_41  and  C36_51
REMARK   20  A    between atoms: C29_43  and  C30_45
REMARK   21  A    between atoms: C42_57  and  C47_62
REMARK   22  A    between atoms: C44_59  and  C45_60
REMARK   23  A    between atoms: C44_59  and  C46_61
REMARK                            x       y       z     vdW  Elec       q    Type
REMARK                         _______ _______ _______ _____ _____    ______ ____
ROOT
ATOM      1  C3  UNL     1      75.838  61.490 102.849  0.00  0.00    +0.000 C 
ATOM      2  C4  UNL     1      75.519  61.259 101.398  0.00  0.00    +0.000 C 
ATOM      3  O3  UNL     1      76.042  62.080 100.605  0.00  0.00    +0.000 OA
ATOM      4  C5  UNL     1      74.753  60.066 100.771  0.00  0.00    +0.000 C 
ATOM      5  C6  UNL     1      74.161  60.535  99.392  0.00  0.00    +0.000 C 
ATOM      6  C7  UNL     1      75.903  59.054 100.505  0.00  0.00    +0.000 C 
ATOM      7  C8  UNL     1      75.432  57.941  99.583  0.00  0.00    +0.000 C 
ATOM      8  C9  UNL     1      74.106  57.313  99.990  0.00  0.00    +0.000 C 
ATOM      9  O5  UNL     1      73.035  57.531  99.061  0.00  0.00    +0.000 OA
ATOM     10  C10 UNL     1      72.189  57.796 100.142  0.00  0.00    +0.000 C 
ATOM     11  C11 UNL     1      73.308  57.902 101.174  0.00  0.00    +0.000 C 
ATOM     12  C14 UNL     1      73.615  59.384 101.676  0.00  0.00    +0.000 C 
ATOM     13  C15 UNL     1      72.305  60.218 102.063  0.00  0.00    +0.000 C 
ATOM     14  C23 UNL     1      72.196  61.161 103.364  0.00  0.00    +0.000 C 
ATOM     15  C24 UNL     1      72.056  60.282 104.668  0.00  0.00    +0.000 C 
ATOM     16  C25 UNL     1      73.319  60.170 105.571  0.00  0.00    +0.000 C 
ATOM     17  C42 UNL     1      74.614  60.519 104.843  0.00  0.00    +0.000 C 
ATOM     18  C43 UNL     1      74.621  61.344 103.748  0.00  0.00    +0.000 C 
ATOM     19  C44 UNL     1      73.380  62.191 103.506  0.00  0.00    +0.000 C 
ATOM     20  C45 UNL     1      73.139  63.140 104.704  0.00  0.00    +0.000 C 
ATOM     21  C46 UNL     1      73.505  63.191 102.315  0.00  0.00    +0.000 C 
ATOM     22  C47 UNL     1      75.853  59.859 105.490  0.00  0.00    +0.000 C 
ENDROOT
BRANCH   6  23
ATOM     23  O4  UNL     1      76.333  58.434 101.696  0.00  0.00    +0.000 OA
ATOM     24  H9  UNL     1      75.734  58.772 102.413  0.00  0.00    +0.000 HD
ENDBRANCH   6  23
BRANCH  14  25
ATOM     25  O10 UNL     1      70.951  61.798 103.261  0.00  0.00    +0.000 OA
ATOM     26  H25 UNL     1      70.243  61.330 103.791  0.00  0.00    +0.000 HD
ENDBRANCH  14  25
BRANCH   1  27
ATOM     27  O2  UNL     1      76.960  60.662 103.224  0.00  0.00    +0.000 OA
BRANCH  27  29
ATOM     28  C1  UNL     1      79.014  61.688 104.256  0.00  0.00    +0.000 C 
ATOM     29  C2  UNL     1      78.316  61.021 103.114  0.00  0.00    +0.000 C 
ATOM     30  O1  UNL     1      78.928  60.898 102.011  0.00  0.00    +0.000 OA
ENDBRANCH  27  29
ENDBRANCH   1  27
BRANCH  11  31
ATOM     31  O6  UNL     1      73.083  56.889 102.155  0.00  0.00    +0.000 OA
BRANCH  31  32
ATOM     32  C12 UNL     1      73.252  56.845 103.564  0.00  0.00    +0.000 C 
ATOM     33  C13 UNL     1      74.624  56.603 104.099  0.00  0.00    +0.000 C 
ATOM     34  O7  UNL     1      72.298  56.787 104.392  0.00  0.00    +0.000 OA
ENDBRANCH  31  32
ENDBRANCH  11  31
BRANCH  13  35
ATOM     35  O8  UNL     1      71.860  60.950 100.929  0.00  0.00    +0.000 OA
BRANCH  35  36
ATOM     36  C16 UNL     1      70.537  60.850 100.407  0.00  0.00    +0.000 C 
ATOM     37  O9  UNL     1      69.542  60.539 101.136  0.00  0.00    +0.000 OA
BRANCH  36  38
ATOM     38  C17 UNL     1      70.328  61.064  98.976  0.00  0.00    +0.000 A 
ATOM     39  C18 UNL     1      71.409  61.608  98.204  0.00  0.00    +0.000 A 
ATOM     40  C19 UNL     1      71.203  61.899  96.847  0.00  0.00    +0.000 A 
ATOM     41  C20 UNL     1      69.944  61.697  96.280  0.00  0.00    +0.000 A 
ATOM     42  C21 UNL     1      68.865  61.130  97.045  0.00  0.00    +0.000 A 
ATOM     43  C22 UNL     1      69.098  60.796  98.380  0.00  0.00    +0.000 A 
ENDBRANCH  36  38
ENDBRANCH  35  36
ENDBRANCH  13  35
BRANCH  16  44
ATOM     44  O11 UNL     1      73.254  60.996 106.706  0.00  0.00    +0.000 OA
BRANCH  44  45
ATOM     45  C26 UNL     1      73.097  60.501 107.983  0.00  0.00    +0.000 C 
ATOM     46  O12 UNL     1      72.113  59.785 108.309  0.00  0.00    +0.000 OA
BRANCH  45  47
ATOM     47  C27 UNL     1      74.210  60.728 108.955  0.00  0.00    +0.000 C 
BRANCH  47  48
ATOM     48  O13 UNL     1      74.005  60.007 110.157  0.00  0.00    +0.000 OA
ATOM     49  H30 UNL     1      73.516  60.591 110.798  0.00  0.00    +0.000 HD
ENDBRANCH  47  48
BRANCH  47  50
ATOM     50  C28 UNL     1      74.406  62.242 109.249  0.00  0.00    +0.000 C 
BRANCH  50  51
ATOM     51  C36 UNL     1      75.716  62.773 108.652  0.00  0.00    +0.000 A 
ATOM     52  C37 UNL     1      76.863  62.944 109.483  0.00  0.00    +0.000 A 
ATOM     53  C38 UNL     1      77.985  63.606 109.012  0.00  0.00    +0.000 A 
ATOM     54  C39 UNL     1      78.066  63.955 107.643  0.00  0.00    +0.000 A 
ATOM     55  C40 UNL     1      76.989  63.696 106.806  0.00  0.00    +0.000 A 
ATOM     56  C41 UNL     1      75.836  63.067 107.293  0.00  0.00    +0.000 A 
ENDBRANCH  50  51
BRANCH  50  57
ATOM     57  N1  UNL     1      73.235  63.060 108.803  0.00  0.00    +0.000 N 
ATOM     58  C29 UNL     1      72.700  64.112 109.602  0.00  0.00    +0.000 C 
ATOM     59  O14 UNL     1      72.788  64.132 110.857  0.00  0.00    +0.000 OA
ATOM     60  H32 UNL     1      73.106  63.148 107.806  0.00  0.00    +0.000 HD
BRANCH  58  61
ATOM     61  C30 UNL     1      71.883  65.151 108.984  0.00  0.00    +0.000 A 
ATOM     62  C31 UNL     1      71.317  66.148 109.768  0.00  0.00    +0.000 A 
ATOM     63  C32 UNL     1      70.516  67.160 109.168  0.00  0.00    +0.000 A 
ATOM     64  C33 UNL     1      70.332  67.133 107.761  0.00  0.00    +0.000 A 
ATOM     65  C34 UNL     1      70.882  66.141 106.963  0.00  0.00    +0.000 A 
ATOM     66  C35 UNL     1      71.600  65.106 107.586  0.00  0.00    +0.000 A 
ENDBRANCH  58  61
ENDBRANCH  50  57
ENDBRANCH  47  50
ENDBRANCH  45  47
ENDBRANCH  44  45
ENDBRANCH  16  44
TORSDOF 17
ENDMDL
MODEL 4
REMARK VINA RESULT:      -7.1      2.333      9.146
REMARK  Name = ./S1150.pdb
REMARK  23 active torsions:
REMARK  status: ('A' for Active; 'I' for Inactive)
REMARK    1  A    between atoms: C1_1  and  C2_2
REMARK    2  A    between atoms: C2_2  and  O2_4
REMARK    3  A    between atoms: O2_4  and  C3_5
REMARK    4  A    between atoms: C5_8  and  C6_9
REMARK    5  A    between atoms: C7_10  and  O4_11
REMARK    6  A    between atoms: C11_16  and  O6_17
REMARK    7  A    between atoms: O6_17  and  C12_18
REMARK    8  A    between atoms: C12_18  and  C13_19
REMARK    9  A    between atoms: C15_22  and  O8_23
REMARK   10  A    between atoms: O8_23  and  C16_24
REMARK   11  A    between atoms: C16_24  and  C17_26
REMARK   12  A    between atoms: C23_32  and  O10_33
REMARK   13  A    between atoms: C25_35  and  O11_36
REMARK   14  A    between atoms: O11_36  and  C26_37
REMARK   15  A    between atoms: C26_37  and  C27_39
REMARK   16  A    between atoms: C27_39  and  O13_40
REMARK   17  A    between atoms: C27_39  and  C28_41
REMARK   18  A    between atoms: C28_41  and  N1_42
REMARK   19  A    between atoms: C28_41  and  C36_51
REMARK   20  A    between atoms: C29_43  and  C30_45
REMARK   21  A    between atoms: C42_57  and  C47_62
REMARK   22  A    between atoms: C44_59  and  C45_60
REMARK   23  A    between atoms: C44_59  and  C46_61
REMARK                            x       y       z     vdW  Elec       q    Type
REMARK                         _______ _______ _______ _____ _____    ______ ____
ROOT
ATOM      1  C3  UNL     1      76.489  61.008 103.523  0.00  0.00    +0.000 C 
ATOM      2  C4  UNL     1      75.541  59.867 103.281  0.00  0.00    +0.000 C 
ATOM      3  O3  UNL     1      75.860  59.107 102.334  0.00  0.00    +0.000 OA
ATOM      4  C5  UNL     1      74.318  59.448 104.137  0.00  0.00    +0.000 C 
ATOM      5  C6  UNL     1      73.330  58.641 103.218  0.00  0.00    +0.000 C 
ATOM      6  C7  UNL     1      74.964  58.472 105.159  0.00  0.00    +0.000 C 
ATOM      7  C8  UNL     1      73.893  57.678 105.889  0.00  0.00    +0.000 C 
ATOM      8  C9  UNL     1      72.756  58.525 106.442  0.00  0.00    +0.000 C 
ATOM      9  O5  UNL     1      71.480  58.279 105.834  0.00  0.00    +0.000 OA
ATOM     10  C10 UNL     1      71.263  59.659 105.795  0.00  0.00    +0.000 C 
ATOM     11  C11 UNL     1      72.703  60.038 106.132  0.00  0.00    +0.000 C 
ATOM     12  C14 UNL     1      73.542  60.624 104.909  0.00  0.00    +0.000 C 
ATOM     13  C15 UNL     1      72.764  61.744 104.072  0.00  0.00    +0.000 C 
ATOM     14  C23 UNL     1      73.448  63.103 103.543  0.00  0.00    +0.000 C 
ATOM     15  C24 UNL     1      73.666  64.109 104.741  0.00  0.00    +0.000 C 
ATOM     16  C25 UNL     1      75.123  64.264 105.263  0.00  0.00    +0.000 C 
ATOM     17  C42 UNL     1      76.030  63.099 104.877  0.00  0.00    +0.000 C 
ATOM     18  C43 UNL     1      75.772  62.324 103.776  0.00  0.00    +0.000 C 
ATOM     19  C44 UNL     1      74.792  62.875 102.751  0.00  0.00    +0.000 C 
ATOM     20  C45 UNL     1      75.318  64.209 102.170  0.00  0.00    +0.000 C 
ATOM     21  C46 UNL     1      74.638  61.997 101.470  0.00  0.00    +0.000 C 
ATOM     22  C47 UNL     1      77.226  62.935 105.843  0.00  0.00    +0.000 C 
ENDROOT
BRANCH   6  23
ATOM     23  O4  UNL     1      75.693  59.165 106.147  0.00  0.00    +0.000 OA
ATOM     24  H9  UNL     1      75.760  58.548 106.923  0.00  0.00    +0.000 HD
ENDBRANCH   6  23
BRANCH  14  25
ATOM     25  O10 UNL     1      72.471  63.732 102.757  0.00  0.00    +0.000 OA
ATOM     26  H25 UNL     1      72.673  64.701 102.610  0.00  0.00    +0.000 HD
ENDBRANCH  14  25
BRANCH   1  27
ATOM     27  O2  UNL     1      77.427  60.632 104.555  0.00  0.00    +0.000 OA
BRANCH  27  29
ATOM     28  C1  UNL     1      79.738  60.233 103.639  0.00  0.00    +0.000 C 
ATOM     29  C2  UNL     1      78.528  59.771 104.386  0.00  0.00    +0.000 C 
ATOM     30  O1  UNL     1      78.463  58.561 104.757  0.00  0.00    +0.000 OA
ENDBRANCH  27  29
ENDBRANCH   1  27
BRANCH  11  31
ATOM     31  O6  UNL     1      72.677  60.780 107.351  0.00  0.00    +0.000 OA
BRANCH  31  32
ATOM     32  C12 UNL     1      73.627  61.605 108.008  0.00  0.00    +0.000 C 
ATOM     33  C13 UNL     1      73.223  62.999 108.355  0.00  0.00    +0.000 C 
ATOM     34  O7  UNL     1      74.852  61.317 108.133  0.00  0.00    +0.000 OA
ENDBRANCH  31  32
ENDBRANCH  11  31
BRANCH  13  35
ATOM     35  O8  UNL     1      72.073  61.130 102.992  0.00  0.00    +0.000 OA
BRANCH  35  36
ATOM     36  C16 UNL     1      70.752  61.500 102.602  0.00  0.00    +0.000 C 
ATOM     37  O9  UNL     1      69.872  61.860 103.446  0.00  0.00    +0.000 OA
BRANCH  36  38
ATOM     38  C17 UNL     1      70.387  61.414 101.188  0.00  0.00    +0.000 A 
ATOM     39  C18 UNL     1      69.031  61.084 100.855  0.00  0.00    +0.000 A 
ATOM     40  C19 UNL     1      68.678  60.913  99.508  0.00  0.00    +0.000 A 
ATOM     41  C20 UNL     1      69.656  61.025  98.518  0.00  0.00    +0.000 A 
ATOM     42  C21 UNL     1      71.012  61.378  98.847  0.00  0.00    +0.000 A 
ATOM     43  C22 UNL     1      71.337  61.596 100.187  0.00  0.00    +0.000 A 
ENDBRANCH  36  38
ENDBRANCH  35  36
ENDBRANCH  13  35
BRANCH  16  44
ATOM     44  O11 UNL     1      75.747  65.436 104.802  0.00  0.00    +0.000 OA
BRANCH  44  45
ATOM     45  C26 UNL     1      75.986  66.524 105.614  0.00  0.00    +0.000 C 
ATOM     46  O12 UNL     1      77.152  66.892 105.918  0.00  0.00    +0.000 OA
BRANCH  45  47
ATOM     47  C27 UNL     1      74.810  67.352 106.027  0.00  0.00    +0.000 C 
BRANCH  47  48
ATOM     48  O13 UNL     1      75.005  68.720 105.719  0.00  0.00    +0.000 OA
ATOM     49  H30 UNL     1      74.747  69.265 106.512  0.00  0.00    +0.000 HD
ENDBRANCH  47  48
BRANCH  47  50
ATOM     50  C28 UNL     1      74.490  67.168 107.537  0.00  0.00    +0.000 C 
BRANCH  50  51
ATOM     51  C36 UNL     1      72.988  66.972 107.782  0.00  0.00    +0.000 A 
ATOM     52  C37 UNL     1      72.419  67.311 109.045  0.00  0.00    +0.000 A 
ATOM     53  C38 UNL     1      71.116  66.958 109.351  0.00  0.00    +0.000 A 
ATOM     54  C39 UNL     1      70.283  66.418 108.342  0.00  0.00    +0.000 A 
ATOM     55  C40 UNL     1      70.807  66.181 107.077  0.00  0.00    +0.000 A 
ATOM     56  C41 UNL     1      72.139  66.497 106.781  0.00  0.00    +0.000 A 
ENDBRANCH  50  51
BRANCH  50  57
ATOM     57  N1  UNL     1      75.289  66.063 108.154  0.00  0.00    +0.000 N 
ATOM     58  C29 UNL     1      75.733  66.116 109.507  0.00  0.00    +0.000 C 
ATOM     59  O14 UNL     1      75.947  67.196 110.117  0.00  0.00    +0.000 OA
ATOM     60  H32 UNL     1      75.151  65.142 107.766  0.00  0.00    +0.000 HD
BRANCH  58  61
ATOM     61  C30 UNL     1      76.105  64.886 110.198  0.00  0.00    +0.000 A 
ATOM     62  C31 UNL     1      76.889  63.937 109.555  0.00  0.00    +0.000 A 
ATOM     63  C32 UNL     1      77.249  62.734 110.226  0.00  0.00    +0.000 A 
ATOM     64  C33 UNL     1      76.807  62.544 111.562  0.00  0.00    +0.000 A 
ATOM     65  C34 UNL     1      76.017  63.477 112.217  0.00  0.00    +0.000 A 
ATOM     66  C35 UNL     1      75.605  64.618 111.508  0.00  0.00    +0.000 A 
ENDBRANCH  58  61
ENDBRANCH  50  57
ENDBRANCH  47  50
ENDBRANCH  45  47
ENDBRANCH  44  45
ENDBRANCH  16  44
TORSDOF 17
ENDMDL
MODEL 5
REMARK VINA RESULT:      -7.0      4.597      8.627
REMARK  Name = ./S1150.pdb
REMARK  23 active torsions:
REMARK  status: ('A' for Active; 'I' for Inactive)
REMARK    1  A    between atoms: C1_1  and  C2_2
REMARK    2  A    between atoms: C2_2  and  O2_4
REMARK    3  A    between atoms: O2_4  and  C3_5
REMARK    4  A    between atoms: C5_8  and  C6_9
REMARK    5  A    between atoms: C7_10  and  O4_11
REMARK    6  A    between atoms: C11_16  and  O6_17
REMARK    7  A    between atoms: O6_17  and  C12_18
REMARK    8  A    between atoms: C12_18  and  C13_19
REMARK    9  A    between atoms: C15_22  and  O8_23
REMARK   10  A    between atoms: O8_23  and  C16_24
REMARK   11  A    between atoms: C16_24  and  C17_26
REMARK   12  A    between atoms: C23_32  and  O10_33
REMARK   13  A    between atoms: C25_35  and  O11_36
REMARK   14  A    between atoms: O11_36  and  C26_37
REMARK   15  A    between atoms: C26_37  and  C27_39
REMARK   16  A    between atoms: C27_39  and  O13_40
REMARK   17  A    between atoms: C27_39  and  C28_41
REMARK   18  A    between atoms: C28_41  and  N1_42
REMARK   19  A    between atoms: C28_41  and  C36_51
REMARK   20  A    between atoms: C29_43  and  C30_45
REMARK   21  A    between atoms: C42_57  and  C47_62
REMARK   22  A    between atoms: C44_59  and  C45_60
REMARK   23  A    between atoms: C44_59  and  C46_61
REMARK                            x       y       z     vdW  Elec       q    Type
REMARK                         _______ _______ _______ _____ _____    ______ ____
ROOT
ATOM      1  C3  UNL     1      75.573  61.937 100.964  0.00  0.00    +0.000 C 
ATOM      2  C4  UNL     1      75.624  61.994 102.466  0.00  0.00    +0.000 C 
ATOM      3  O3  UNL     1      76.775  62.116 102.951  0.00  0.00    +0.000 OA
ATOM      4  C5  UNL     1      74.433  62.060 103.456  0.00  0.00    +0.000 C 
ATOM      5  C6  UNL     1      74.920  61.510 104.847  0.00  0.00    +0.000 C 
ATOM      6  C7  UNL     1      74.203  63.593 103.575  0.00  0.00    +0.000 C 
ATOM      7  C8  UNL     1      73.299  63.907 104.756  0.00  0.00    +0.000 C 
ATOM      8  C9  UNL     1      72.034  63.062 104.816  0.00  0.00    +0.000 C 
ATOM      9  O5  UNL     1      71.962  62.177 105.942  0.00  0.00    +0.000 OA
ATOM     10  C10 UNL     1      71.488  61.175 105.091  0.00  0.00    +0.000 C 
ATOM     11  C11 UNL     1      71.826  61.916 103.800  0.00  0.00    +0.000 C 
ATOM     12  C14 UNL     1      73.076  61.331 103.002  0.00  0.00    +0.000 C 
ATOM     13  C15 UNL     1      73.048  59.739 102.838  0.00  0.00    +0.000 C 
ATOM     14  C23 UNL     1      73.431  58.972 101.475  0.00  0.00    +0.000 C 
ATOM     15  C24 UNL     1      72.273  59.131 100.412  0.00  0.00    +0.000 C 
ATOM     16  C25 UNL     1      72.532  60.124  99.244  0.00  0.00    +0.000 C 
ATOM     17  C42 UNL     1      73.637  61.134  99.542  0.00  0.00    +0.000 C 
ATOM     18  C43 UNL     1      74.629  60.863 100.450  0.00  0.00    +0.000 C 
ATOM     19  C44 UNL     1      74.817  59.411 100.864  0.00  0.00    +0.000 C 
ATOM     20  C45 UNL     1      75.171  58.545  99.632  0.00  0.00    +0.000 C 
ATOM     21  C46 UNL     1      76.037  59.161 101.803  0.00  0.00    +0.000 C 
ATOM     22  C47 UNL     1      73.495  62.430  98.712  0.00  0.00    +0.000 C 
ENDROOT
BRANCH   6  23
ATOM     23  O4  UNL     1      73.562  64.110 102.431  0.00  0.00    +0.000 OA
ATOM     24  H9  UNL     1      72.602  63.878 102.525  0.00  0.00    +0.000 HD
ENDBRANCH   6  23
BRANCH  14  25
ATOM     25  O10 UNL     1      73.403  57.607 101.793  0.00  0.00    +0.000 OA
ATOM     26  H25 UNL     1      72.683  57.119 101.297  0.00  0.00    +0.000 HD
ENDBRANCH  14  25
BRANCH   1  27
ATOM     27  O2  UNL     1      75.309  63.260 100.451  0.00  0.00    +0.000 OA
BRANCH  27  29
ATOM     28  C1  UNL     1      77.647  64.121 100.089  0.00  0.00    +0.000 C 
ATOM     29  C2  UNL     1      76.215  64.338 100.459  0.00  0.00    +0.000 C 
ATOM     30  O1  UNL     1      75.861  65.474 100.895  0.00  0.00    +0.000 OA
ENDBRANCH  27  29
ENDBRANCH   1  27
BRANCH  11  31
ATOM     31  O6  UNL     1      70.604  62.118 103.090  0.00  0.00    +0.000 OA
BRANCH  31  32
ATOM     32  C12 UNL     1      70.304  62.395 101.730  0.00  0.00    +0.000 C 
ATOM     33  C13 UNL     1      69.354  61.488 101.022  0.00  0.00    +0.000 C 
ATOM     34  O7  UNL     1      70.938  63.227 101.019  0.00  0.00    +0.000 OA
ENDBRANCH  31  32
ENDBRANCH  11  31
BRANCH  13  35
ATOM     35  O8  UNL     1      73.759  59.142 103.914  0.00  0.00    +0.000 OA
BRANCH  35  36
ATOM     36  C16 UNL     1      73.167  58.211 104.818  0.00  0.00    +0.000 C 
ATOM     37  O9  UNL     1      72.474  57.224 104.416  0.00  0.00    +0.000 OA
BRANCH  36  38
ATOM     38  C17 UNL     1      73.324  58.431 106.255  0.00  0.00    +0.000 A 
ATOM     39  C18 UNL     1      72.261  58.019 107.126  0.00  0.00    +0.000 A 
ATOM     40  C19 UNL     1      72.353  58.295 108.498  0.00  0.00    +0.000 A 
ATOM     41  C20 UNL     1      73.452  59.001 108.989  0.00  0.00    +0.000 A 
ATOM     42  C21 UNL     1      74.532  59.396 108.121  0.00  0.00    +0.000 A 
ATOM     43  C22 UNL     1      74.451  59.069 106.766  0.00  0.00    +0.000 A 
ENDBRANCH  36  38
ENDBRANCH  35  36
ENDBRANCH  13  35
BRANCH  16  44
ATOM     44  O11 UNL     1      72.884  59.479  98.046  0.00  0.00    +0.000 OA
BRANCH  44  45
ATOM     45  C26 UNL     1      71.952  58.929  97.192  0.00  0.00    +0.000 C 
ATOM     46  O12 UNL     1      71.378  57.835  97.440  0.00  0.00    +0.000 OA
BRANCH  45  47
ATOM     47  C27 UNL     1      71.535  59.740  96.006  0.00  0.00    +0.000 C 
BRANCH  47  48
ATOM     48  O13 UNL     1      72.323  60.909  95.874  0.00  0.00    +0.000 OA
ATOM     49  H30 UNL     1      72.756  60.900  94.977  0.00  0.00    +0.000 HD
ENDBRANCH  47  48
BRANCH  47  50
ATOM     50  C28 UNL     1      70.024  60.099  96.070  0.00  0.00    +0.000 C 
BRANCH  50  51
ATOM     51  C36 UNL     1      69.309  59.794  94.747  0.00  0.00    +0.000 A 
ATOM     52  C37 UNL     1      67.887  59.862  94.670  0.00  0.00    +0.000 A 
ATOM     53  C38 UNL     1      67.216  59.399  93.550  0.00  0.00    +0.000 A 
ATOM     54  C39 UNL     1      67.952  59.022  92.402  0.00  0.00    +0.000 A 
ATOM     55  C40 UNL     1      69.340  59.052  92.438  0.00  0.00    +0.000 A 
ATOM     56  C41 UNL     1      70.019  59.478  93.587  0.00  0.00    +0.000 A 
ENDBRANCH  50  51
BRANCH  50  57
ATOM     57  N1  UNL     1      69.334  59.443  97.224  0.00  0.00    +0.000 N 
ATOM     58  C29 UNL     1      68.205  60.030  97.864  0.00  0.00    +0.000 C 
ATOM     59  O14 UNL     1      68.000  61.272  97.887  0.00  0.00    +0.000 OA
ATOM     60  H32 UNL     1      69.398  58.437  97.268  0.00  0.00    +0.000 HD
BRANCH  58  61
ATOM     61  C30 UNL     1      67.305  59.201  98.658  0.00  0.00    +0.000 A 
ATOM     62  C31 UNL     1      67.109  57.867  98.319  0.00  0.00    +0.000 A 
ATOM     63  C32 UNL     1      66.228  57.057  99.089  0.00  0.00    +0.000 A 
ATOM     64  C33 UNL     1      65.580  57.638 100.211  0.00  0.00    +0.000 A 
ATOM     65  C34 UNL     1      65.758  58.968 100.560  0.00  0.00    +0.000 A 
ATOM     66  C35 UNL     1      66.566  59.771  99.737  0.00  0.00    +0.000 A 
ENDBRANCH  58  61
ENDBRANCH  50  57
ENDBRANCH  47  50
ENDBRANCH  45  47
ENDBRANCH  44  45
ENDBRANCH  16  44
TORSDOF 17
ENDMDL
MODEL 6
REMARK VINA RESULT:      -7.0      2.060      4.383
REMARK  Name = ./S1150.pdb
REMARK  23 active torsions:
REMARK  status: ('A' for Active; 'I' for Inactive)
REMARK    1  A    between atoms: C1_1  and  C2_2
REMARK    2  A    between atoms: C2_2  and  O2_4
REMARK    3  A    between atoms: O2_4  and  C3_5
REMARK    4  A    between atoms: C5_8  and  C6_9
REMARK    5  A    between atoms: C7_10  and  O4_11
REMARK    6  A    between atoms: C11_16  and  O6_17
REMARK    7  A    between atoms: O6_17  and  C12_18
REMARK    8  A    between atoms: C12_18  and  C13_19
REMARK    9  A    between atoms: C15_22  and  O8_23
REMARK   10  A    between atoms: O8_23  and  C16_24
REMARK   11  A    between atoms: C16_24  and  C17_26
REMARK   12  A    between atoms: C23_32  and  O10_33
REMARK   13  A    between atoms: C25_35  and  O11_36
REMARK   14  A    between atoms: O11_36  and  C26_37
REMARK   15  A    between atoms: C26_37  and  C27_39
REMARK   16  A    between atoms: C27_39  and  O13_40
REMARK   17  A    between atoms: C27_39  and  C28_41
REMARK   18  A    between atoms: C28_41  and  N1_42
REMARK   19  A    between atoms: C28_41  and  C36_51
REMARK   20  A    between atoms: C29_43  and  C30_45
REMARK   21  A    between atoms: C42_57  and  C47_62
REMARK   22  A    between atoms: C44_59  and  C45_60
REMARK   23  A    between atoms: C44_59  and  C46_61
REMARK                            x       y       z     vdW  Elec       q    Type
REMARK                         _______ _______ _______ _____ _____    ______ ____
ROOT
ATOM      1  C3  UNL     1      77.044  64.066 107.335  0.00  0.00    +0.000 C 
ATOM      2  C4  UNL     1      77.090  65.453 107.914  0.00  0.00    +0.000 C 
ATOM      3  O3  UNL     1      78.232  65.841 108.264  0.00  0.00    +0.000 OA
ATOM      4  C5  UNL     1      75.939  66.488 107.997  0.00  0.00    +0.000 C 
ATOM      5  C6  UNL     1      76.264  67.490 109.164  0.00  0.00    +0.000 C 
ATOM      6  C7  UNL     1      76.084  67.233 106.640  0.00  0.00    +0.000 C 
ATOM      7  C8  UNL     1      75.269  68.516 106.647  0.00  0.00    +0.000 C 
ATOM      8  C9  UNL     1      73.837  68.344 107.134  0.00  0.00    +0.000 C 
ATOM      9  O5  UNL     1      73.541  69.021 108.363  0.00  0.00    +0.000 OA
ATOM     10  C10 UNL     1      72.849  67.884 108.791  0.00  0.00    +0.000 C 
ATOM     11  C11 UNL     1      73.370  66.976 107.680  0.00  0.00    +0.000 C 
ATOM     12  C14 UNL     1      74.451  65.902 108.149  0.00  0.00    +0.000 C 
ATOM     13  C15 UNL     1      74.042  65.114 109.481  0.00  0.00    +0.000 C 
ATOM     14  C23 UNL     1      74.245  63.530 109.683  0.00  0.00    +0.000 C 
ATOM     15  C24 UNL     1      73.172  62.728 108.846  0.00  0.00    +0.000 C 
ATOM     16  C25 UNL     1      73.676  62.040 107.545  0.00  0.00    +0.000 C 
ATOM     17  C42 UNL     1      74.988  62.620 107.024  0.00  0.00    +0.000 C 
ATOM     18  C43 UNL     1      75.875  63.249 107.859  0.00  0.00    +0.000 C 
ATOM     19  C44 UNL     1      75.702  63.026 109.354  0.00  0.00    +0.000 C 
ATOM     20  C45 UNL     1      75.851  61.523 109.691  0.00  0.00    +0.000 C 
ATOM     21  C46 UNL     1      76.816  63.672 110.235  0.00  0.00    +0.000 C 
ATOM     22  C47 UNL     1      75.172  62.398 105.505  0.00  0.00    +0.000 C 
ENDROOT
BRANCH   6  23
ATOM     23  O4  UNL     1      75.600  66.456 105.568  0.00  0.00    +0.000 OA
ATOM     24  H9  UNL     1      76.397  66.198 105.034  0.00  0.00    +0.000 HD
ENDBRANCH   6  23
BRANCH  14  25
ATOM     25  O10 UNL     1      73.884  63.273 111.014  0.00  0.00    +0.000 OA
ATOM     26  H25 UNL     1      74.246  62.398 111.340  0.00  0.00    +0.000 HD
ENDBRANCH  14  25
BRANCH   1  27
ATOM     27  O2  UNL     1      77.113  64.154 105.895  0.00  0.00    +0.000 OA
BRANCH  27  29
ATOM     28  C1  UNL     1      79.583  63.690 105.746  0.00  0.00    +0.000 C 
ATOM     29  C2  UNL     1      78.293  64.128 105.128  0.00  0.00    +0.000 C 
ATOM     30  O1  UNL     1      78.305  64.588 103.948  0.00  0.00    +0.000 OA
ENDBRANCH  27  29
ENDBRANCH   1  27
BRANCH  11  31
ATOM     31  O6  UNL     1      72.241  66.518 106.936  0.00  0.00    +0.000 OA
BRANCH  31  32
ATOM     32  C12 UNL     1      71.999  65.363 106.148  0.00  0.00    +0.000 C 
ATOM     33  C13 UNL     1      70.858  64.480 106.530  0.00  0.00    +0.000 C 
ATOM     34  O7  UNL     1      72.801  64.916 105.277  0.00  0.00    +0.000 OA
ENDBRANCH  31  32
ENDBRANCH  11  31
BRANCH  13  35
ATOM     35  O8  UNL     1      74.576  65.791 110.611  0.00  0.00    +0.000 OA
BRANCH  35  36
ATOM     36  C16 UNL     1      73.829  66.028 111.802  0.00  0.00    +0.000 C 
ATOM     37  O9  UNL     1      72.557  66.042 111.813  0.00  0.00    +0.000 OA
BRANCH  36  38
ATOM     38  C17 UNL     1      74.552  66.313 113.041  0.00  0.00    +0.000 A 
ATOM     39  C18 UNL     1      74.653  65.274 114.025  0.00  0.00    +0.000 A 
ATOM     40  C19 UNL     1      75.270  65.551 115.254  0.00  0.00    +0.000 A 
ATOM     41  C20 UNL     1      75.735  66.840 115.518  0.00  0.00    +0.000 A 
ATOM     42  C21 UNL     1      75.656  67.879 114.525  0.00  0.00    +0.000 A 
ATOM     43  C22 UNL     1      75.087  67.575 113.287  0.00  0.00    +0.000 A 
ENDBRANCH  36  38
ENDBRANCH  35  36
ENDBRANCH  13  35
BRANCH  16  44
ATOM     44  O11 UNL     1      73.875  60.658 107.700  0.00  0.00    +0.000 OA
BRANCH  44  45
ATOM     45  C26 UNL     1      72.837  59.752 107.731  0.00  0.00    +0.000 C 
ATOM     46  O12 UNL     1      72.692  58.929 108.674  0.00  0.00    +0.000 OA
BRANCH  45  47
ATOM     47  C27 UNL     1      71.793  59.858 106.666  0.00  0.00    +0.000 C 
BRANCH  47  48
ATOM     48  O13 UNL     1      70.654  59.076 106.976  0.00  0.00    +0.000 OA
ATOM     49  H30 UNL     1      70.823  58.593 107.830  0.00  0.00    +0.000 HD
ENDBRANCH  47  48
BRANCH  47  50
ATOM     50  C28 UNL     1      72.363  59.472 105.273  0.00  0.00    +0.000 C 
BRANCH  50  51
ATOM     51  C36 UNL     1      72.112  60.569 104.230  0.00  0.00    +0.000 A 
ATOM     52  C37 UNL     1      72.996  60.717 103.121  0.00  0.00    +0.000 A 
ATOM     53  C38 UNL     1      72.904  61.818 102.285  0.00  0.00    +0.000 A 
ATOM     54  C39 UNL     1      71.812  62.708 102.421  0.00  0.00    +0.000 A 
ATOM     55  C40 UNL     1      70.888  62.507 103.439  0.00  0.00    +0.000 A 
ATOM     56  C41 UNL     1      71.008  61.419 104.312  0.00  0.00    +0.000 A 
ENDBRANCH  50  51
BRANCH  50  57
ATOM     57  N1  UNL     1      73.812  59.105 105.337  0.00  0.00    +0.000 N 
ATOM     58  C29 UNL     1      74.270  57.782 105.075  0.00  0.00    +0.000 C 
ATOM     59  O14 UNL     1      73.558  56.761 105.261  0.00  0.00    +0.000 OA
ATOM     60  H32 UNL     1      74.469  59.849 105.152  0.00  0.00    +0.000 HD
BRANCH  58  61
ATOM     61  C30 UNL     1      75.665  57.552 104.712  0.00  0.00    +0.000 A 
ATOM     62  C31 UNL     1      76.584  58.590 104.798  0.00  0.00    +0.000 A 
ATOM     63  C32 UNL     1      77.944  58.371 104.440  0.00  0.00    +0.000 A 
ATOM     64  C33 UNL     1      78.333  57.072 104.019  0.00  0.00    +0.000 A 
ATOM     65  C34 UNL     1      77.428  56.026 103.920  0.00  0.00    +0.000 A 
ATOM     66  C35 UNL     1      76.075  56.286 104.198  0.00  0.00    +0.000 A 
ENDBRANCH  58  61
ENDBRANCH  50  57
ENDBRANCH  47  50
ENDBRANCH  45  47
ENDBRANCH  44  45
ENDBRANCH  16  44
TORSDOF 17
ENDMDL
MODEL 7
REMARK VINA RESULT:      -7.0      2.017      4.058
REMARK  Name = ./S1150.pdb
REMARK  23 active torsions:
REMARK  status: ('A' for Active; 'I' for Inactive)
REMARK    1  A    between atoms: C1_1  and  C2_2
REMARK    2  A    between atoms: C2_2  and  O2_4
REMARK    3  A    between atoms: O2_4  and  C3_5
REMARK    4  A    between atoms: C5_8  and  C6_9
REMARK    5  A    between atoms: C7_10  and  O4_11
REMARK    6  A    between atoms: C11_16  and  O6_17
REMARK    7  A    between atoms: O6_17  and  C12_18
REMARK    8  A    between atoms: C12_18  and  C13_19
REMARK    9  A    between atoms: C15_22  and  O8_23
REMARK   10  A    between atoms: O8_23  and  C16_24
REMARK   11  A    between atoms: C16_24  and  C17_26
REMARK   12  A    between atoms: C23_32  and  O10_33
REMARK   13  A    between atoms: C25_35  and  O11_36
REMARK   14  A    between atoms: O11_36  and  C26_37
REMARK   15  A    between atoms: C26_37  and  C27_39
REMARK   16  A    between atoms: C27_39  and  O13_40
REMARK   17  A    between atoms: C27_39  and  C28_41
REMARK   18  A    between atoms: C28_41  and  N1_42
REMARK   19  A    between atoms: C28_41  and  C36_51
REMARK   20  A    between atoms: C29_43  and  C30_45
REMARK   21  A    between atoms: C42_57  and  C47_62
REMARK   22  A    between atoms: C44_59  and  C45_60
REMARK   23  A    between atoms: C44_59  and  C46_61
REMARK                            x       y       z     vdW  Elec       q    Type
REMARK                         _______ _______ _______ _____ _____    ______ ____
ROOT
ATOM      1  C3  UNL     1      75.767  65.540 106.632  0.00  0.00    +0.000 C 
ATOM      2  C4  UNL     1      75.098  66.715 107.291  0.00  0.00    +0.000 C 
ATOM      3  O3  UNL     1      75.867  67.662 107.588  0.00  0.00    +0.000 OA
ATOM      4  C5  UNL     1      73.581  66.945 107.512  0.00  0.00    +0.000 C 
ATOM      5  C6  UNL     1      73.407  67.943 108.715  0.00  0.00    +0.000 C 
ATOM      6  C7  UNL     1      73.174  67.667 106.197  0.00  0.00    +0.000 C 
ATOM      7  C8  UNL     1      71.794  68.291 106.336  0.00  0.00    +0.000 C 
ATOM      8  C9  UNL     1      70.740  67.352 106.905  0.00  0.00    +0.000 C 
ATOM      9  O5  UNL     1      70.232  67.736 108.190  0.00  0.00    +0.000 OA
ATOM     10  C10 UNL     1      70.315  66.400 108.592  0.00  0.00    +0.000 C 
ATOM     11  C11 UNL     1      71.147  65.945 107.396  0.00  0.00    +0.000 C 
ATOM     12  C14 UNL     1      72.676  65.635 107.726  0.00  0.00    +0.000 C 
ATOM     13  C15 UNL     1      72.884  64.732 109.031  0.00  0.00    +0.000 C 
ATOM     14  C23 UNL     1      73.937  63.517 109.121  0.00  0.00    +0.000 C 
ATOM     15  C24 UNL     1      73.407  62.271 108.309  0.00  0.00    +0.000 C 
ATOM     16  C25 UNL     1      74.088  61.993 106.938  0.00  0.00    +0.000 C 
ATOM     17  C42 UNL     1      74.817  63.207 106.368  0.00  0.00    +0.000 C 
ATOM     18  C43 UNL     1      75.286  64.207 107.181  0.00  0.00    +0.000 C 
ATOM     19  C44 UNL     1      75.397  63.903 108.668  0.00  0.00    +0.000 C 
ATOM     20  C45 UNL     1      76.372  62.725 108.901  0.00  0.00    +0.000 C 
ATOM     21  C46 UNL     1      76.049  65.042 109.511  0.00  0.00    +0.000 C 
ATOM     22  C47 UNL     1      74.957  63.145 104.830  0.00  0.00    +0.000 C 
ENDROOT
BRANCH   6  23
ATOM     23  O4  UNL     1      73.101  66.768 105.113  0.00  0.00    +0.000 OA
ATOM     24  H9  UNL     1      73.721  67.121 104.422  0.00  0.00    +0.000 HD
ENDBRANCH   6  23
BRANCH  14  25
ATOM     25  O10 UNL     1      73.896  63.085 110.455  0.00  0.00    +0.000 OA
ATOM     26  H25 UNL     1      74.208  62.139 110.554  0.00  0.00    +0.000 HD
ENDBRANCH  14  25
BRANCH   1  27
ATOM     27  O2  UNL     1      75.648  65.673 105.198  0.00  0.00    +0.000 OA
BRANCH  27  29
ATOM     28  C1  UNL     1      76.286  66.460 102.894  0.00  0.00    +0.000 C 
ATOM     29  C2  UNL     1      76.556  66.346 104.360  0.00  0.00    +0.000 C 
ATOM     30  O1  UNL     1      77.667  66.757 104.811  0.00  0.00    +0.000 OA
ENDBRANCH  27  29
ENDBRANCH   1  27
BRANCH  11  31
ATOM     31  O6  UNL     1      70.391  64.953 106.701  0.00  0.00    +0.000 OA
BRANCH  31  32
ATOM     32  C12 UNL     1      70.743  63.922 105.791  0.00  0.00    +0.000 C 
ATOM     33  C13 UNL     1      70.155  62.568 106.003  0.00  0.00    +0.000 C 
ATOM     34  O7  UNL     1      71.676  64.013 104.941  0.00  0.00    +0.000 OA
ENDBRANCH  31  32
ENDBRANCH  11  31
BRANCH  13  35
ATOM     35  O8  UNL     1      73.060  65.574 110.163  0.00  0.00    +0.000 OA
BRANCH  35  36
ATOM     36  C16 UNL     1      72.573  65.244 111.462  0.00  0.00    +0.000 C 
ATOM     37  O9  UNL     1      71.522  64.549 111.635  0.00  0.00    +0.000 OA
BRANCH  36  38
ATOM     38  C17 UNL     1      73.280  65.765 112.631  0.00  0.00    +0.000 A 
ATOM     39  C18 UNL     1      74.212  66.840 112.440  0.00  0.00    +0.000 A 
ATOM     40  C19 UNL     1      74.962  67.299 113.532  0.00  0.00    +0.000 A 
ATOM     41  C20 UNL     1      74.823  66.680 114.775  0.00  0.00    +0.000 A 
ATOM     42  C21 UNL     1      73.872  65.618 114.976  0.00  0.00    +0.000 A 
ATOM     43  C22 UNL     1      73.095  65.205 113.892  0.00  0.00    +0.000 A 
ENDBRANCH  36  38
ENDBRANCH  35  36
ENDBRANCH  13  35
BRANCH  16  44
ATOM     44  O11 UNL     1      75.023  60.946 106.995  0.00  0.00    +0.000 OA
BRANCH  44  45
ATOM     45  C26 UNL     1      74.673  59.646 107.292  0.00  0.00    +0.000 C 
ATOM     46  O12 UNL     1      74.849  59.148 108.435  0.00  0.00    +0.000 OA
BRANCH  45  47
ATOM     47  C27 UNL     1      73.945  58.868 106.242  0.00  0.00    +0.000 C 
BRANCH  47  48
ATOM     48  O13 UNL     1      73.675  57.545 106.670  0.00  0.00    +0.000 OA
ATOM     49  H30 UNL     1      74.021  56.912 105.983  0.00  0.00    +0.000 HD
ENDBRANCH  47  48
BRANCH  47  50
ATOM     50  C28 UNL     1      74.725  58.863 104.897  0.00  0.00    +0.000 C 
BRANCH  50  51
ATOM     51  C36 UNL     1      74.029  59.718 103.831  0.00  0.00    +0.000 A 
ATOM     52  C37 UNL     1      74.707  60.042 102.619  0.00  0.00    +0.000 A 
ATOM     53  C38 UNL     1      74.178  60.971 101.739  0.00  0.00    +0.000 A 
ATOM     54  C39 UNL     1      72.870  61.469 101.953  0.00  0.00    +0.000 A 
ATOM     55  C40 UNL     1      72.164  61.076 103.082  0.00  0.00    +0.000 A 
ATOM     56  C41 UNL     1      72.718  60.170 103.995  0.00  0.00    +0.000 A 
ENDBRANCH  50  51
BRANCH  50  57
ATOM     57  N1  UNL     1      76.155  59.270 105.072  0.00  0.00    +0.000 N 
ATOM     58  C29 UNL     1      77.234  58.409 104.721  0.00  0.00    +0.000 C 
ATOM     59  O14 UNL     1      77.139  57.154 104.724  0.00  0.00    +0.000 OA
ATOM     60  H32 UNL     1      76.344  60.260 105.034  0.00  0.00    +0.000 HD
BRANCH  58  61
ATOM     61  C30 UNL     1      78.561  58.966 104.482  0.00  0.00    +0.000 A 
ATOM     62  C31 UNL     1      78.693  60.228 103.915  0.00  0.00    +0.000 A 
ATOM     63  C32 UNL     1      79.986  60.772 103.676  0.00  0.00    +0.000 A 
ATOM     64  C33 UNL     1      81.123  60.006 104.048  0.00  0.00    +0.000 A 
ATOM     65  C34 UNL     1      81.011  58.742 104.607  0.00  0.00    +0.000 A 
ATOM     66  C35 UNL     1      79.727  58.190 104.757  0.00  0.00    +0.000 A 
ENDBRANCH  58  61
ENDBRANCH  50  57
ENDBRANCH  47  50
ENDBRANCH  45  47
ENDBRANCH  44  45
ENDBRANCH  16  44
TORSDOF 17
ENDMDL
MODEL 8
REMARK VINA RESULT:      -7.0      1.858      3.642
REMARK  Name = ./S1150.pdb
REMARK  23 active torsions:
REMARK  status: ('A' for Active; 'I' for Inactive)
REMARK    1  A    between atoms: C1_1  and  C2_2
REMARK    2  A    between atoms: C2_2  and  O2_4
REMARK    3  A    between atoms: O2_4  and  C3_5
REMARK    4  A    between atoms: C5_8  and  C6_9
REMARK    5  A    between atoms: C7_10  and  O4_11
REMARK    6  A    between atoms: C11_16  and  O6_17
REMARK    7  A    between atoms: O6_17  and  C12_18
REMARK    8  A    between atoms: C12_18  and  C13_19
REMARK    9  A    between atoms: C15_22  and  O8_23
REMARK   10  A    between atoms: O8_23  and  C16_24
REMARK   11  A    between atoms: C16_24  and  C17_26
REMARK   12  A    between atoms: C23_32  and  O10_33
REMARK   13  A    between atoms: C25_35  and  O11_36
REMARK   14  A    between atoms: O11_36  and  C26_37
REMARK   15  A    between atoms: C26_37  and  C27_39
REMARK   16  A    between atoms: C27_39  and  O13_40
REMARK   17  A    between atoms: C27_39  and  C28_41
REMARK   18  A    between atoms: C28_41  and  N1_42
REMARK   19  A    between atoms: C28_41  and  C36_51
REMARK   20  A    between atoms: C29_43  and  C30_45
REMARK   21  A    between atoms: C42_57  and  C47_62
REMARK   22  A    between atoms: C44_59  and  C45_60
REMARK   23  A    between atoms: C44_59  and  C46_61
REMARK                            x       y       z     vdW  Elec       q    Type
REMARK                         _______ _______ _______ _____ _____    ______ ____
ROOT
ATOM      1  C3  UNL     1      74.366  67.561 105.915  0.00  0.00    +0.000 C 
ATOM      2  C4  UNL     1      73.934  67.974 107.295  0.00  0.00    +0.000 C 
ATOM      3  O3  UNL     1      74.199  69.163 107.597  0.00  0.00    +0.000 OA
ATOM      4  C5  UNL     1      73.092  67.161 108.311  0.00  0.00    +0.000 C 
ATOM      5  C6  UNL     1      73.401  67.708 109.753  0.00  0.00    +0.000 C 
ATOM      6  C7  UNL     1      71.643  67.567 107.920  0.00  0.00    +0.000 C 
ATOM      7  C8  UNL     1      70.662  67.149 109.004  0.00  0.00    +0.000 C 
ATOM      8  C9  UNL     1      70.821  65.708 109.468  0.00  0.00    +0.000 C 
ATOM      9  O5  UNL     1      71.246  65.566 110.831  0.00  0.00    +0.000 OA
ATOM     10  C10 UNL     1      72.130  64.563 110.422  0.00  0.00    +0.000 C 
ATOM     11  C11 UNL     1      71.988  64.851 108.930  0.00  0.00    +0.000 C 
ATOM     12  C14 UNL     1      73.250  65.563 108.265  0.00  0.00    +0.000 C 
ATOM     13  C15 UNL     1      74.650  64.893 108.658  0.00  0.00    +0.000 C 
ATOM     14  C23 UNL     1      75.843  64.630 107.609  0.00  0.00    +0.000 C 
ATOM     15  C24 UNL     1      75.490  63.410 106.671  0.00  0.00    +0.000 C 
ATOM     16  C25 UNL     1      75.064  63.751 105.215  0.00  0.00    +0.000 C 
ATOM     17  C42 UNL     1      74.596  65.194 105.044  0.00  0.00    +0.000 C 
ATOM     18  C43 UNL     1      75.016  66.187 105.890  0.00  0.00    +0.000 C 
ATOM     19  C44 UNL     1      76.233  65.897 106.756  0.00  0.00    +0.000 C 
ATOM     20  C45 UNL     1      77.464  65.601 105.866  0.00  0.00    +0.000 C 
ATOM     21  C46 UNL     1      76.726  67.112 107.603  0.00  0.00    +0.000 C 
ATOM     22  C47 UNL     1      73.645  65.369 103.838  0.00  0.00    +0.000 C 
ENDROOT
BRANCH   6  23
ATOM     23  O4  UNL     1      71.228  66.927 106.734  0.00  0.00    +0.000 OA
ATOM     24  H9  UNL     1      71.522  65.982 106.815  0.00  0.00    +0.000 HD
ENDBRANCH   6  23
BRANCH  14  25
ATOM     25  O10 UNL     1      76.918  64.158 108.375  0.00  0.00    +0.000 OA
ATOM     26  H25 UNL     1      77.609  63.702 107.814  0.00  0.00    +0.000 HD
ENDBRANCH  14  25
BRANCH   1  27
ATOM     27  O2  UNL     1      73.252  67.711 105.008  0.00  0.00    +0.000 OA
BRANCH  27  29
ATOM     28  C1  UNL     1      71.835  69.776 104.754  0.00  0.00    +0.000 C 
ATOM     29  C2  UNL     1      72.935  68.877 104.286  0.00  0.00    +0.000 C 
ATOM     30  O1  UNL     1      73.489  69.117 103.172  0.00  0.00    +0.000 OA
ENDBRANCH  27  29
ENDBRANCH   1  27
BRANCH  11  31
ATOM     31  O6  UNL     1      71.475  63.670 108.313  0.00  0.00    +0.000 OA
BRANCH  31  32
ATOM     32  C12 UNL     1      71.304  63.275 106.960  0.00  0.00    +0.000 C 
ATOM     33  C13 UNL     1      71.971  62.020 106.506  0.00  0.00    +0.000 C 
ATOM     34  O7  UNL     1      70.804  64.013 106.063  0.00  0.00    +0.000 OA
ENDBRANCH  31  32
ENDBRANCH  11  31
BRANCH  13  35
ATOM     35  O8  UNL     1      75.182  65.551 109.800  0.00  0.00    +0.000 OA
BRANCH  35  36
ATOM     36  C16 UNL     1      75.522  64.867 111.004  0.00  0.00    +0.000 C 
ATOM     37  O9  UNL     1      76.014  63.694 111.002  0.00  0.00    +0.000 OA
BRANCH  36  38
ATOM     38  C17 UNL     1      75.247  65.519 112.284  0.00  0.00    +0.000 A 
ATOM     39  C18 UNL     1      75.372  66.946 112.361  0.00  0.00    +0.000 A 
ATOM     40  C19 UNL     1      75.194  67.584 113.598  0.00  0.00    +0.000 A 
ATOM     41  C20 UNL     1      74.943  66.821 114.739  0.00  0.00    +0.000 A 
ATOM     42  C21 UNL     1      74.795  65.391 114.662  0.00  0.00    +0.000 A 
ATOM     43  C22 UNL     1      74.922  64.775 113.415  0.00  0.00    +0.000 A 
ENDBRANCH  36  38
ENDBRANCH  35  36
ENDBRANCH  13  35
BRANCH  16  44
ATOM     44  O11 UNL     1      76.094  63.544 104.281  0.00  0.00    +0.000 OA
BRANCH  44  45
ATOM     45  C26 UNL     1      76.016  62.602 103.278  0.00  0.00    +0.000 C 
ATOM     46  O12 UNL     1      75.000  62.489 102.541  0.00  0.00    +0.000 OA
BRANCH  45  47
ATOM     47  C27 UNL     1      77.239  61.789 102.994  0.00  0.00    +0.000 C 
BRANCH  47  48
ATOM     48  O13 UNL     1      77.461  61.656 101.601  0.00  0.00    +0.000 OA
ATOM     49  H30 UNL     1      78.429  61.479 101.449  0.00  0.00    +0.000 HD
ENDBRANCH  47  48
BRANCH  47  50
ATOM     50  C28 UNL     1      77.163  60.394 103.675  0.00  0.00    +0.000 C 
BRANCH  50  51
ATOM     51  C36 UNL     1      78.552  59.881 104.078  0.00  0.00    +0.000 A 
ATOM     52  C37 UNL     1      79.645  60.789 104.191  0.00  0.00    +0.000 A 
ATOM     53  C38 UNL     1      80.939  60.322 104.355  0.00  0.00    +0.000 A 
ATOM     54  C39 UNL     1      81.158  58.944 104.593  0.00  0.00    +0.000 A 
ATOM     55  C40 UNL     1      80.080  58.068 104.585  0.00  0.00    +0.000 A 
ATOM     56  C41 UNL     1      78.777  58.536 104.374  0.00  0.00    +0.000 A 
ENDBRANCH  50  51
BRANCH  50  57
ATOM     57  N1  UNL     1      76.222  60.384 104.838  0.00  0.00    +0.000 N 
ATOM     58  C29 UNL     1      75.080  59.532 104.880  0.00  0.00    +0.000 C 
ATOM     59  O14 UNL     1      74.492  59.124 103.845  0.00  0.00    +0.000 OA
ATOM     60  H32 UNL     1      76.612  60.650 105.731  0.00  0.00    +0.000 HD
BRANCH  58  61
ATOM     61  C30 UNL     1      74.453  59.219 106.159  0.00  0.00    +0.000 A 
ATOM     62  C31 UNL     1      73.417  58.295 106.217  0.00  0.00    +0.000 A 
ATOM     63  C32 UNL     1      72.800  57.991 107.463  0.00  0.00    +0.000 A 
ATOM     64  C33 UNL     1      73.282  58.635 108.633  0.00  0.00    +0.000 A 
ATOM     65  C34 UNL     1      74.310  59.565 108.594  0.00  0.00    +0.000 A 
ATOM     66  C35 UNL     1      74.848  59.912 107.343  0.00  0.00    +0.000 A 
ENDBRANCH  58  61
ENDBRANCH  50  57
ENDBRANCH  47  50
ENDBRANCH  45  47
ENDBRANCH  44  45
ENDBRANCH  16  44
TORSDOF 17
ENDMDL
MODEL 9
REMARK VINA RESULT:      -7.0      2.108      3.975
REMARK  Name = ./S1150.pdb
REMARK  23 active torsions:
REMARK  status: ('A' for Active; 'I' for Inactive)
REMARK    1  A    between atoms: C1_1  and  C2_2
REMARK    2  A    between atoms: C2_2  and  O2_4
REMARK    3  A    between atoms: O2_4  and  C3_5
REMARK    4  A    between atoms: C5_8  and  C6_9
REMARK    5  A    between atoms: C7_10  and  O4_11
REMARK    6  A    between atoms: C11_16  and  O6_17
REMARK    7  A    between atoms: O6_17  and  C12_18
REMARK    8  A    between atoms: C12_18  and  C13_19
REMARK    9  A    between atoms: C15_22  and  O8_23
REMARK   10  A    between atoms: O8_23  and  C16_24
REMARK   11  A    between atoms: C16_24  and  C17_26
REMARK   12  A    between atoms: C23_32  and  O10_33
REMARK   13  A    between atoms: C25_35  and  O11_36
REMARK   14  A    between atoms: O11_36  and  C26_37
REMARK   15  A    between atoms: C26_37  and  C27_39
REMARK   16  A    between atoms: C27_39  and  O13_40
REMARK   17  A    between atoms: C27_39  and  C28_41
REMARK   18  A    between atoms: C28_41  and  N1_42
REMARK   19  A    between atoms: C28_41  and  C36_51
REMARK   20  A    between atoms: C29_43  and  C30_45
REMARK   21  A    between atoms: C42_57  and  C47_62
REMARK   22  A    between atoms: C44_59  and  C45_60
REMARK   23  A    between atoms: C44_59  and  C46_61
REMARK                            x       y       z     vdW  Elec       q    Type
REMARK                         _______ _______ _______ _____ _____    ______ ____
ROOT
ATOM      1  C3  UNL     1      76.173  66.602 106.394  0.00  0.00    +0.000 C 
ATOM      2  C4  UNL     1      76.243  66.605 107.896  0.00  0.00    +0.000 C 
ATOM      3  O3  UNL     1      77.311  67.060 108.374  0.00  0.00    +0.000 OA
ATOM      4  C5  UNL     1      75.117  66.251 108.901  0.00  0.00    +0.000 C 
ATOM      5  C6  UNL     1      75.788  65.820 110.257  0.00  0.00    +0.000 C 
ATOM      6  C7  UNL     1      74.423  67.627 109.100  0.00  0.00    +0.000 C 
ATOM      7  C8  UNL     1      73.498  67.589 110.305  0.00  0.00    +0.000 C 
ATOM      8  C9  UNL     1      72.562  66.389 110.336  0.00  0.00    +0.000 C 
ATOM      9  O5  UNL     1      72.799  65.477 111.417  0.00  0.00    +0.000 OA
ATOM     10  C10 UNL     1      72.640  64.416 110.522  0.00  0.00    +0.000 C 
ATOM     11  C11 UNL     1      72.695  65.283 109.266  0.00  0.00    +0.000 C 
ATOM     12  C14 UNL     1      74.044  65.154 108.426  0.00  0.00    +0.000 C 
ATOM     13  C15 UNL     1      74.510  63.642 108.182  0.00  0.00    +0.000 C 
ATOM     14  C23 UNL     1      75.078  63.096 106.778  0.00  0.00    +0.000 C 
ATOM     15  C24 UNL     1      73.901  62.931 105.737  0.00  0.00    +0.000 C 
ATOM     16  C25 UNL     1      73.806  64.006 104.618  0.00  0.00    +0.000 C 
ATOM     17  C42 UNL     1      74.548  65.297 104.955  0.00  0.00    +0.000 C 
ATOM     18  C43 UNL     1      75.598  65.310 105.836  0.00  0.00    +0.000 C 
ATOM     19  C44 UNL     1      76.241  63.973 106.175  0.00  0.00    +0.000 C 
ATOM     20  C45 UNL     1      76.815  63.317 104.896  0.00  0.00    +0.000 C 
ATOM     21  C46 UNL     1      77.502  64.077 107.086  0.00  0.00    +0.000 C 
ATOM     22  C47 UNL     1      73.986  66.519 104.193  0.00  0.00    +0.000 C 
ENDROOT
BRANCH   6  23
ATOM     23  O4  UNL     1      73.623  67.969 107.990  0.00  0.00    +0.000 OA
ATOM     24  H9  UNL     1      73.765  67.251 107.318  0.00  0.00    +0.000 HD
ENDBRANCH   6  23
BRANCH  14  25
ATOM     25  O10 UNL     1      75.486  61.777 107.027  0.00  0.00    +0.000 OA
ATOM     26  H25 UNL     1      74.733  61.125 106.927  0.00  0.00    +0.000 HD
ENDBRANCH  14  25
BRANCH   1  27
ATOM     27  O2  UNL     1      75.496  67.798 105.951  0.00  0.00    +0.000 OA
BRANCH  27  29
ATOM     28  C1  UNL     1      77.213  69.385 105.018  0.00  0.00    +0.000 C 
ATOM     29  C2  UNL     1      76.053  69.089 105.915  0.00  0.00    +0.000 C 
ATOM     30  O1  UNL     1      75.664  69.982 106.725  0.00  0.00    +0.000 OA
ENDBRANCH  27  29
ENDBRANCH   1  27
BRANCH  11  31
ATOM     31  O6  UNL     1      71.453  65.123 108.580  0.00  0.00    +0.000 OA
BRANCH  31  32
ATOM     32  C12 UNL     1      71.045  65.355 107.241  0.00  0.00    +0.000 C 
ATOM     33  C13 UNL     1      70.511  64.201 106.460  0.00  0.00    +0.000 C 
ATOM     34  O7  UNL     1      71.294  66.414 106.596  0.00  0.00    +0.000 OA
ENDBRANCH  31  32
ENDBRANCH  11  31
BRANCH  13  35
ATOM     35  O8  UNL     1      75.401  63.251 109.218  0.00  0.00    +0.000 OA
BRANCH  35  36
ATOM     36  C16 UNL     1      75.132  62.170 110.109  0.00  0.00    +0.000 C 
ATOM     37  O9  UNL     1      74.272  61.271 109.844  0.00  0.00    +0.000 OA
BRANCH  36  38
ATOM     38  C17 UNL     1      75.835  62.124 111.390  0.00  0.00    +0.000 A 
ATOM     39  C18 UNL     1      75.054  62.094 112.594  0.00  0.00    +0.000 A 
ATOM     40  C19 UNL     1      75.706  62.134 113.835  0.00  0.00    +0.000 A 
ATOM     41  C20 UNL     1      77.097  62.245 113.882  0.00  0.00    +0.000 A 
ATOM     42  C21 UNL     1      77.884  62.253 112.677  0.00  0.00    +0.000 A 
ATOM     43  C22 UNL     1      77.225  62.160 111.450  0.00  0.00    +0.000 A 
ENDBRANCH  36  38
ENDBRANCH  35  36
ENDBRANCH  13  35
BRANCH  16  44
ATOM     44  O11 UNL     1      74.310  63.558 103.385  0.00  0.00    +0.000 OA
BRANCH  44  45
ATOM     45  C26 UNL     1      73.526  62.928 102.441  0.00  0.00    +0.000 C 
ATOM     46  O12 UNL     1      72.315  63.227 102.267  0.00  0.00    +0.000 OA
BRANCH  45  47
ATOM     47  C27 UNL     1      74.195  61.955 101.523  0.00  0.00    +0.000 C 
BRANCH  47  48
ATOM     48  O13 UNL     1      73.381  61.655 100.404  0.00  0.00    +0.000 OA
ATOM     49  H30 UNL     1      73.958  61.615  99.593  0.00  0.00    +0.000 HD
ENDBRANCH  47  48
BRANCH  47  50
ATOM     50  C28 UNL     1      74.602  60.656 102.273  0.00  0.00    +0.000 C 
BRANCH  50  51
ATOM     51  C36 UNL     1      76.123  60.545 102.437  0.00  0.00    +0.000 A 
ATOM     52  C37 UNL     1      76.673  59.860 103.561  0.00  0.00    +0.000 A 
ATOM     53  C38 UNL     1      78.030  59.921 103.832  0.00  0.00    +0.000 A 
ATOM     54  C39 UNL     1      78.904  60.515 102.889  0.00  0.00    +0.000 A 
ATOM     55  C40 UNL     1      78.380  61.093 101.741  0.00  0.00    +0.000 A 
ATOM     56  C41 UNL     1      77.002  61.071 101.489  0.00  0.00    +0.000 A 
ENDBRANCH  50  51
BRANCH  50  57
ATOM     57  N1  UNL     1      73.902  60.520 103.588  0.00  0.00    +0.000 N 
ATOM     58  C29 UNL     1      73.308  59.293 104.006  0.00  0.00    +0.000 C 
ATOM     59  O14 UNL     1      72.880  58.429 103.197  0.00  0.00    +0.000 OA
ATOM     60  H32 UNL     1      74.210  61.139 104.323  0.00  0.00    +0.000 HD
BRANCH  58  61
ATOM     61  C30 UNL     1      73.038  59.061 105.420  0.00  0.00    +0.000 A 
ATOM     62  C31 UNL     1      74.065  58.661 106.267  0.00  0.00    +0.000 A 
ATOM     63  C32 UNL     1      73.803  58.428 107.647  0.00  0.00    +0.000 A 
ATOM     64  C33 UNL     1      72.484  58.634 108.130  0.00  0.00    +0.000 A 
ATOM     65  C34 UNL     1      71.445  59.025 107.299  0.00  0.00    +0.000 A 
ATOM     66  C35 UNL     1      71.708  59.168 105.925  0.00  0.00    +0.000 A 
ENDBRANCH  58  61
ENDBRANCH  50  57
ENDBRANCH  47  50
ENDBRANCH  45  47
ENDBRANCH  44  45
ENDBRANCH  16  44
TORSDOF 17
ENDMDL
MODEL 10
REMARK VINA RESULT:      -6.9      2.408      5.958
REMARK  Name = ./S1150.pdb
REMARK  23 active torsions:
REMARK  status: ('A' for Active; 'I' for Inactive)
REMARK    1  A    between atoms: C1_1  and  C2_2
REMARK    2  A    between atoms: C2_2  and  O2_4
REMARK    3  A    between atoms: O2_4  and  C3_5
REMARK    4  A    between atoms: C5_8  and  C6_9
REMARK    5  A    between atoms: C7_10  and  O4_11
REMARK    6  A    between atoms: C11_16  and  O6_17
REMARK    7  A    between atoms: O6_17  and  C12_18
REMARK    8  A    between atoms: C12_18  and  C13_19
REMARK    9  A    between atoms: C15_22  and  O8_23
REMARK   10  A    between atoms: O8_23  and  C16_24
REMARK   11  A    between atoms: C16_24  and  C17_26
REMARK   12  A    between atoms: C23_32  and  O10_33
REMARK   13  A    between atoms: C25_35  and  O11_36
REMARK   14  A    between atoms: O11_36  and  C26_37
REMARK   15  A    between atoms: C26_37  and  C27_39
REMARK   16  A    between atoms: C27_39  and  O13_40
REMARK   17  A    between atoms: C27_39  and  C28_41
REMARK   18  A    between atoms: C28_41  and  N1_42
REMARK   19  A    between atoms: C28_41  and  C36_51
REMARK   20  A    between atoms: C29_43  and  C30_45
REMARK   21  A    between atoms: C42_57  and  C47_62
REMARK   22  A    between atoms: C44_59  and  C45_60
REMARK   23  A    between atoms: C44_59  and  C46_61
REMARK                            x       y       z     vdW  Elec       q    Type
REMARK                         _______ _______ _______ _____ _____    ______ ____
ROOT
ATOM      1  C3  UNL     1      73.470  63.974 107.510  0.00  0.00    +0.000 C 
ATOM      2  C4  UNL     1      72.902  64.720 108.686  0.00  0.00    +0.000 C 
ATOM      3  O3  UNL     1      71.813  64.273 109.120  0.00  0.00    +0.000 OA
ATOM      4  C5  UNL     1      73.564  65.866 109.494  0.00  0.00    +0.000 C 
ATOM      5  C6  UNL     1      72.423  66.701 110.184  0.00  0.00    +0.000 C 
ATOM      6  C7  UNL     1      74.340  65.078 110.586  0.00  0.00    +0.000 C 
ATOM      7  C8  UNL     1      74.793  66.011 111.697  0.00  0.00    +0.000 C 
ATOM      8  C9  UNL     1      75.483  67.276 111.207  0.00  0.00    +0.000 C 
ATOM      9  O5  UNL     1      74.770  68.489 111.485  0.00  0.00    +0.000 OA
ATOM     10  C10 UNL     1      75.067  68.929 110.192  0.00  0.00    +0.000 C 
ATOM     11  C11 UNL     1      75.559  67.573 109.692  0.00  0.00    +0.000 C 
ATOM     12  C14 UNL     1      74.566  66.831 108.690  0.00  0.00    +0.000 C 
ATOM     13  C15 UNL     1      73.998  67.773 107.529  0.00  0.00    +0.000 C 
ATOM     14  C23 UNL     1      73.861  67.316 105.991  0.00  0.00    +0.000 C 
ATOM     15  C24 UNL     1      75.281  67.276 105.302  0.00  0.00    +0.000 C 
ATOM     16  C25 UNL     1      75.899  65.869 105.061  0.00  0.00    +0.000 C 
ATOM     17  C42 UNL     1      75.279  64.780 105.932  0.00  0.00    +0.000 C 
ATOM     18  C43 UNL     1      74.008  64.899 106.432  0.00  0.00    +0.000 C 
ATOM     19  C44 UNL     1      73.105  65.947 105.797  0.00  0.00    +0.000 C 
ATOM     20  C45 UNL     1      72.904  65.640 104.294  0.00  0.00    +0.000 C 
ATOM     21  C46 UNL     1      71.639  65.943 106.332  0.00  0.00    +0.000 C 
ATOM     22  C47 UNL     1      76.232  63.582 106.149  0.00  0.00    +0.000 C 
ENDROOT
BRANCH   6  23
ATOM     23  O4  UNL     1      75.506  64.481 110.063  0.00  0.00    +0.000 OA
ATOM     24  H9  UNL     1      75.437  64.563 109.076  0.00  0.00    +0.000 HD
ENDBRANCH   6  23
BRANCH  14  25
ATOM     25  O10 UNL     1      73.209  68.376 105.342  0.00  0.00    +0.000 OA
ATOM     26  H25 UNL     1      73.855  69.025 104.939  0.00  0.00    +0.000 HD
ENDBRANCH  14  25
BRANCH   1  27
ATOM     27  O2  UNL     1      74.420  62.996 107.987  0.00  0.00    +0.000 OA
BRANCH  27  29
ATOM     28  C1  UNL     1      74.776  60.594 107.324  0.00  0.00    +0.000 C 
ATOM     29  C2  UNL     1      74.152  61.631 108.202  0.00  0.00    +0.000 C 
ATOM     30  O1  UNL     1      73.290  61.270 109.058  0.00  0.00    +0.000 OA
ENDBRANCH  27  29
ENDBRANCH   1  27
BRANCH  11  31
ATOM     31  O6  UNL     1      76.923  67.731 109.299  0.00  0.00    +0.000 OA
BRANCH  31  32
ATOM     32  C12 UNL     1      77.578  67.731 108.040  0.00  0.00    +0.000 C 
ATOM     33  C13 UNL     1      78.202  66.458 107.574  0.00  0.00    +0.000 C 
ATOM     34  O7  UNL     1      77.853  68.775 107.382  0.00  0.00    +0.000 OA
ENDBRANCH  31  32
ENDBRANCH  11  31
BRANCH  13  35
ATOM     35  O8  UNL     1      72.765  68.345 107.947  0.00  0.00    +0.000 OA
BRANCH  35  36
ATOM     36  C16 UNL     1      72.522  69.751 107.956  0.00  0.00    +0.000 C 
ATOM     37  O9  UNL     1      73.388  70.585 108.370  0.00  0.00    +0.000 OA
BRANCH  36  38
ATOM     38  C17 UNL     1      71.215  70.241 107.522  0.00  0.00    +0.000 A 
ATOM     39  C18 UNL     1      70.367  69.352 106.780  0.00  0.00    +0.000 A 
ATOM     40  C19 UNL     1      69.145  69.827 106.283  0.00  0.00    +0.000 A 
ATOM     41  C20 UNL     1      68.791  71.163 106.478  0.00  0.00    +0.000 A 
ATOM     42  C21 UNL     1      69.629  72.052 107.240  0.00  0.00    +0.000 A 
ATOM     43  C22 UNL     1      70.818  71.551 107.774  0.00  0.00    +0.000 A 
ENDBRANCH  36  38
ENDBRANCH  35  36
ENDBRANCH  13  35
BRANCH  16  44
ATOM     44  O11 UNL     1      75.778  65.441 103.727  0.00  0.00    +0.000 OA
BRANCH  44  45
ATOM     45  C26 UNL     1      76.848  64.981 102.990  0.00  0.00    +0.000 C 
ATOM     46  O12 UNL     1      78.028  65.015 103.428  0.00  0.00    +0.000 OA
BRANCH  45  47
ATOM     47  C27 UNL     1      76.553  64.307 101.687  0.00  0.00    +0.000 C 
BRANCH  47  48
ATOM     48  O13 UNL     1      75.812  65.150 100.824  0.00  0.00    +0.000 OA
ATOM     49  H30 UNL     1      75.941  64.838  99.887  0.00  0.00    +0.000 HD
ENDBRANCH  47  48
BRANCH  47  50
ATOM     50  C28 UNL     1      75.818  62.955 101.902  0.00  0.00    +0.000 C 
BRANCH  50  51
ATOM     51  C36 UNL     1      76.756  61.878 102.462  0.00  0.00    +0.000 A 
ATOM     52  C37 UNL     1      76.335  61.058 103.550  0.00  0.00    +0.000 A 
ATOM     53  C38 UNL     1      77.233  60.224 104.196  0.00  0.00    +0.000 A 
ATOM     54  C39 UNL     1      78.532  60.048 103.660  0.00  0.00    +0.000 A 
ATOM     55  C40 UNL     1      78.912  60.770 102.537  0.00  0.00    +0.000 A 
ATOM     56  C41 UNL     1      78.018  61.648 101.911  0.00  0.00    +0.000 A 
ENDBRANCH  50  51
BRANCH  50  57
ATOM     57  N1  UNL     1      74.595  63.105 102.752  0.00  0.00    +0.000 N 
ATOM     58  C29 UNL     1      73.316  62.645 102.326  0.00  0.00    +0.000 C 
ATOM     59  O14 UNL     1      72.991  62.553 101.113  0.00  0.00    +0.000 OA
ATOM     60  H32 UNL     1      74.747  63.139 103.750  0.00  0.00    +0.000 HD
BRANCH  58  61
ATOM     61  C30 UNL     1      72.266  62.399 103.308  0.00  0.00    +0.000 A 
ATOM     62  C31 UNL     1      72.582  61.827 104.534  0.00  0.00    +0.000 A 
ATOM     63  C32 UNL     1      71.559  61.582 105.493  0.00  0.00    +0.000 A 
ATOM     64  C33 UNL     1      70.226  61.953 105.172  0.00  0.00    +0.000 A 
ATOM     65  C34 UNL     1      69.891  62.518 103.951  0.00  0.00    +0.000 A 
ATOM     66  C35 UNL     1      70.903  62.675 102.988  0.00  0.00    +0.000 A 
ENDBRANCH  58  61
ENDBRANCH  50  57
ENDBRANCH  47  50
ENDBRANCH  45  47
ENDBRANCH  44  45
ENDBRANCH  16  44
TORSDOF 17
ENDMDL
MODEL 11
REMARK VINA RESULT:      -6.9      1.737      2.907
REMARK  Name = ./S1150.pdb
REMARK  23 active torsions:
REMARK  status: ('A' for Active; 'I' for Inactive)
REMARK    1  A    between atoms: C1_1  and  C2_2
REMARK    2  A    between atoms: C2_2  and  O2_4
REMARK    3  A    between atoms: O2_4  and  C3_5
REMARK    4  A    between atoms: C5_8  and  C6_9
REMARK    5  A    between atoms: C7_10  and  O4_11
REMARK    6  A    between atoms: C11_16  and  O6_17
REMARK    7  A    between atoms: O6_17  and  C12_18
REMARK    8  A    between atoms: C12_18  and  C13_19
REMARK    9  A    between atoms: C15_22  and  O8_23
REMARK   10  A    between atoms: O8_23  and  C16_24
REMARK   11  A    between atoms: C16_24  and  C17_26
REMARK   12  A    between atoms: C23_32  and  O10_33
REMARK   13  A    between atoms: C25_35  and  O11_36
REMARK   14  A    between atoms: O11_36  and  C26_37
REMARK   15  A    between atoms: C26_37  and  C27_39
REMARK   16  A    between atoms: C27_39  and  O13_40
REMARK   17  A    between atoms: C27_39  and  C28_41
REMARK   18  A    between atoms: C28_41  and  N1_42
REMARK   19  A    between atoms: C28_41  and  C36_51
REMARK   20  A    between atoms: C29_43  and  C30_45
REMARK   21  A    between atoms: C42_57  and  C47_62
REMARK   22  A    between atoms: C44_59  and  C45_60
REMARK   23  A    between atoms: C44_59  and  C46_61
REMARK                            x       y       z     vdW  Elec       q    Type
REMARK                         _______ _______ _______ _____ _____    ______ ____
ROOT
ATOM      1  C3  UNL     1      75.048  66.919 105.998  0.00  0.00    +0.000 C 
ATOM      2  C4  UNL     1      74.427  67.524 107.226  0.00  0.00    +0.000 C 
ATOM      3  O3  UNL     1      74.840  68.674 107.514  0.00  0.00    +0.000 OA
ATOM      4  C5  UNL     1      73.259  66.962 108.077  0.00  0.00    +0.000 C 
ATOM      5  C6  UNL     1      73.363  67.579 109.520  0.00  0.00    +0.000 C 
ATOM      6  C7  UNL     1      72.022  67.570 107.359  0.00  0.00    +0.000 C 
ATOM      7  C8  UNL     1      70.780  67.426 108.223  0.00  0.00    +0.000 C 
ATOM      8  C9  UNL     1      70.571  66.028 108.788  0.00  0.00    +0.000 C 
ATOM      9  O5  UNL     1      70.674  65.942 110.215  0.00  0.00    +0.000 OA
ATOM     10  C10 UNL     1      71.421  64.771 110.064  0.00  0.00    +0.000 C 
ATOM     11  C11 UNL     1      71.644  64.940 108.563  0.00  0.00    +0.000 C 
ATOM     12  C14 UNL     1      73.125  65.363 108.152  0.00  0.00    +0.000 C 
ATOM     13  C15 UNL     1      74.266  64.505 108.875  0.00  0.00    +0.000 C 
ATOM     14  C23 UNL     1      75.578  63.948 108.127  0.00  0.00    +0.000 C 
ATOM     15  C24 UNL     1      75.204  62.724 107.202  0.00  0.00    +0.000 C 
ATOM     16  C25 UNL     1      75.156  62.997 105.671  0.00  0.00    +0.000 C 
ATOM     17  C42 UNL     1      75.009  64.477 105.326  0.00  0.00    +0.000 C 
ATOM     18  C43 UNL     1      75.424  65.458 106.189  0.00  0.00    +0.000 C 
ATOM     19  C44 UNL     1      76.363  65.047 107.313  0.00  0.00    +0.000 C 
ATOM     20  C45 UNL     1      77.673  64.465 106.730  0.00  0.00    +0.000 C 
ATOM     21  C46 UNL     1      76.888  66.233 108.180  0.00  0.00    +0.000 C 
ATOM     22  C47 UNL     1      74.374  64.699 103.934  0.00  0.00    +0.000 C 
ENDROOT
BRANCH   6  23
ATOM     23  O4  UNL     1      71.747  66.904 106.147  0.00  0.00    +0.000 OA
ATOM     24  H9  UNL     1      72.210  67.422 105.437  0.00  0.00    +0.000 HD
ENDBRANCH   6  23
BRANCH  14  25
ATOM     25  O10 UNL     1      76.367  63.373 109.134  0.00  0.00    +0.000 OA
ATOM     26  H25 UNL     1      75.839  63.179 109.962  0.00  0.00    +0.000 HD
ENDBRANCH  14  25
BRANCH   1  27
ATOM     27  O2  UNL     1      74.192  67.171 104.863  0.00  0.00    +0.000 OA
BRANCH  27  29
ATOM     28  C1  UNL     1      73.203  69.389 104.200  0.00  0.00    +0.000 C 
ATOM     29  C2  UNL     1      74.232  68.315 104.044  0.00  0.00    +0.000 C 
ATOM     30  O1  UNL     1      75.061  68.396 103.089  0.00  0.00    +0.000 OA
ENDBRANCH  27  29
ENDBRANCH   1  27
BRANCH  11  31
ATOM     31  O6  UNL     1      71.058  63.811 107.913  0.00  0.00    +0.000 OA
BRANCH  31  32
ATOM     32  C12 UNL     1      71.183  63.268 106.608  0.00  0.00    +0.000 C 
ATOM     33  C13 UNL     1      71.661  61.861 106.476  0.00  0.00    +0.000 C 
ATOM     34  O7  UNL     1      71.118  63.951 105.545  0.00  0.00    +0.000 OA
ENDBRANCH  31  32
ENDBRANCH  11  31
BRANCH  13  35
ATOM     35  O8  UNL     1      74.666  65.165 110.069  0.00  0.00    +0.000 OA
BRANCH  35  36
ATOM     36  C16 UNL     1      74.494  64.599 111.367  0.00  0.00    +0.000 C 
ATOM     37  O9  UNL     1      74.387  63.345 111.551  0.00  0.00    +0.000 OA
BRANCH  36  38
ATOM     38  C17 UNL     1      74.387  65.496 112.516  0.00  0.00    +0.000 A 
ATOM     39  C18 UNL     1      75.212  66.670 112.543  0.00  0.00    +0.000 A 
ATOM     40  C19 UNL     1      75.187  67.500 113.673  0.00  0.00    +0.000 A 
ATOM     41  C20 UNL     1      74.396  67.152 114.769  0.00  0.00    +0.000 A 
ATOM     42  C21 UNL     1      73.549  65.988 114.737  0.00  0.00    +0.000 A 
ATOM     43  C22 UNL     1      73.545  65.199 113.585  0.00  0.00    +0.000 A 
ENDBRANCH  36  38
ENDBRANCH  35  36
ENDBRANCH  13  35
BRANCH  16  44
ATOM     44  O11 UNL     1      76.299  62.534 104.998  0.00  0.00    +0.000 OA
BRANCH  44  45
ATOM     45  C26 UNL     1      76.393  61.263 104.471  0.00  0.00    +0.000 C 
ATOM     46  O12 UNL     1      75.731  60.295 104.932  0.00  0.00    +0.000 OA
BRANCH  45  47
ATOM     47  C27 UNL     1      77.214  61.085 103.233  0.00  0.00    +0.000 C 
BRANCH  47  48
ATOM     48  O13 UNL     1      78.314  61.976 103.208  0.00  0.00    +0.000 OA
ATOM     49  H30 UNL     1      78.714  62.013 104.119  0.00  0.00    +0.000 HD
ENDBRANCH  47  48
BRANCH  47  50
ATOM     50  C28 UNL     1      76.348  61.241 101.952  0.00  0.00    +0.000 C 
BRANCH  50  51
ATOM     51  C36 UNL     1      76.455  60.014 101.038  0.00  0.00    +0.000 A 
ATOM     52  C37 UNL     1      76.549  60.180  99.625  0.00  0.00    +0.000 A 
ATOM     53  C38 UNL     1      76.444  59.090  98.776  0.00  0.00    +0.000 A 
ATOM     54  C39 UNL     1      76.425  57.783  99.318  0.00  0.00    +0.000 A 
ATOM     55  C40 UNL     1      76.437  57.613 100.696  0.00  0.00    +0.000 A 
ATOM     56  C41 UNL     1      76.497  58.718 101.555  0.00  0.00    +0.000 A 
ENDBRANCH  50  51
BRANCH  50  57
ATOM     57  N1  UNL     1      74.921  61.560 102.269  0.00  0.00    +0.000 N 
ATOM     58  C29 UNL     1      74.043  62.138 101.307  0.00  0.00    +0.000 C 
ATOM     59  O14 UNL     1      74.446  62.860 100.358  0.00  0.00    +0.000 OA
ATOM     60  H32 UNL     1      74.487  60.999 102.988  0.00  0.00    +0.000 HD
BRANCH  58  61
ATOM     61  C30 UNL     1      72.599  62.028 101.482  0.00  0.00    +0.000 A 
ATOM     62  C31 UNL     1      72.066  61.812 102.747  0.00  0.00    +0.000 A 
ATOM     63  C32 UNL     1      70.658  61.700 102.919  0.00  0.00    +0.000 A 
ATOM     64  C33 UNL     1      69.822  61.834 101.779  0.00  0.00    +0.000 A 
ATOM     65  C34 UNL     1      70.336  62.042 100.508  0.00  0.00    +0.000 A 
ATOM     66  C35 UNL     1      71.732  62.067 100.349  0.00  0.00    +0.000 A 
ENDBRANCH  58  61
ENDBRANCH  50  57
ENDBRANCH  47  50
ENDBRANCH  45  47
ENDBRANCH  44  45
ENDBRANCH  16  44
TORSDOF 17
ENDMDL
MODEL 12
REMARK VINA RESULT:      -6.9      3.097      6.581
REMARK  Name = ./S1150.pdb
REMARK  23 active torsions:
REMARK  status: ('A' for Active; 'I' for Inactive)
REMARK    1  A    between atoms: C1_1  and  C2_2
REMARK    2  A    between atoms: C2_2  and  O2_4
REMARK    3  A    between atoms: O2_4  and  C3_5
REMARK    4  A    between atoms: C5_8  and  C6_9
REMARK    5  A    between atoms: C7_10  and  O4_11
REMARK    6  A    between atoms: C11_16  and  O6_17
REMARK    7  A    between atoms: O6_17  and  C12_18
REMARK    8  A    between atoms: C12_18  and  C13_19
REMARK    9  A    between atoms: C15_22  and  O8_23
REMARK   10  A    between atoms: O8_23  and  C16_24
REMARK   11  A    between atoms: C16_24  and  C17_26
REMARK   12  A    between atoms: C23_32  and  O10_33
REMARK   13  A    between atoms: C25_35  and  O11_36
REMARK   14  A    between atoms: O11_36  and  C26_37
REMARK   15  A    between atoms: C26_37  and  C27_39
REMARK   16  A    between atoms: C27_39  and  O13_40
REMARK   17  A    between atoms: C27_39  and  C28_41
REMARK   18  A    between atoms: C28_41  and  N1_42
REMARK   19  A    between atoms: C28_41  and  C36_51
REMARK   20  A    between atoms: C29_43  and  C30_45
REMARK   21  A    between atoms: C42_57  and  C47_62
REMARK   22  A    between atoms: C44_59  and  C45_60
REMARK   23  A    between atoms: C44_59  and  C46_61
REMARK                            x       y       z     vdW  Elec       q    Type
REMARK                         _______ _______ _______ _____ _____    ______ ____
ROOT
ATOM      1  C3  UNL     1      76.939  69.901 107.797  0.00  0.00    +0.000 C 
ATOM      2  C4  UNL     1      75.945  70.892 107.259  0.00  0.00    +0.000 C 
ATOM      3  O3  UNL     1      76.090  72.066 107.678  0.00  0.00    +0.000 OA
ATOM      4  C5  UNL     1      74.874  70.665 106.161  0.00  0.00    +0.000 C 
ATOM      5  C6  UNL     1      73.734  71.730 106.361  0.00  0.00    +0.000 C 
ATOM      6  C7  UNL     1      75.665  71.013 104.869  0.00  0.00    +0.000 C 
ATOM      7  C8  UNL     1      74.717  71.185 103.693  0.00  0.00    +0.000 C 
ATOM      8  C9  UNL     1      73.702  70.061 103.540  0.00  0.00    +0.000 C 
ATOM      9  O5  UNL     1      72.339  70.458 103.747  0.00  0.00    +0.000 OA
ATOM     10  C10 UNL     1      72.141  69.294 104.494  0.00  0.00    +0.000 C 
ATOM     11  C11 UNL     1      73.623  68.946 104.607  0.00  0.00    +0.000 C 
ATOM     12  C14 UNL     1      74.257  69.186 106.050  0.00  0.00    +0.000 C 
ATOM     13  C15 UNL     1      73.370  68.606 107.249  0.00  0.00    +0.000 C 
ATOM     14  C23 UNL     1      73.979  67.812 108.511  0.00  0.00    +0.000 C 
ATOM     15  C24 UNL     1      74.410  66.353 108.086  0.00  0.00    +0.000 C 
ATOM     16  C25 UNL     1      75.935  66.097 107.925  0.00  0.00    +0.000 C 
ATOM     17  C42 UNL     1      76.747  67.376 107.737  0.00  0.00    +0.000 C 
ATOM     18  C43 UNL     1      76.296  68.585 108.201  0.00  0.00    +0.000 C 
ATOM     19  C44 UNL     1      75.169  68.563 109.223  0.00  0.00    +0.000 C 
ATOM     20  C45 UNL     1      75.614  67.801 110.494  0.00  0.00    +0.000 C 
ATOM     21  C46 UNL     1      74.790  69.964 109.795  0.00  0.00    +0.000 C 
ATOM     22  C47 UNL     1      78.083  67.127 107.001  0.00  0.00    +0.000 C 
ENDROOT
BRANCH   6  23
ATOM     23  O4  UNL     1      76.560  69.982 104.515  0.00  0.00    +0.000 OA
ATOM     24  H9  UNL     1      76.622  70.000 103.525  0.00  0.00    +0.000 HD
ENDBRANCH   6  23
BRANCH  14  25
ATOM     25  O10 UNL     1      72.896  67.598 109.376  0.00  0.00    +0.000 OA
ATOM     26  H25 UNL     1      72.121  68.195 109.165  0.00  0.00    +0.000 HD
ENDBRANCH  14  25
BRANCH   1  27
ATOM     27  O2  UNL     1      78.029  69.769 106.858  0.00  0.00    +0.000 OA
BRANCH  27  29
ATOM     28  C1  UNL     1      79.385  71.646 105.871  0.00  0.00    +0.000 C 
ATOM     29  C2  UNL     1      79.208  70.537 106.859  0.00  0.00    +0.000 C 
ATOM     30  O1  UNL     1      80.181  70.226 107.609  0.00  0.00    +0.000 OA
ENDBRANCH  27  29
ENDBRANCH   1  27
BRANCH  11  31
ATOM     31  O6  UNL     1      73.812  67.673 103.989  0.00  0.00    +0.000 OA
BRANCH  31  32
ATOM     32  C12 UNL     1      74.771  66.640 104.163  0.00  0.00    +0.000 C 
ATOM     33  C13 UNL     1      74.282  65.290 104.569  0.00  0.00    +0.000 C 
ATOM     34  O7  UNL     1      76.021  66.830 104.202  0.00  0.00    +0.000 OA
ENDBRANCH  31  32
ENDBRANCH  11  31
BRANCH  13  35
ATOM     35  O8  UNL     1      72.499  69.623 107.726  0.00  0.00    +0.000 OA
BRANCH  35  36
ATOM     36  C16 UNL     1      71.082  69.474 107.775  0.00  0.00    +0.000 C 
ATOM     37  O9  UNL     1      70.526  68.389 108.137  0.00  0.00    +0.000 OA
BRANCH  36  38
ATOM     38  C17 UNL     1      70.243  70.593 107.347  0.00  0.00    +0.000 A 
ATOM     39  C18 UNL     1      70.515  71.894 107.887  0.00  0.00    +0.000 A 
ATOM     40  C19 UNL     1      69.672  72.964 107.555  0.00  0.00    +0.000 A 
ATOM     41  C20 UNL     1      68.560  72.741 106.741  0.00  0.00    +0.000 A 
ATOM     42  C21 UNL     1      68.297  71.443 106.178  0.00  0.00    +0.000 A 
ATOM     43  C22 UNL     1      69.174  70.398 106.475  0.00  0.00    +0.000 A 
ENDBRANCH  36  38
ENDBRANCH  35  36
ENDBRANCH  13  35
BRANCH  16  44
ATOM     44  O11 UNL     1      76.494  65.418 109.022  0.00  0.00    +0.000 OA
BRANCH  44  45
ATOM     45  C26 UNL     1      76.742  64.063 109.014  0.00  0.00    +0.000 C 
ATOM     46  O12 UNL     1      77.375  63.501 108.080  0.00  0.00    +0.000 OA
BRANCH  45  47
ATOM     47  C27 UNL     1      76.351  63.279 110.227  0.00  0.00    +0.000 C 
BRANCH  47  48
ATOM     48  O13 UNL     1      76.899  61.974 110.201  0.00  0.00    +0.000 OA
ATOM     49  H30 UNL     1      76.270  61.355 110.662  0.00  0.00    +0.000 HD
ENDBRANCH  47  48
BRANCH  47  50
ATOM     50  C28 UNL     1      74.806  63.224 110.392  0.00  0.00    +0.000 C 
BRANCH  50  51
ATOM     51  C36 UNL     1      74.306  64.248 111.419  0.00  0.00    +0.000 A 
ATOM     52  C37 UNL     1      75.187  64.742 112.425  0.00  0.00    +0.000 A 
ATOM     53  C38 UNL     1      74.705  65.506 113.475  0.00  0.00    +0.000 A 
ATOM     54  C39 UNL     1      73.362  65.954 113.453  0.00  0.00    +0.000 A 
ATOM     55  C40 UNL     1      72.526  65.558 112.417  0.00  0.00    +0.000 A 
ATOM     56  C41 UNL     1      73.003  64.748 111.380  0.00  0.00    +0.000 A 
ENDBRANCH  50  51
BRANCH  50  57
ATOM     57  N1  UNL     1      74.093  63.372 109.085  0.00  0.00    +0.000 N 
ATOM     58  C29 UNL     1      73.244  62.352 108.566  0.00  0.00    +0.000 C 
ATOM     59  O14 UNL     1      73.391  61.133 108.843  0.00  0.00    +0.000 OA
ATOM     60  H32 UNL     1      73.882  64.316 108.796  0.00  0.00    +0.000 HD
BRANCH  58  61
ATOM     61  C30 UNL     1      72.244  62.681 107.557  0.00  0.00    +0.000 A 
ATOM     62  C31 UNL     1      71.897  61.745 106.591  0.00  0.00    +0.000 A 
ATOM     63  C32 UNL     1      70.925  62.065 105.602  0.00  0.00    +0.000 A 
ATOM     64  C33 UNL     1      70.312  63.346 105.644  0.00  0.00    +0.000 A 
ATOM     65  C34 UNL     1      70.651  64.295 106.596  0.00  0.00    +0.000 A 
ATOM     66  C35 UNL     1      71.672  63.988 107.511  0.00  0.00    +0.000 A 
ENDBRANCH  58  61
ENDBRANCH  50  57
ENDBRANCH  47  50
ENDBRANCH  45  47
ENDBRANCH  44  45
ENDBRANCH  16  44
TORSDOF 17
ENDMDL
MODEL 13
REMARK VINA RESULT:      -6.9      3.719      9.164
REMARK  Name = ./S1150.pdb
REMARK  23 active torsions:
REMARK  status: ('A' for Active; 'I' for Inactive)
REMARK    1  A    between atoms: C1_1  and  C2_2
REMARK    2  A    between atoms: C2_2  and  O2_4
REMARK    3  A    between atoms: O2_4  and  C3_5
REMARK    4  A    between atoms: C5_8  and  C6_9
REMARK    5  A    between atoms: C7_10  and  O4_11
REMARK    6  A    between atoms: C11_16  and  O6_17
REMARK    7  A    between atoms: O6_17  and  C12_18
REMARK    8  A    between atoms: C12_18  and  C13_19
REMARK    9  A    between atoms: C15_22  and  O8_23
REMARK   10  A    between atoms: O8_23  and  C16_24
REMARK   11  A    between atoms: C16_24  and  C17_26
REMARK   12  A    between atoms: C23_32  and  O10_33
REMARK   13  A    between atoms: C25_35  and  O11_36
REMARK   14  A    between atoms: O11_36  and  C26_37
REMARK   15  A    between atoms: C26_37  and  C27_39
REMARK   16  A    between atoms: C27_39  and  O13_40
REMARK   17  A    between atoms: C27_39  and  C28_41
REMARK   18  A    between atoms: C28_41  and  N1_42
REMARK   19  A    between atoms: C28_41  and  C36_51
REMARK   20  A    between atoms: C29_43  and  C30_45
REMARK   21  A    between atoms: C42_57  and  C47_62
REMARK   22  A    between atoms: C44_59  and  C45_60
REMARK   23  A    between atoms: C44_59  and  C46_61
REMARK                            x       y       z     vdW  Elec       q    Type
REMARK                         _______ _______ _______ _____ _____    ______ ____
ROOT
ATOM      1  C3  UNL     1      76.758  65.438 108.919  0.00  0.00    +0.000 C 
ATOM      2  C4  UNL     1      76.135  65.865 107.619  0.00  0.00    +0.000 C 
ATOM      3  O3  UNL     1      76.770  66.750 106.995  0.00  0.00    +0.000 OA
ATOM      4  C5  UNL     1      74.903  65.250 106.907  0.00  0.00    +0.000 C 
ATOM      5  C6  UNL     1      74.287  66.345 105.960  0.00  0.00    +0.000 C 
ATOM      6  C7  UNL     1      75.559  64.143 106.034  0.00  0.00    +0.000 C 
ATOM      7  C8  UNL     1      74.575  63.631 104.994  0.00  0.00    +0.000 C 
ATOM      8  C9  UNL     1      73.203  63.279 105.552  0.00  0.00    +0.000 C 
ATOM      9  O5  UNL     1      72.136  64.111 105.077  0.00  0.00    +0.000 OA
ATOM     10  C10 UNL     1      71.635  64.167 106.381  0.00  0.00    +0.000 C 
ATOM     11  C11 UNL     1      72.879  63.570 107.035  0.00  0.00    +0.000 C 
ATOM     12  C14 UNL     1      73.769  64.612 107.849  0.00  0.00    +0.000 C 
ATOM     13  C15 UNL     1      72.924  65.559 108.825  0.00  0.00    +0.000 C 
ATOM     14  C23 UNL     1      73.379  65.934 110.323  0.00  0.00    +0.000 C 
ATOM     15  C24 UNL     1      73.163  64.701 111.287  0.00  0.00    +0.000 C 
ATOM     16  C25 UNL     1      74.439  63.922 111.716  0.00  0.00    +0.000 C 
ATOM     17  C42 UNL     1      75.631  64.156 110.790  0.00  0.00    +0.000 C 
ATOM     18  C43 UNL     1      75.740  65.298 110.039  0.00  0.00    +0.000 C 
ATOM     19  C44 UNL     1      74.856  66.474 110.426  0.00  0.00    +0.000 C 
ATOM     20  C45 UNL     1      75.174  66.929 111.870  0.00  0.00    +0.000 C 
ATOM     21  C46 UNL     1      75.120  67.775 109.606  0.00  0.00    +0.000 C 
ATOM     22  C47 UNL     1      76.648  62.993 110.829  0.00  0.00    +0.000 C 
ENDROOT
BRANCH   6  23
ATOM     23  O4  UNL     1      75.938  63.029 106.810  0.00  0.00    +0.000 OA
ATOM     24  H9  UNL     1      75.228  62.348 106.678  0.00  0.00    +0.000 HD
ENDBRANCH   6  23
BRANCH  14  25
ATOM     25  O10 UNL     1      72.440  66.874 110.775  0.00  0.00    +0.000 OA
ATOM     26  H25 UNL     1      71.506  66.629 110.512  0.00  0.00    +0.000 HD
ENDBRANCH  14  25
BRANCH   1  27
ATOM     27  O2  UNL     1      77.562  64.260 108.693  0.00  0.00    +0.000 OA
BRANCH  27  29
ATOM     28  C1  UNL     1      79.893  63.468 109.221  0.00  0.00    +0.000 C 
ATOM     29  C2  UNL     1      78.935  64.253 108.382  0.00  0.00    +0.000 C 
ATOM     30  O1  UNL     1      79.394  65.002 107.469  0.00  0.00    +0.000 OA
ENDBRANCH  27  29
ENDBRANCH   1  27
BRANCH  11  31
ATOM     31  O6  UNL     1      72.482  62.364 107.688  0.00  0.00    +0.000 OA
BRANCH  31  32
ATOM     32  C12 UNL     1      73.206  61.293 108.274  0.00  0.00    +0.000 C 
ATOM     33  C13 UNL     1      72.985  59.919 107.734  0.00  0.00    +0.000 C 
ATOM     34  O7  UNL     1      73.862  61.385 109.352  0.00  0.00    +0.000 OA
ENDBRANCH  31  32
ENDBRANCH  11  31
BRANCH  13  35
ATOM     35  O8  UNL     1      72.580  66.755 108.139  0.00  0.00    +0.000 OA
BRANCH  35  36
ATOM     36  C16 UNL     1      71.236  67.211 107.995  0.00  0.00    +0.000 C 
ATOM     37  O9  UNL     1      70.271  66.687 108.636  0.00  0.00    +0.000 OA
BRANCH  36  38
ATOM     38  C17 UNL     1      70.956  68.282 107.040  0.00  0.00    +0.000 A 
ATOM     39  C18 UNL     1      69.841  69.149 107.297  0.00  0.00    +0.000 A 
ATOM     40  C19 UNL     1      69.504  70.130 106.353  0.00  0.00    +0.000 A 
ATOM     41  C20 UNL     1      70.228  70.222 105.164  0.00  0.00    +0.000 A 
ATOM     42  C21 UNL     1      71.361  69.370 104.912  0.00  0.00    +0.000 A 
ATOM     43  C22 UNL     1      71.717  68.432 105.884  0.00  0.00    +0.000 A 
ENDBRANCH  36  38
ENDBRANCH  35  36
ENDBRANCH  13  35
BRANCH  16  44
ATOM     44  O11 UNL     1      74.865  64.244 113.016  0.00  0.00    +0.000 OA
BRANCH  44  45
ATOM     45  C26 UNL     1      74.748  63.374 114.078  0.00  0.00    +0.000 C 
ATOM     46  O12 UNL     1      74.172  63.697 115.151  0.00  0.00    +0.000 OA
BRANCH  45  47
ATOM     47  C27 UNL     1      75.213  61.967 113.875  0.00  0.00    +0.000 C 
BRANCH  47  48
ATOM     48  O13 UNL     1      74.135  61.103 113.564  0.00  0.00    +0.000 OA
ATOM     49  H30 UNL     1      74.380  60.562 112.765  0.00  0.00    +0.000 HD
ENDBRANCH  47  48
BRANCH  47  50
ATOM     50  C28 UNL     1      75.997  61.445 115.112  0.00  0.00    +0.000 C 
BRANCH  50  51
ATOM     51  C36 UNL     1      76.893  60.252 114.757  0.00  0.00    +0.000 A 
ATOM     52  C37 UNL     1      76.558  58.944 115.218  0.00  0.00    +0.000 A 
ATOM     53  C38 UNL     1      77.452  57.895 115.081  0.00  0.00    +0.000 A 
ATOM     54  C39 UNL     1      78.630  58.077 114.317  0.00  0.00    +0.000 A 
ATOM     55  C40 UNL     1      78.909  59.326 113.778  0.00  0.00    +0.000 A 
ATOM     56  C41 UNL     1      78.026  60.399 113.956  0.00  0.00    +0.000 A 
ENDBRANCH  50  51
BRANCH  50  57
ATOM     57  N1  UNL     1      76.778  62.530 115.784  0.00  0.00    +0.000 N 
ATOM     58  C29 UNL     1      76.776  62.698 117.199  0.00  0.00    +0.000 C 
ATOM     59  O14 UNL     1      75.815  62.342 117.930  0.00  0.00    +0.000 OA
ATOM     60  H32 UNL     1      77.602  62.853 115.299  0.00  0.00    +0.000 HD
BRANCH  58  61
ATOM     61  C30 UNL     1      77.852  63.441 117.846  0.00  0.00    +0.000 A 
ATOM     62  C31 UNL     1      77.552  64.469 118.731  0.00  0.00    +0.000 A 
ATOM     63  C32 UNL     1      78.600  65.199 119.359  0.00  0.00    +0.000 A 
ATOM     64  C33 UNL     1      79.944  64.838 119.074  0.00  0.00    +0.000 A 
ATOM     65  C34 UNL     1      80.262  63.820 118.187  0.00  0.00    +0.000 A 
ATOM     66  C35 UNL     1      79.213  63.169 117.515  0.00  0.00    +0.000 A 
ENDBRANCH  58  61
ENDBRANCH  50  57
ENDBRANCH  47  50
ENDBRANCH  45  47
ENDBRANCH  44  45
ENDBRANCH  16  44
TORSDOF 17
ENDMDL
MODEL 14
REMARK VINA RESULT:      -6.8      3.621      9.079
REMARK  Name = ./S1150.pdb
REMARK  23 active torsions:
REMARK  status: ('A' for Active; 'I' for Inactive)
REMARK    1  A    between atoms: C1_1  and  C2_2
REMARK    2  A    between atoms: C2_2  and  O2_4
REMARK    3  A    between atoms: O2_4  and  C3_5
REMARK    4  A    between atoms: C5_8  and  C6_9
REMARK    5  A    between atoms: C7_10  and  O4_11
REMARK    6  A    between atoms: C11_16  and  O6_17
REMARK    7  A    between atoms: O6_17  and  C12_18
REMARK    8  A    between atoms: C12_18  and  C13_19
REMARK    9  A    between atoms: C15_22  and  O8_23
REMARK   10  A    between atoms: O8_23  and  C16_24
REMARK   11  A    between atoms: C16_24  and  C17_26
REMARK   12  A    between atoms: C23_32  and  O10_33
REMARK   13  A    between atoms: C25_35  and  O11_36
REMARK   14  A    between atoms: O11_36  and  C26_37
REMARK   15  A    between atoms: C26_37  and  C27_39
REMARK   16  A    between atoms: C27_39  and  O13_40
REMARK   17  A    between atoms: C27_39  and  C28_41
REMARK   18  A    between atoms: C28_41  and  N1_42
REMARK   19  A    between atoms: C28_41  and  C36_51
REMARK   20  A    between atoms: C29_43  and  C30_45
REMARK   21  A    between atoms: C42_57  and  C47_62
REMARK   22  A    between atoms: C44_59  and  C45_60
REMARK   23  A    between atoms: C44_59  and  C46_61
REMARK                            x       y       z     vdW  Elec       q    Type
REMARK                         _______ _______ _______ _____ _____    ______ ____
ROOT
ATOM      1  C3  UNL     1      73.200  63.802 107.939  0.00  0.00    +0.000 C 
ATOM      2  C4  UNL     1      74.089  64.327 106.846  0.00  0.00    +0.000 C 
ATOM      3  O3  UNL     1      73.923  63.787 105.725  0.00  0.00    +0.000 OA
ATOM      4  C5  UNL     1      75.064  65.531 106.909  0.00  0.00    +0.000 C 
ATOM      5  C6  UNL     1      76.162  65.331 105.801  0.00  0.00    +0.000 C 
ATOM      6  C7  UNL     1      74.141  66.711 106.493  0.00  0.00    +0.000 C 
ATOM      7  C8  UNL     1      74.967  67.942 106.160  0.00  0.00    +0.000 C 
ATOM      8  C9  UNL     1      76.020  68.289 107.203  0.00  0.00    +0.000 C 
ATOM      9  O5  UNL     1      77.373  68.165 106.746  0.00  0.00    +0.000 OA
ATOM     10  C10 UNL     1      77.698  67.552 107.959  0.00  0.00    +0.000 C 
ATOM     11  C11 UNL     1      76.253  67.345 108.404  0.00  0.00    +0.000 C 
ATOM     12  C14 UNL     1      75.743  65.836 108.333  0.00  0.00    +0.000 C 
ATOM     13  C15 UNL     1      76.765  64.779 108.965  0.00  0.00    +0.000 C 
ATOM     14  C23 UNL     1      76.317  63.551 109.905  0.00  0.00    +0.000 C 
ATOM     15  C24 UNL     1      75.924  64.074 111.342  0.00  0.00    +0.000 C 
ATOM     16  C25 UNL     1      74.405  64.125 111.673  0.00  0.00    +0.000 C 
ATOM     17  C42 UNL     1      73.515  64.118 110.433  0.00  0.00    +0.000 C 
ATOM     18  C43 UNL     1      73.945  63.582 109.246  0.00  0.00    +0.000 C 
ATOM     19  C44 UNL     1      75.161  62.669 109.294  0.00  0.00    +0.000 C 
ATOM     20  C45 UNL     1      74.874  61.443 110.192  0.00  0.00    +0.000 C 
ATOM     21  C46 UNL     1      75.519  62.001 107.930  0.00  0.00    +0.000 C 
ATOM     22  C47 UNL     1      72.131  64.756 110.693  0.00  0.00    +0.000 C 
ENDROOT
BRANCH   6  23
ATOM     23  O4  UNL     1      73.271  67.081 107.540  0.00  0.00    +0.000 OA
ATOM     24  H9  UNL     1      73.852  67.300 108.315  0.00  0.00    +0.000 HD
ENDBRANCH   6  23
BRANCH  14  25
ATOM     25  O10 UNL     1      77.484  62.807 110.132  0.00  0.00    +0.000 OA
ATOM     26  H25 UNL     1      77.318  62.015 110.720  0.00  0.00    +0.000 HD
ENDBRANCH  14  25
BRANCH   1  27
ATOM     27  O2  UNL     1      72.037  64.650 108.051  0.00  0.00    +0.000 OA
BRANCH  27  29
ATOM     28  C1  UNL     1      70.465  63.510 106.449  0.00  0.00    +0.000 C 
ATOM     29  C2  UNL     1      70.997  64.743 107.106  0.00  0.00    +0.000 C 
ATOM     30  O1  UNL     1      70.583  65.873 106.712  0.00  0.00    +0.000 OA
ENDBRANCH  27  29
ENDBRANCH   1  27
BRANCH  11  31
ATOM     31  O6  UNL     1      76.073  68.062 109.624  0.00  0.00    +0.000 OA
BRANCH  31  32
ATOM     32  C12 UNL     1      75.047  68.071 110.606  0.00  0.00    +0.000 C 
ATOM     33  C13 UNL     1      75.421  67.750 112.014  0.00  0.00    +0.000 C 
ATOM     34  O7  UNL     1      73.811  68.124 110.341  0.00  0.00    +0.000 OA
ENDBRANCH  31  32
ENDBRANCH  11  31
BRANCH  13  35
ATOM     35  O8  UNL     1      77.623  64.285 107.946  0.00  0.00    +0.000 OA
BRANCH  35  36
ATOM     36  C16 UNL     1      79.045  64.269 108.064  0.00  0.00    +0.000 C 
ATOM     37  O9  UNL     1      79.631  64.258 109.192  0.00  0.00    +0.000 OA
BRANCH  36  38
ATOM     38  C17 UNL     1      79.851  64.318 106.845  0.00  0.00    +0.000 A 
ATOM     39  C18 UNL     1      79.957  65.569 106.149  0.00  0.00    +0.000 A 
ATOM     40  C19 UNL     1      80.657  65.619 104.934  0.00  0.00    +0.000 A 
ATOM     41  C20 UNL     1      81.201  64.450 104.400  0.00  0.00    +0.000 A 
ATOM     42  C21 UNL     1      81.116  63.199 105.107  0.00  0.00    +0.000 A 
ATOM     43  C22 UNL     1      80.462  63.173 106.340  0.00  0.00    +0.000 A 
ENDBRANCH  36  38
ENDBRANCH  35  36
ENDBRANCH  13  35
BRANCH  16  44
ATOM     44  O11 UNL     1      73.985  63.053 112.480  0.00  0.00    +0.000 OA
BRANCH  44  45
ATOM     45  C26 UNL     1      73.719  63.190 113.825  0.00  0.00    +0.000 C 
ATOM     46  O12 UNL     1      72.838  63.980 114.258  0.00  0.00    +0.000 OA
BRANCH  45  47
ATOM     47  C27 UNL     1      74.422  62.266 114.769  0.00  0.00    +0.000 C 
BRANCH  47  48
ATOM     48  O13 UNL     1      73.849  62.312 116.063  0.00  0.00    +0.000 OA
ATOM     49  H30 UNL     1      74.255  63.072 116.563  0.00  0.00    +0.000 HD
ENDBRANCH  47  48
BRANCH  47  50
ATOM     50  C28 UNL     1      75.945  62.570 114.829  0.00  0.00    +0.000 C 
BRANCH  50  51
ATOM     51  C36 UNL     1      76.278  63.599 115.918  0.00  0.00    +0.000 A 
ATOM     52  C37 UNL     1      77.023  63.207 117.069  0.00  0.00    +0.000 A 
ATOM     53  C38 UNL     1      77.161  64.063 118.148  0.00  0.00    +0.000 A 
ATOM     54  C39 UNL     1      76.714  65.402 118.038  0.00  0.00    +0.000 A 
ATOM     55  C40 UNL     1      76.077  65.818 116.876  0.00  0.00    +0.000 A 
ATOM     56  C41 UNL     1      75.898  64.937 115.801  0.00  0.00    +0.000 A 
ENDBRANCH  50  51
BRANCH  50  57
ATOM     57  N1  UNL     1      76.763  61.328 114.988  0.00  0.00    +0.000 N 
ATOM     58  C29 UNL     1      77.780  60.968 114.056  0.00  0.00    +0.000 C 
ATOM     59  O14 UNL     1      77.758  61.319 112.848  0.00  0.00    +0.000 OA
ATOM     60  H32 UNL     1      76.884  60.990 115.931  0.00  0.00    +0.000 HD
BRANCH  58  61
ATOM     61  C30 UNL     1      78.830  60.034 114.450  0.00  0.00    +0.000 A 
ATOM     62  C31 UNL     1      79.029  58.866 113.724  0.00  0.00    +0.000 A 
ATOM     63  C32 UNL     1      80.049  57.952 114.109  0.00  0.00    +0.000 A 
ATOM     64  C33 UNL     1      80.860  58.272 115.229  0.00  0.00    +0.000 A 
ATOM     65  C34 UNL     1      80.670  59.429 115.971  0.00  0.00    +0.000 A 
ATOM     66  C35 UNL     1      79.605  60.277 115.623  0.00  0.00    +0.000 A 
ENDBRANCH  58  61
ENDBRANCH  50  57
ENDBRANCH  47  50
ENDBRANCH  45  47
ENDBRANCH  44  45
ENDBRANCH  16  44
TORSDOF 17
ENDMDL
MODEL 15
REMARK VINA RESULT:      -6.8      2.674      8.980
REMARK  Name = ./S1150.pdb
REMARK  23 active torsions:
REMARK  status: ('A' for Active; 'I' for Inactive)
REMARK    1  A    between atoms: C1_1  and  C2_2
REMARK    2  A    between atoms: C2_2  and  O2_4
REMARK    3  A    between atoms: O2_4  and  C3_5
REMARK    4  A    between atoms: C5_8  and  C6_9
REMARK    5  A    between atoms: C7_10  and  O4_11
REMARK    6  A    between atoms: C11_16  and  O6_17
REMARK    7  A    between atoms: O6_17  and  C12_18
REMARK    8  A    between atoms: C12_18  and  C13_19
REMARK    9  A    between atoms: C15_22  and  O8_23
REMARK   10  A    between atoms: O8_23  and  C16_24
REMARK   11  A    between atoms: C16_24  and  C17_26
REMARK   12  A    between atoms: C23_32  and  O10_33
REMARK   13  A    between atoms: C25_35  and  O11_36
REMARK   14  A    between atoms: O11_36  and  C26_37
REMARK   15  A    between atoms: C26_37  and  C27_39
REMARK   16  A    between atoms: C27_39  and  O13_40
REMARK   17  A    between atoms: C27_39  and  C28_41
REMARK   18  A    between atoms: C28_41  and  N1_42
REMARK   19  A    between atoms: C28_41  and  C36_51
REMARK   20  A    between atoms: C29_43  and  C30_45
REMARK   21  A    between atoms: C42_57  and  C47_62
REMARK   22  A    between atoms: C44_59  and  C45_60
REMARK   23  A    between atoms: C44_59  and  C46_61
REMARK                            x       y       z     vdW  Elec       q    Type
REMARK                         _______ _______ _______ _____ _____    ______ ____
ROOT
ATOM      1  C3  UNL     1      72.214  61.346 103.496  0.00  0.00    +0.000 C 
ATOM      2  C4  UNL     1      72.919  60.445 102.520  0.00  0.00    +0.000 C 
ATOM      3  O3  UNL     1      72.177  59.619 101.933  0.00  0.00    +0.000 OA
ATOM      4  C5  UNL     1      74.398  60.512 102.061  0.00  0.00    +0.000 C 
ATOM      5  C6  UNL     1      74.817  59.085 101.547  0.00  0.00    +0.000 C 
ATOM      6  C7  UNL     1      74.310  61.477 100.845  0.00  0.00    +0.000 C 
ATOM      7  C8  UNL     1      75.592  61.425 100.029  0.00  0.00    +0.000 C 
ATOM      8  C9  UNL     1      76.864  61.549 100.856  0.00  0.00    +0.000 C 
ATOM      9  O5  UNL     1      77.689  60.377 100.857  0.00  0.00    +0.000 OA
ATOM     10  C10 UNL     1      77.876  60.543 102.232  0.00  0.00    +0.000 C 
ATOM     11  C11 UNL     1      76.777  61.589 102.398  0.00  0.00    +0.000 C 
ATOM     12  C14 UNL     1      75.461  61.065 103.130  0.00  0.00    +0.000 C 
ATOM     13  C15 UNL     1      75.754  60.227 104.462  0.00  0.00    +0.000 C 
ATOM     14  C23 UNL     1      74.915  60.393 105.826  0.00  0.00    +0.000 C 
ATOM     15  C24 UNL     1      75.308  61.739 106.552  0.00  0.00    +0.000 C 
ATOM     16  C25 UNL     1      74.281  62.904 106.462  0.00  0.00    +0.000 C 
ATOM     17  C42 UNL     1      73.287  62.746 105.314  0.00  0.00    +0.000 C 
ATOM     18  C43 UNL     1      72.979  61.513 104.798  0.00  0.00    +0.000 C 
ATOM     19  C44 UNL     1      73.354  60.296 105.631  0.00  0.00    +0.000 C 
ATOM     20  C45 UNL     1      72.627  60.337 106.996  0.00  0.00    +0.000 C 
ATOM     21  C46 UNL     1      72.866  58.936 105.041  0.00  0.00    +0.000 C 
ATOM     22  C47 UNL     1      72.699  64.097 104.850  0.00  0.00    +0.000 C 
ENDROOT
BRANCH   6  23
ATOM     23  O4  UNL     1      74.151  62.816 101.258  0.00  0.00    +0.000 OA
ATOM     24  H9  UNL     1      73.493  63.219 100.632  0.00  0.00    +0.000 HD
ENDBRANCH   6  23
BRANCH  14  25
ATOM     25  O10 UNL     1      75.402  59.399 106.688  0.00  0.00    +0.000 OA
ATOM     26  H25 UNL     1      74.676  58.788 107.008  0.00  0.00    +0.000 HD
ENDBRANCH  14  25
BRANCH   1  27
ATOM     27  O2  UNL     1      71.881  62.587 102.836  0.00  0.00    +0.000 OA
BRANCH  27  29
ATOM     28  C1  UNL     1      69.427  62.393 102.309  0.00  0.00    +0.000 C 
ATOM     29  C2  UNL     1      70.822  62.773 101.928  0.00  0.00    +0.000 C 
ATOM     30  O1  UNL     1      71.051  63.148 100.739  0.00  0.00    +0.000 OA
ENDBRANCH  27  29
ENDBRANCH   1  27
BRANCH  11  31
ATOM     31  O6  UNL     1      77.392  62.782 102.885  0.00  0.00    +0.000 OA
BRANCH  31  32
ATOM     32  C12 UNL     1      76.885  63.952 103.510  0.00  0.00    +0.000 C 
ATOM     33  C13 UNL     1      77.430  64.325 104.848  0.00  0.00    +0.000 C 
ATOM     34  O7  UNL     1      75.863  64.583 103.113  0.00  0.00    +0.000 OA
ENDBRANCH  31  32
ENDBRANCH  11  31
BRANCH  13  35
ATOM     35  O8  UNL     1      75.837  58.845 104.141  0.00  0.00    +0.000 OA
BRANCH  35  36
ATOM     36  C16 UNL     1      76.966  58.037 104.466  0.00  0.00    +0.000 C 
ATOM     37  O9  UNL     1      78.020  58.522 104.988  0.00  0.00    +0.000 OA
BRANCH  36  38
ATOM     38  C17 UNL     1      76.927  56.612 104.141  0.00  0.00    +0.000 A 
ATOM     39  C18 UNL     1      75.735  55.875 104.451  0.00  0.00    +0.000 A 
ATOM     40  C19 UNL     1      75.706  54.491 104.225  0.00  0.00    +0.000 A 
ATOM     41  C20 UNL     1      76.846  53.846 103.743  0.00  0.00    +0.000 A 
ATOM     42  C21 UNL     1      78.036  54.584 103.409  0.00  0.00    +0.000 A 
ATOM     43  C22 UNL     1      78.033  55.969 103.591  0.00  0.00    +0.000 A 
ENDBRANCH  36  38
ENDBRANCH  35  36
ENDBRANCH  13  35
BRANCH  16  44
ATOM     44  O11 UNL     1      73.525  63.058 107.636  0.00  0.00    +0.000 OA
BRANCH  44  45
ATOM     45  C26 UNL     1      73.722  64.096 108.521  0.00  0.00    +0.000 C 
ATOM     46  O12 UNL     1      74.787  64.768 108.540  0.00  0.00    +0.000 OA
BRANCH  45  47
ATOM     47  C27 UNL     1      72.570  64.498 109.387  0.00  0.00    +0.000 C 
BRANCH  47  48
ATOM     48  O13 UNL     1      71.362  63.899 108.953  0.00  0.00    +0.000 OA
ATOM     49  H30 UNL     1      71.584  63.090 108.415  0.00  0.00    +0.000 HD
ENDBRANCH  47  48
BRANCH  47  50
ATOM     50  C28 UNL     1      72.424  66.044 109.455  0.00  0.00    +0.000 C 
BRANCH  50  51
ATOM     51  C36 UNL     1      73.310  66.652 110.551  0.00  0.00    +0.000 A 
ATOM     52  C37 UNL     1      74.154  67.762 110.254  0.00  0.00    +0.000 A 
ATOM     53  C38 UNL     1      75.101  68.195 111.167  0.00  0.00    +0.000 A 
ATOM     54  C39 UNL     1      75.111  67.649 112.473  0.00  0.00    +0.000 A 
ATOM     55  C40 UNL     1      74.219  66.635 112.799  0.00  0.00    +0.000 A 
ATOM     56  C41 UNL     1      73.291  66.168 111.860  0.00  0.00    +0.000 A 
ENDBRANCH  50  51
BRANCH  50  57
ATOM     57  N1  UNL     1      72.675  66.694 108.131  0.00  0.00    +0.000 N 
ATOM     58  C29 UNL     1      71.632  66.909 107.184  0.00  0.00    +0.000 C 
ATOM     59  O14 UNL     1      70.603  66.186 107.122  0.00  0.00    +0.000 OA
ATOM     60  H32 UNL     1      73.454  67.335 108.089  0.00  0.00    +0.000 HD
BRANCH  58  61
ATOM     61  C30 UNL     1      71.797  67.908 106.134  0.00  0.00    +0.000 A 
ATOM     62  C31 UNL     1      72.876  67.828 105.262  0.00  0.00    +0.000 A 
ATOM     63  C32 UNL     1      73.042  68.805 104.240  0.00  0.00    +0.000 A 
ATOM     64  C33 UNL     1      72.074  69.838 104.126  0.00  0.00    +0.000 A 
ATOM     65  C34 UNL     1      70.995  69.938 104.992  0.00  0.00    +0.000 A 
ATOM     66  C35 UNL     1      70.897  69.012 106.044  0.00  0.00    +0.000 A 
ENDBRANCH  58  61
ENDBRANCH  50  57
ENDBRANCH  47  50
ENDBRANCH  45  47
ENDBRANCH  44  45
ENDBRANCH  16  44
TORSDOF 17
ENDMDL
MODEL 16
REMARK VINA RESULT:      -6.8      2.602      6.434
REMARK  Name = ./S1150.pdb
REMARK  23 active torsions:
REMARK  status: ('A' for Active; 'I' for Inactive)
REMARK    1  A    between atoms: C1_1  and  C2_2
REMARK    2  A    between atoms: C2_2  and  O2_4
REMARK    3  A    between atoms: O2_4  and  C3_5
REMARK    4  A    between atoms: C5_8  and  C6_9
REMARK    5  A    between atoms: C7_10  and  O4_11
REMARK    6  A    between atoms: C11_16  and  O6_17
REMARK    7  A    between atoms: O6_17  and  C12_18
REMARK    8  A    between atoms: C12_18  and  C13_19
REMARK    9  A    between atoms: C15_22  and  O8_23
REMARK   10  A    between atoms: O8_23  and  C16_24
REMARK   11  A    between atoms: C16_24  and  C17_26
REMARK   12  A    between atoms: C23_32  and  O10_33
REMARK   13  A    between atoms: C25_35  and  O11_36
REMARK   14  A    between atoms: O11_36  and  C26_37
REMARK   15  A    between atoms: C26_37  and  C27_39
REMARK   16  A    between atoms: C27_39  and  O13_40
REMARK   17  A    between atoms: C27_39  and  C28_41
REMARK   18  A    between atoms: C28_41  and  N1_42
REMARK   19  A    between atoms: C28_41  and  C36_51
REMARK   20  A    between atoms: C29_43  and  C30_45
REMARK   21  A    between atoms: C42_57  and  C47_62
REMARK   22  A    between atoms: C44_59  and  C45_60
REMARK   23  A    between atoms: C44_59  and  C46_61
REMARK                            x       y       z     vdW  Elec       q    Type
REMARK                         _______ _______ _______ _____ _____    ______ ____
ROOT
ATOM      1  C3  UNL     1      73.144  65.655 107.619  0.00  0.00    +0.000 C 
ATOM      2  C4  UNL     1      74.053  65.895 108.792  0.00  0.00    +0.000 C 
ATOM      3  O3  UNL     1      74.098  67.084 109.191  0.00  0.00    +0.000 OA
ATOM      4  C5  UNL     1      74.815  64.840 109.635  0.00  0.00    +0.000 C 
ATOM      5  C6  UNL     1      76.046  65.549 110.311  0.00  0.00    +0.000 C 
ATOM      6  C7  UNL     1      73.770  64.495 110.733  0.00  0.00    +0.000 C 
ATOM      7  C8  UNL     1      74.424  63.728 111.870  0.00  0.00    +0.000 C 
ATOM      8  C9  UNL     1      75.289  62.559 111.419  0.00  0.00    +0.000 C 
ATOM      9  O5  UNL     1      76.687  62.711 111.699  0.00  0.00    +0.000 OA
ATOM     10  C10 UNL     1      76.969  62.219 110.422  0.00  0.00    +0.000 C 
ATOM     11  C11 UNL     1      75.534  62.322 109.912  0.00  0.00    +0.000 C 
ATOM     12  C14 UNL     1      75.278  63.504 108.873  0.00  0.00    +0.000 C 
ATOM     13  C15 UNL     1      76.377  63.593 107.714  0.00  0.00    +0.000 C 
ATOM     14  C23 UNL     1      76.026  63.862 106.165  0.00  0.00    +0.000 C 
ATOM     15  C24 UNL     1      75.401  62.568 105.512  0.00  0.00    +0.000 C 
ATOM     16  C25 UNL     1      73.866  62.586 105.262  0.00  0.00    +0.000 C 
ATOM     17  C42 UNL     1      73.130  63.629 106.100  0.00  0.00    +0.000 C 
ATOM     18  C43 UNL     1      73.765  64.749 106.569  0.00  0.00    +0.000 C 
ATOM     19  C44 UNL     1      75.097  65.114 105.930  0.00  0.00    +0.000 C 
ATOM     20  C45 UNL     1      74.909  65.380 104.417  0.00  0.00    +0.000 C 
ATOM     21  C46 UNL     1      75.703  66.463 106.428  0.00  0.00    +0.000 C 
ATOM     22  C47 UNL     1      71.643  63.268 106.320  0.00  0.00    +0.000 C 
ENDROOT
BRANCH   6  23
ATOM     23  O4  UNL     1      72.743  63.670 110.229  0.00  0.00    +0.000 OA
ATOM     24  H9  UNL     1      72.030  63.666 110.920  0.00  0.00    +0.000 HD
ENDBRANCH   6  23
BRANCH  14  25
ATOM     25  O10 UNL     1      77.264  63.994 105.519  0.00  0.00    +0.000 OA
ATOM     26  H25 UNL     1      77.908  64.548 106.047  0.00  0.00    +0.000 HD
ENDBRANCH  14  25
BRANCH   1  27
ATOM     27  O2  UNL     1      71.856  65.213 108.102  0.00  0.00    +0.000 OA
BRANCH  27  29
ATOM     28  C1  UNL     1      70.345  67.227 108.086  0.00  0.00    +0.000 C 
ATOM     29  C2  UNL     1      70.909  66.018 108.762  0.00  0.00    +0.000 C 
ATOM     30  O1  UNL     1      70.613  65.802 109.975  0.00  0.00    +0.000 OA
ENDBRANCH  27  29
ENDBRANCH   1  27
BRANCH  11  31
ATOM     31  O6  UNL     1      75.111  61.005 109.556  0.00  0.00    +0.000 OA
BRANCH  31  32
ATOM     32  C12 UNL     1      74.100  60.509 108.692  0.00  0.00    +0.000 C 
ATOM     33  C13 UNL     1      74.504  59.569 107.606  0.00  0.00    +0.000 C 
ATOM     34  O7  UNL     1      72.921  60.965 108.643  0.00  0.00    +0.000 OA
ENDBRANCH  31  32
ENDBRANCH  11  31
BRANCH  13  35
ATOM     35  O8  UNL     1      77.409  64.487 108.110  0.00  0.00    +0.000 OA
BRANCH  35  36
ATOM     36  C16 UNL     1      78.780  64.105 108.196  0.00  0.00    +0.000 C 
ATOM     37  O9  UNL     1      79.273  63.581 109.244  0.00  0.00    +0.000 OA
BRANCH  36  38
ATOM     38  C17 UNL     1      79.657  64.372 107.056  0.00  0.00    +0.000 A 
ATOM     39  C18 UNL     1      79.740  65.717 106.562  0.00  0.00    +0.000 A 
ATOM     40  C19 UNL     1      80.509  65.981 105.420  0.00  0.00    +0.000 A 
ATOM     41  C20 UNL     1      81.145  64.931 104.757  0.00  0.00    +0.000 A 
ATOM     42  C21 UNL     1      81.082  63.584 105.262  0.00  0.00    +0.000 A 
ATOM     43  C22 UNL     1      80.356  63.344 106.430  0.00  0.00    +0.000 A 
ENDBRANCH  36  38
ENDBRANCH  35  36
ENDBRANCH  13  35
BRANCH  16  44
ATOM     44  O11 UNL     1      73.534  62.835 103.919  0.00  0.00    +0.000 OA
BRANCH  44  45
ATOM     45  C26 UNL     1      74.033  62.086 102.875  0.00  0.00    +0.000 C 
ATOM     46  O12 UNL     1      74.015  60.827 102.884  0.00  0.00    +0.000 OA
BRANCH  45  47
ATOM     47  C27 UNL     1      74.484  62.819 101.651  0.00  0.00    +0.000 C 
BRANCH  47  48
ATOM     48  O13 UNL     1      73.778  62.390 100.501  0.00  0.00    +0.000 OA
ATOM     49  H30 UNL     1      74.140  61.507 100.216  0.00  0.00    +0.000 HD
ENDBRANCH  47  48
BRANCH  47  50
ATOM     50  C28 UNL     1      76.017  62.679 101.440  0.00  0.00    +0.000 C 
BRANCH  50  51
ATOM     51  C36 UNL     1      76.720  64.043 101.442  0.00  0.00    +0.000 A 
ATOM     52  C37 UNL     1      77.818  64.280 102.320  0.00  0.00    +0.000 A 
ATOM     53  C38 UNL     1      78.333  65.556 102.480  0.00  0.00    +0.000 A 
ATOM     54  C39 UNL     1      77.887  66.600 101.633  0.00  0.00    +0.000 A 
ATOM     55  C40 UNL     1      76.886  66.347 100.704  0.00  0.00    +0.000 A 
ATOM     56  C41 UNL     1      76.335  65.066 100.574  0.00  0.00    +0.000 A 
ENDBRANCH  50  51
BRANCH  50  57
ATOM     57  N1  UNL     1      76.641  61.745 102.429  0.00  0.00    +0.000 N 
ATOM     58  C29 UNL     1      77.398  60.608 102.023  0.00  0.00    +0.000 C 
ATOM     59  O14 UNL     1      77.210  60.016 100.928  0.00  0.00    +0.000 OA
ATOM     60  H32 UNL     1      76.877  62.140 103.328  0.00  0.00    +0.000 HD
BRANCH  58  61
ATOM     61  C30 UNL     1      78.339  59.991 102.951  0.00  0.00    +0.000 A 
ATOM     62  C31 UNL     1      78.071  58.734 103.478  0.00  0.00    +0.000 A 
ATOM     63  C32 UNL     1      78.984  58.132 104.389  0.00  0.00    +0.000 A 
ATOM     64  C33 UNL     1      80.172  58.835 104.722  0.00  0.00    +0.000 A 
ATOM     65  C34 UNL     1      80.453  60.093 104.211  0.00  0.00    +0.000 A 
ATOM     66  C35 UNL     1      79.498  60.704 103.380  0.00  0.00    +0.000 A 
ENDBRANCH  58  61
ENDBRANCH  50  57
ENDBRANCH  47  50
ENDBRANCH  45  47
ENDBRANCH  44  45
ENDBRANCH  16  44
TORSDOF 17
ENDMDL
MODEL 17
REMARK VINA RESULT:      -6.7      1.860      5.611
REMARK  Name = ./S1150.pdb
REMARK  23 active torsions:
REMARK  status: ('A' for Active; 'I' for Inactive)
REMARK    1  A    between atoms: C1_1  and  C2_2
REMARK    2  A    between atoms: C2_2  and  O2_4
REMARK    3  A    between atoms: O2_4  and  C3_5
REMARK    4  A    between atoms: C5_8  and  C6_9
REMARK    5  A    between atoms: C7_10  and  O4_11
REMARK    6  A    between atoms: C11_16  and  O6_17
REMARK    7  A    between atoms: O6_17  and  C12_18
REMARK    8  A    between atoms: C12_18  and  C13_19
REMARK    9  A    between atoms: C15_22  and  O8_23
REMARK   10  A    between atoms: O8_23  and  C16_24
REMARK   11  A    between atoms: C16_24  and  C17_26
REMARK   12  A    between atoms: C23_32  and  O10_33
REMARK   13  A    between atoms: C25_35  and  O11_36
REMARK   14  A    between atoms: O11_36  and  C26_37
REMARK   15  A    between atoms: C26_37  and  C27_39
REMARK   16  A    between atoms: C27_39  and  O13_40
REMARK   17  A    between atoms: C27_39  and  C28_41
REMARK   18  A    between atoms: C28_41  and  N1_42
REMARK   19  A    between atoms: C28_41  and  C36_51
REMARK   20  A    between atoms: C29_43  and  C30_45
REMARK   21  A    between atoms: C42_57  and  C47_62
REMARK   22  A    between atoms: C44_59  and  C45_60
REMARK   23  A    between atoms: C44_59  and  C46_61
REMARK                            x       y       z     vdW  Elec       q    Type
REMARK                         _______ _______ _______ _____ _____    ______ ____
ROOT
ATOM      1  C3  UNL     1      73.796  64.786 109.328  0.00  0.00    +0.000 C 
ATOM      2  C4  UNL     1      73.382  66.228 109.427  0.00  0.00    +0.000 C 
ATOM      3  O3  UNL     1      72.393  66.444 110.170  0.00  0.00    +0.000 OA
ATOM      4  C5  UNL     1      74.105  67.468 108.841  0.00  0.00    +0.000 C 
ATOM      5  C6  UNL     1      73.047  68.618 108.672  0.00  0.00    +0.000 C 
ATOM      6  C7  UNL     1      75.076  67.844 109.996  0.00  0.00    +0.000 C 
ATOM      7  C8  UNL     1      75.650  69.234 109.778  0.00  0.00    +0.000 C 
ATOM      8  C9  UNL     1      76.197  69.472 108.377  0.00  0.00    +0.000 C 
ATOM      9  O5  UNL     1      75.479  70.453 107.617  0.00  0.00    +0.000 OA
ATOM     10  C10 UNL     1      75.554  69.607 106.506  0.00  0.00    +0.000 C 
ATOM     11  C11 UNL     1      76.026  68.386 107.291  0.00  0.00    +0.000 C 
ATOM     12  C14 UNL     1      74.926  67.247 107.478  0.00  0.00    +0.000 C 
ATOM     13  C15 UNL     1      74.143  66.879 106.132  0.00  0.00    +0.000 C 
ATOM     14  C23 UNL     1      73.794  65.373 105.682  0.00  0.00    +0.000 C 
ATOM     15  C24 UNL     1      75.092  64.641 105.161  0.00  0.00    +0.000 C 
ATOM     16  C25 UNL     1      75.730  63.590 106.115  0.00  0.00    +0.000 C 
ATOM     17  C42 UNL     1      75.303  63.758 107.570  0.00  0.00    +0.000 C 
ATOM     18  C43 UNL     1      74.119  64.364 107.904  0.00  0.00    +0.000 C 
ATOM     19  C44 UNL     1      73.081  64.522 106.802  0.00  0.00    +0.000 C 
ATOM     20  C45 UNL     1      72.667  63.135 106.255  0.00  0.00    +0.000 C 
ATOM     21  C46 UNL     1      71.717  65.107 107.280  0.00  0.00    +0.000 C 
ATOM     22  C47 UNL     1      76.332  63.168 108.561  0.00  0.00    +0.000 C 
ENDROOT
BRANCH   6  23
ATOM     23  O4  UNL     1      76.173  66.961 110.058  0.00  0.00    +0.000 OA
ATOM     24  H9  UNL     1      75.794  66.063 110.244  0.00  0.00    +0.000 HD
ENDBRANCH   6  23
BRANCH  14  25
ATOM     25  O10 UNL     1      73.002  65.500 104.532  0.00  0.00    +0.000 OA
ATOM     26  H25 UNL     1      72.102  65.888 104.735  0.00  0.00    +0.000 HD
ENDBRANCH  14  25
BRANCH   1  27
ATOM     27  O2  UNL     1      74.852  64.532 110.280  0.00  0.00    +0.000 OA
BRANCH  27  29
ATOM     28  C1  UNL     1      75.043  65.045 112.737  0.00  0.00    +0.000 C 
ATOM     29  C2  UNL     1      74.672  64.128 111.616  0.00  0.00    +0.000 C 
ATOM     30  O1  UNL     1      74.310  62.944 111.888  0.00  0.00    +0.000 OA
ENDBRANCH  27  29
ENDBRANCH   1  27
BRANCH  11  31
ATOM     31  O6  UNL     1      77.304  68.014 106.776  0.00  0.00    +0.000 OA
BRANCH  31  32
ATOM     32  C12 UNL     1      78.079  66.828 106.861  0.00  0.00    +0.000 C 
ATOM     33  C13 UNL     1      78.519  66.184 105.588  0.00  0.00    +0.000 C 
ATOM     34  O7  UNL     1      78.247  66.164 107.924  0.00  0.00    +0.000 OA
ENDBRANCH  31  32
ENDBRANCH  11  31
BRANCH  13  35
ATOM     35  O8  UNL     1      72.964  67.668 106.042  0.00  0.00    +0.000 OA
BRANCH  35  36
ATOM     36  C16 UNL     1      72.636  68.449 104.894  0.00  0.00    +0.000 C 
ATOM     37  O9  UNL     1      73.350  68.441 103.842  0.00  0.00    +0.000 OA
BRANCH  36  38
ATOM     38  C17 UNL     1      71.465  69.324 104.952  0.00  0.00    +0.000 A 
ATOM     39  C18 UNL     1      70.592  69.219 106.085  0.00  0.00    +0.000 A 
ATOM     40  C19 UNL     1      69.420  69.988 106.121  0.00  0.00    +0.000 A 
ATOM     41  C20 UNL     1      69.099  70.810 105.039  0.00  0.00    +0.000 A 
ATOM     42  C21 UNL     1      69.984  70.935 103.911  0.00  0.00    +0.000 A 
ATOM     43  C22 UNL     1      71.173  70.203 103.912  0.00  0.00    +0.000 A 
ENDBRANCH  36  38
ENDBRANCH  35  36
ENDBRANCH  13  35
BRANCH  16  44
ATOM     44  O11 UNL     1      75.426  62.267 105.752  0.00  0.00    +0.000 OA
BRANCH  44  45
ATOM     45  C26 UNL     1      76.298  61.467 105.045  0.00  0.00    +0.000 C 
ATOM     46  O12 UNL     1      77.230  61.945 104.345  0.00  0.00    +0.000 OA
BRANCH  45  47
ATOM     47  C27 UNL     1      76.191  59.987 105.237  0.00  0.00    +0.000 C 
BRANCH  47  48
ATOM     48  O13 UNL     1      77.105  59.290 104.411  0.00  0.00    +0.000 OA
ATOM     49  H30 UNL     1      77.953  59.156 104.916  0.00  0.00    +0.000 HD
ENDBRANCH  47  48
BRANCH  47  50
ATOM     50  C28 UNL     1      74.739  59.488 104.996  0.00  0.00    +0.000 C 
BRANCH  50  51
ATOM     51  C36 UNL     1      74.042  59.105 106.308  0.00  0.00    +0.000 A 
ATOM     52  C37 UNL     1      73.064  58.068 106.322  0.00  0.00    +0.000 A 
ATOM     53  C38 UNL     1      72.285  57.845 107.446  0.00  0.00    +0.000 A 
ATOM     54  C39 UNL     1      72.583  58.530 108.648  0.00  0.00    +0.000 A 
ATOM     55  C40 UNL     1      73.606  59.470 108.665  0.00  0.00    +0.000 A 
ATOM     56  C41 UNL     1      74.364  59.726 107.516  0.00  0.00    +0.000 A 
ENDBRANCH  50  51
BRANCH  50  57
ATOM     57  N1  UNL     1      73.925  60.472 104.215  0.00  0.00    +0.000 N 
ATOM     58  C29 UNL     1      72.916  60.060 103.298  0.00  0.00    +0.000 C 
ATOM     59  O14 UNL     1      72.944  58.952 102.701  0.00  0.00    +0.000 OA
ATOM     60  H32 UNL     1      73.801  61.381 104.636  0.00  0.00    +0.000 HD
BRANCH  58  61
ATOM     61  C30 UNL     1      71.868  60.994 102.901  0.00  0.00    +0.000 A 
ATOM     62  C31 UNL     1      70.944  61.440 103.837  0.00  0.00    +0.000 A 
ATOM     63  C32 UNL     1      69.917  62.348 103.451  0.00  0.00    +0.000 A 
ATOM     64  C33 UNL     1      69.880  62.795 102.104  0.00  0.00    +0.000 A 
ATOM     65  C34 UNL     1      70.789  62.355 101.154  0.00  0.00    +0.000 A 
ATOM     66  C35 UNL     1      71.742  61.395 101.537  0.00  0.00    +0.000 A 
ENDBRANCH  58  61
ENDBRANCH  50  57
ENDBRANCH  47  50
ENDBRANCH  45  47
ENDBRANCH  44  45
ENDBRANCH  16  44
TORSDOF 17
ENDMDL
MODEL 18
REMARK VINA RESULT:      -6.7      3.121      8.887
REMARK  Name = ./S1150.pdb
REMARK  23 active torsions:
REMARK  status: ('A' for Active; 'I' for Inactive)
REMARK    1  A    between atoms: C1_1  and  C2_2
REMARK    2  A    between atoms: C2_2  and  O2_4
REMARK    3  A    between atoms: O2_4  and  C3_5
REMARK    4  A    between atoms: C5_8  and  C6_9
REMARK    5  A    between atoms: C7_10  and  O4_11
REMARK    6  A    between atoms: C11_16  and  O6_17
REMARK    7  A    between atoms: O6_17  and  C12_18
REMARK    8  A    between atoms: C12_18  and  C13_19
REMARK    9  A    between atoms: C15_22  and  O8_23
REMARK   10  A    between atoms: O8_23  and  C16_24
REMARK   11  A    between atoms: C16_24  and  C17_26
REMARK   12  A    between atoms: C23_32  and  O10_33
REMARK   13  A    between atoms: C25_35  and  O11_36
REMARK   14  A    between atoms: O11_36  and  C26_37
REMARK   15  A    between atoms: C26_37  and  C27_39
REMARK   16  A    between atoms: C27_39  and  O13_40
REMARK   17  A    between atoms: C27_39  and  C28_41
REMARK   18  A    between atoms: C28_41  and  N1_42
REMARK   19  A    between atoms: C28_41  and  C36_51
REMARK   20  A    between atoms: C29_43  and  C30_45
REMARK   21  A    between atoms: C42_57  and  C47_62
REMARK   22  A    between atoms: C44_59  and  C45_60
REMARK   23  A    between atoms: C44_59  and  C46_61
REMARK                            x       y       z     vdW  Elec       q    Type
REMARK                         _______ _______ _______ _____ _____    ______ ____
ROOT
ATOM      1  C3  UNL     1      76.760  64.996 109.071  0.00  0.00    +0.000 C 
ATOM      2  C4  UNL     1      76.114  65.706 107.914  0.00  0.00    +0.000 C 
ATOM      3  O3  UNL     1      76.784  66.653 107.435  0.00  0.00    +0.000 OA
ATOM      4  C5  UNL     1      74.809  65.321 107.171  0.00  0.00    +0.000 C 
ATOM      5  C6  UNL     1      74.234  66.615 106.487  0.00  0.00    +0.000 C 
ATOM      6  C7  UNL     1      75.342  64.365 106.067  0.00  0.00    +0.000 C 
ATOM      7  C8  UNL     1      74.278  64.128 105.007  0.00  0.00    +0.000 C 
ATOM      8  C9  UNL     1      72.910  63.763 105.566  0.00  0.00    +0.000 C 
ATOM      9  O5  UNL     1      71.887  64.737 105.320  0.00  0.00    +0.000 OA
ATOM     10  C10 UNL     1      71.450  64.571 106.637  0.00  0.00    +0.000 C 
ATOM     11  C11 UNL     1      72.674  63.781 107.093  0.00  0.00    +0.000 C 
ATOM     12  C14 UNL     1      73.674  64.586 108.038  0.00  0.00    +0.000 C 
ATOM     13  C15 UNL     1      72.945  65.377 109.223  0.00  0.00    +0.000 C 
ATOM     14  C23 UNL     1      73.492  65.425 110.737  0.00  0.00    +0.000 C 
ATOM     15  C24 UNL     1      73.229  64.045 111.459  0.00  0.00    +0.000 C 
ATOM     16  C25 UNL     1      74.462  63.117 111.657  0.00  0.00    +0.000 C 
ATOM     17  C42 UNL     1      75.625  63.450 110.726  0.00  0.00    +0.000 C 
ATOM     18  C43 UNL     1      75.785  64.706 110.201  0.00  0.00    +0.000 C 
ATOM     19  C44 UNL     1      75.008  65.840 110.855  0.00  0.00    +0.000 C 
ATOM     20  C45 UNL     1      75.422  65.985 112.339  0.00  0.00    +0.000 C 
ATOM     21  C46 UNL     1      75.331  67.255 110.284  0.00  0.00    +0.000 C 
ATOM     22  C47 UNL     1      76.554  62.239 110.484  0.00  0.00    +0.000 C 
ENDROOT
BRANCH   6  23
ATOM     23  O4  UNL     1      75.672  63.099 106.594  0.00  0.00    +0.000 OA
ATOM     24  H9  UNL     1      74.862  62.536 106.485  0.00  0.00    +0.000 HD
ENDBRANCH   6  23
BRANCH  14  25
ATOM     25  O10 UNL     1      72.646  66.317 111.412  0.00  0.00    +0.000 OA
ATOM     26  H25 UNL     1      73.073  67.212 111.548  0.00  0.00    +0.000 HD
ENDBRANCH  14  25
BRANCH   1  27
ATOM     27  O2  UNL     1      77.464  63.835 108.579  0.00  0.00    +0.000 OA
BRANCH  27  29
ATOM     28  C1  UNL     1      79.976  63.811 108.749  0.00  0.00    +0.000 C 
ATOM     29  C2  UNL     1      78.718  63.848 107.940  0.00  0.00    +0.000 C 
ATOM     30  O1  UNL     1      78.802  64.014 106.687  0.00  0.00    +0.000 OA
ENDBRANCH  27  29
ENDBRANCH   1  27
BRANCH  11  31
ATOM     31  O6  UNL     1      72.219  62.499 107.526  0.00  0.00    +0.000 OA
BRANCH  31  32
ATOM     32  C12 UNL     1      72.886  61.287 107.847  0.00  0.00    +0.000 C 
ATOM     33  C13 UNL     1      72.879  60.193 106.833  0.00  0.00    +0.000 C 
ATOM     34  O7  UNL     1      73.304  60.992 109.003  0.00  0.00    +0.000 OA
ENDBRANCH  31  32
ENDBRANCH  11  31
BRANCH  13  35
ATOM     35  O8  UNL     1      72.660  66.703 108.798  0.00  0.00    +0.000 OA
BRANCH  35  36
ATOM     36  C16 UNL     1      71.336  67.227 108.717  0.00  0.00    +0.000 C 
ATOM     37  O9  UNL     1      70.362  66.709 109.350  0.00  0.00    +0.000 OA
BRANCH  36  38
ATOM     38  C17 UNL     1      71.084  68.366 107.836  0.00  0.00    +0.000 A 
ATOM     39  C18 UNL     1      70.998  68.129 106.423  0.00  0.00    +0.000 A 
ATOM     40  C19 UNL     1      70.840  69.217 105.553  0.00  0.00    +0.000 A 
ATOM     41  C20 UNL     1      70.812  70.514 106.067  0.00  0.00    +0.000 A 
ATOM     42  C21 UNL     1      70.875  70.755 107.485  0.00  0.00    +0.000 A 
ATOM     43  C22 UNL     1      70.980  69.659 108.343  0.00  0.00    +0.000 A 
ENDBRANCH  36  38
ENDBRANCH  35  36
ENDBRANCH  13  35
BRANCH  16  44
ATOM     44  O11 UNL     1      74.967  63.154 112.968  0.00  0.00    +0.000 OA
BRANCH  44  45
ATOM     45  C26 UNL     1      74.917  62.070 113.819  0.00  0.00    +0.000 C 
ATOM     46  O12 UNL     1      73.934  61.282 113.845  0.00  0.00    +0.000 OA
BRANCH  45  47
ATOM     47  C27 UNL     1      76.136  61.770 114.632  0.00  0.00    +0.000 C 
BRANCH  47  48
ATOM     48  O13 UNL     1      76.183  60.407 115.014  0.00  0.00    +0.000 OA
ATOM     49  H30 UNL     1      76.338  59.854 114.201  0.00  0.00    +0.000 HD
ENDBRANCH  47  48
BRANCH  47  50
ATOM     50  C28 UNL     1      76.227  62.695 115.878  0.00  0.00    +0.000 C 
BRANCH  50  51
ATOM     51  C36 UNL     1      77.676  62.874 116.350  0.00  0.00    +0.000 A 
ATOM     52  C37 UNL     1      78.754  62.403 115.545  0.00  0.00    +0.000 A 
ATOM     53  C38 UNL     1      80.047  62.375 116.040  0.00  0.00    +0.000 A 
ATOM     54  C39 UNL     1      80.330  62.984 117.286  0.00  0.00    +0.000 A 
ATOM     55  C40 UNL     1      79.296  63.537 118.029  0.00  0.00    +0.000 A 
ATOM     56  C41 UNL     1      77.981  63.525 117.547  0.00  0.00    +0.000 A 
ENDBRANCH  50  51
BRANCH  50  57
ATOM     57  N1  UNL     1      75.562  64.016 115.652  0.00  0.00    +0.000 N 
ATOM     58  C29 UNL     1      74.564  64.521 116.535  0.00  0.00    +0.000 C 
ATOM     59  O14 UNL     1      73.822  63.778 117.228  0.00  0.00    +0.000 OA
ATOM     60  H32 UNL     1      76.098  64.704 115.145  0.00  0.00    +0.000 HD
BRANCH  58  61
ATOM     61  C30 UNL     1      74.264  65.949 116.552  0.00  0.00    +0.000 A 
ATOM     62  C31 UNL     1      75.138  66.850 115.957  0.00  0.00    +0.000 A 
ATOM     63  C32 UNL     1      74.851  68.244 115.978  0.00  0.00    +0.000 A 
ATOM     64  C33 UNL     1      73.649  68.679 116.596  0.00  0.00    +0.000 A 
ATOM     65  C34 UNL     1      72.768  67.795 117.201  0.00  0.00    +0.000 A 
ATOM     66  C35 UNL     1      73.113  66.433 117.243  0.00  0.00    +0.000 A 
ENDBRANCH  58  61
ENDBRANCH  50  57
ENDBRANCH  47  50
ENDBRANCH  45  47
ENDBRANCH  44  45
ENDBRANCH  16  44
TORSDOF 17
ENDMDL
MODEL 19
REMARK VINA RESULT:      -6.7      2.672      9.785
REMARK  Name = ./S1150.pdb
REMARK  23 active torsions:
REMARK  status: ('A' for Active; 'I' for Inactive)
REMARK    1  A    between atoms: C1_1  and  C2_2
REMARK    2  A    between atoms: C2_2  and  O2_4
REMARK    3  A    between atoms: O2_4  and  C3_5
REMARK    4  A    between atoms: C5_8  and  C6_9
REMARK    5  A    between atoms: C7_10  and  O4_11
REMARK    6  A    between atoms: C11_16  and  O6_17
REMARK    7  A    between atoms: O6_17  and  C12_18
REMARK    8  A    between atoms: C12_18  and  C13_19
REMARK    9  A    between atoms: C15_22  and  O8_23
REMARK   10  A    between atoms: O8_23  and  C16_24
REMARK   11  A    between atoms: C16_24  and  C17_26
REMARK   12  A    between atoms: C23_32  and  O10_33
REMARK   13  A    between atoms: C25_35  and  O11_36
REMARK   14  A    between atoms: O11_36  and  C26_37
REMARK   15  A    between atoms: C26_37  and  C27_39
REMARK   16  A    between atoms: C27_39  and  O13_40
REMARK   17  A    between atoms: C27_39  and  C28_41
REMARK   18  A    between atoms: C28_41  and  N1_42
REMARK   19  A    between atoms: C28_41  and  C36_51
REMARK   20  A    between atoms: C29_43  and  C30_45
REMARK   21  A    between atoms: C42_57  and  C47_62
REMARK   22  A    between atoms: C44_59  and  C45_60
REMARK   23  A    between atoms: C44_59  and  C46_61
REMARK                            x       y       z     vdW  Elec       q    Type
REMARK                         _______ _______ _______ _____ _____    ______ ____
ROOT
ATOM      1  C3  UNL     1      72.200  61.236 103.498  0.00  0.00    +0.000 C 
ATOM      2  C4  UNL     1      72.928  60.404 102.479  0.00  0.00    +0.000 C 
ATOM      3  O3  UNL     1      72.204  59.609 101.831  0.00  0.00    +0.000 OA
ATOM      4  C5  UNL     1      74.413  60.514 102.048  0.00  0.00    +0.000 C 
ATOM      5  C6  UNL     1      74.855  59.126 101.453  0.00  0.00    +0.000 C 
ATOM      6  C7  UNL     1      74.333  61.552 100.894  0.00  0.00    +0.000 C 
ATOM      7  C8  UNL     1      75.627  61.564 100.096  0.00  0.00    +0.000 C 
ATOM      8  C9  UNL     1      76.885  61.649 100.948  0.00  0.00    +0.000 C 
ATOM      9  O5  UNL     1      77.723  60.487 100.889  0.00  0.00    +0.000 OA
ATOM     10  C10 UNL     1      77.888  60.568 102.275  0.00  0.00    +0.000 C 
ATOM     11  C11 UNL     1      76.776  61.591 102.489  0.00  0.00    +0.000 C 
ATOM     12  C14 UNL     1      75.455  61.009 103.166  0.00  0.00    +0.000 C 
ATOM     13  C15 UNL     1      75.737  60.094 104.448  0.00  0.00    +0.000 C 
ATOM     14  C23 UNL     1      74.876  60.165 105.807  0.00  0.00    +0.000 C 
ATOM     15  C24 UNL     1      75.243  61.467 106.621  0.00  0.00    +0.000 C 
ATOM     16  C25 UNL     1      74.206  62.626 106.587  0.00  0.00    +0.000 C 
ATOM     17  C42 UNL     1      73.230  62.529 105.416  0.00  0.00    +0.000 C 
ATOM     18  C43 UNL     1      72.943  61.328 104.820  0.00  0.00    +0.000 C 
ATOM     19  C44 UNL     1      73.319  60.065 105.581  0.00  0.00    +0.000 C 
ATOM     20  C45 UNL     1      72.572  60.015 106.935  0.00  0.00    +0.000 C 
ATOM     21  C46 UNL     1      72.854  58.741 104.900  0.00  0.00    +0.000 C 
ATOM     22  C47 UNL     1      72.635  63.902 105.028  0.00  0.00    +0.000 C 
ENDROOT
BRANCH   6  23
ATOM     23  O4  UNL     1      74.153  62.861 101.386  0.00  0.00    +0.000 OA
ATOM     24  H9  UNL     1      73.407  62.808 102.039  0.00  0.00    +0.000 HD
ENDBRANCH   6  23
BRANCH  14  25
ATOM     25  O10 UNL     1      75.361  59.124 106.612  0.00  0.00    +0.000 OA
ATOM     26  H25 UNL     1      75.392  59.379 107.579  0.00  0.00    +0.000 HD
ENDBRANCH  14  25
BRANCH   1  27
ATOM     27  O2  UNL     1      71.863  62.512 102.912  0.00  0.00    +0.000 OA
BRANCH  27  29
ATOM     28  C1  UNL     1      69.415  62.419 102.333  0.00  0.00    +0.000 C 
ATOM     29  C2  UNL     1      70.833  62.739 101.981  0.00  0.00    +0.000 C 
ATOM     30  O1  UNL     1      71.102  63.100 100.796  0.00  0.00    +0.000 OA
ENDBRANCH  27  29
ENDBRANCH   1  27
BRANCH  11  31
ATOM     31  O6  UNL     1      77.370  62.758 103.058  0.00  0.00    +0.000 OA
BRANCH  31  32
ATOM     32  C12 UNL     1      76.970  63.649 104.088  0.00  0.00    +0.000 C 
ATOM     33  C13 UNL     1      76.003  64.732 103.741  0.00  0.00    +0.000 C 
ATOM     34  O7  UNL     1      77.528  63.723 105.220  0.00  0.00    +0.000 OA
ENDBRANCH  31  32
ENDBRANCH  11  31
BRANCH  13  35
ATOM     35  O8  UNL     1      75.840  58.735 104.043  0.00  0.00    +0.000 OA
BRANCH  35  36
ATOM     36  C16 UNL     1      76.996  57.936 104.285  0.00  0.00    +0.000 C 
ATOM     37  O9  UNL     1      77.951  58.332 105.025  0.00  0.00    +0.000 OA
BRANCH  36  38
ATOM     38  C17 UNL     1      77.105  56.639 103.618  0.00  0.00    +0.000 A 
ATOM     39  C18 UNL     1      78.392  56.006 103.567  0.00  0.00    +0.000 A 
ATOM     40  C19 UNL     1      78.537  54.803 102.861  0.00  0.00    +0.000 A 
ATOM     41  C20 UNL     1      77.442  54.262 102.185  0.00  0.00    +0.000 A 
ATOM     42  C21 UNL     1      76.144  54.882 102.253  0.00  0.00    +0.000 A 
ATOM     43  C22 UNL     1      76.003  56.051 103.002  0.00  0.00    +0.000 A 
ENDBRANCH  36  38
ENDBRANCH  35  36
ENDBRANCH  13  35
BRANCH  16  44
ATOM     44  O11 UNL     1      73.430  62.699 107.757  0.00  0.00    +0.000 OA
BRANCH  44  45
ATOM     45  C26 UNL     1      73.761  63.508 108.823  0.00  0.00    +0.000 C 
ATOM     46  O12 UNL     1      73.354  63.277 109.992  0.00  0.00    +0.000 OA
BRANCH  45  47
ATOM     47  C27 UNL     1      74.738  64.613 108.576  0.00  0.00    +0.000 C 
BRANCH  47  48
ATOM     48  O13 UNL     1      76.041  64.258 109.003  0.00  0.00    +0.000 OA
ATOM     49  H30 UNL     1      76.461  65.051 109.436  0.00  0.00    +0.000 HD
ENDBRANCH  47  48
BRANCH  47  50
ATOM     50  C28 UNL     1      74.280  65.937 109.250  0.00  0.00    +0.000 C 
BRANCH  50  51
ATOM     51  C36 UNL     1      72.867  66.340 108.810  0.00  0.00    +0.000 A 
ATOM     52  C37 UNL     1      72.593  66.601 107.435  0.00  0.00    +0.000 A 
ATOM     53  C38 UNL     1      71.385  67.157 107.047  0.00  0.00    +0.000 A 
ATOM     54  C39 UNL     1      70.346  67.301 107.998  0.00  0.00    +0.000 A 
ATOM     55  C40 UNL     1      70.576  66.951 109.322  0.00  0.00    +0.000 A 
ATOM     56  C41 UNL     1      71.813  66.430 109.722  0.00  0.00    +0.000 A 
ENDBRANCH  50  51
BRANCH  50  57
ATOM     57  N1  UNL     1      74.388  65.878 110.742  0.00  0.00    +0.000 N 
ATOM     58  C29 UNL     1      74.935  66.952 111.503  0.00  0.00    +0.000 C 
ATOM     59  O14 UNL     1      75.783  67.758 111.039  0.00  0.00    +0.000 OA
ATOM     60  H32 UNL     1      73.716  65.294 111.216  0.00  0.00    +0.000 HD
BRANCH  58  61
ATOM     61  C30 UNL     1      74.631  67.064 112.925  0.00  0.00    +0.000 A 
ATOM     62  C31 UNL     1      73.426  66.578 113.419  0.00  0.00    +0.000 A 
ATOM     63  C32 UNL     1      73.125  66.691 114.805  0.00  0.00    +0.000 A 
ATOM     64  C33 UNL     1      74.088  67.288 115.662  0.00  0.00    +0.000 A 
ATOM     65  C34 UNL     1      75.292  67.785 115.186  0.00  0.00    +0.000 A 
ATOM     66  C35 UNL     1      75.532  67.738 113.802  0.00  0.00    +0.000 A 
ENDBRANCH  58  61
ENDBRANCH  50  57
ENDBRANCH  47  50
ENDBRANCH  45  47
ENDBRANCH  44  45
ENDBRANCH  16  44
TORSDOF 17
ENDMDL
MODEL 20
REMARK VINA RESULT:      -6.6      3.897      8.661
REMARK  Name = ./S1150.pdb
REMARK  23 active torsions:
REMARK  status: ('A' for Active; 'I' for Inactive)
REMARK    1  A    between atoms: C1_1  and  C2_2
REMARK    2  A    between atoms: C2_2  and  O2_4
REMARK    3  A    between atoms: O2_4  and  C3_5
REMARK    4  A    between atoms: C5_8  and  C6_9
REMARK    5  A    between atoms: C7_10  and  O4_11
REMARK    6  A    between atoms: C11_16  and  O6_17
REMARK    7  A    between atoms: O6_17  and  C12_18
REMARK    8  A    between atoms: C12_18  and  C13_19
REMARK    9  A    between atoms: C15_22  and  O8_23
REMARK   10  A    between atoms: O8_23  and  C16_24
REMARK   11  A    between atoms: C16_24  and  C17_26
REMARK   12  A    between atoms: C23_32  and  O10_33
REMARK   13  A    between atoms: C25_35  and  O11_36
REMARK   14  A    between atoms: O11_36  and  C26_37
REMARK   15  A    between atoms: C26_37  and  C27_39
REMARK   16  A    between atoms: C27_39  and  O13_40
REMARK   17  A    between atoms: C27_39  and  C28_41
REMARK   18  A    between atoms: C28_41  and  N1_42
REMARK   19  A    between atoms: C28_41  and  C36_51
REMARK   20  A    between atoms: C29_43  and  C30_45
REMARK   21  A    between atoms: C42_57  and  C47_62
REMARK   22  A    between atoms: C44_59  and  C45_60
REMARK   23  A    between atoms: C44_59  and  C46_61
REMARK                            x       y       z     vdW  Elec       q    Type
REMARK                         _______ _______ _______ _____ _____    ______ ____
ROOT
ATOM      1  C3  UNL     1      76.795  65.397 108.731  0.00  0.00    +0.000 C 
ATOM      2  C4  UNL     1      76.182  65.663 107.384  0.00  0.00    +0.000 C 
ATOM      3  O3  UNL     1      76.812  66.482 106.670  0.00  0.00    +0.000 OA
ATOM      4  C5  UNL     1      74.968  64.952 106.734  0.00  0.00    +0.000 C 
ATOM      5  C6  UNL     1      74.347  65.922 105.663  0.00  0.00    +0.000 C 
ATOM      6  C7  UNL     1      75.650  63.763 106.000  0.00  0.00    +0.000 C 
ATOM      7  C8  UNL     1      74.686  63.121 105.016  0.00  0.00    +0.000 C 
ATOM      8  C9  UNL     1      73.314  62.812 105.596  0.00  0.00    +0.000 C 
ATOM      9  O5  UNL     1      72.240  63.567 105.019  0.00  0.00    +0.000 OA
ATOM     10  C10 UNL     1      71.723  63.763 106.302  0.00  0.00    +0.000 C 
ATOM     11  C11 UNL     1      72.967  63.265 107.033  0.00  0.00    +0.000 C 
ATOM     12  C14 UNL     1      73.832  64.407 107.732  0.00  0.00    +0.000 C 
ATOM     13  C15 UNL     1      72.962  65.445 108.585  0.00  0.00    +0.000 C 
ATOM     14  C23 UNL     1      73.393  65.995 110.035  0.00  0.00    +0.000 C 
ATOM     15  C24 UNL     1      73.185  64.877 111.131  0.00  0.00    +0.000 C 
ATOM     16  C25 UNL     1      74.467  64.172 111.659  0.00  0.00    +0.000 C 
ATOM     17  C42 UNL     1      75.665  64.318 110.725  0.00  0.00    +0.000 C 
ATOM     18  C43 UNL     1      75.766  65.369 109.849  0.00  0.00    +0.000 C 
ATOM     19  C44 UNL     1      74.861  66.567 110.090  0.00  0.00    +0.000 C 
ATOM     20  C45 UNL     1      75.155  67.189 111.477  0.00  0.00    +0.000 C 
ATOM     21  C46 UNL     1      75.115  67.771 109.130  0.00  0.00    +0.000 C 
ATOM     22  C47 UNL     1      76.699  63.184 110.906  0.00  0.00    +0.000 C 
ENDROOT
BRANCH   6  23
ATOM     23  O4  UNL     1      76.037  62.751 106.902  0.00  0.00    +0.000 OA
ATOM     24  H9  UNL     1      76.081  63.182 107.796  0.00  0.00    +0.000 HD
ENDBRANCH   6  23
BRANCH  14  25
ATOM     25  O10 UNL     1      72.435  66.965 110.367  0.00  0.00    +0.000 OA
ATOM     26  H25 UNL     1      72.459  67.201 111.339  0.00  0.00    +0.000 HD
ENDBRANCH  14  25
BRANCH   1  27
ATOM     27  O2  UNL     1      77.620  64.214 108.648  0.00  0.00    +0.000 OA
BRANCH  27  29
ATOM     28  C1  UNL     1      79.935  63.468 109.296  0.00  0.00    +0.000 C 
ATOM     29  C2  UNL     1      79.002  64.195 108.382  0.00  0.00    +0.000 C 
ATOM     30  O1  UNL     1      79.486  64.891 107.440  0.00  0.00    +0.000 OA
ENDBRANCH  27  29
ENDBRANCH   1  27
BRANCH  11  31
ATOM     31  O6  UNL     1      72.581  62.135 107.815  0.00  0.00    +0.000 OA
BRANCH  31  32
ATOM     32  C12 UNL     1      73.233  60.922 108.159  0.00  0.00    +0.000 C 
ATOM     33  C13 UNL     1      74.316  60.974 109.184  0.00  0.00    +0.000 C 
ATOM     34  O7  UNL     1      73.108  59.841 107.514  0.00  0.00    +0.000 OA
ENDBRANCH  31  32
ENDBRANCH  11  31
BRANCH  13  35
ATOM     35  O8  UNL     1      72.608  66.549 107.763  0.00  0.00    +0.000 OA
BRANCH  35  36
ATOM     36  C16 UNL     1      71.274  67.042 107.654  0.00  0.00    +0.000 C 
ATOM     37  O9  UNL     1      70.293  66.476 108.232  0.00  0.00    +0.000 OA
BRANCH  36  38
ATOM     38  C17 UNL     1      71.023  68.208 106.807  0.00  0.00    +0.000 A 
ATOM     39  C18 UNL     1      69.931  69.074 107.148  0.00  0.00    +0.000 A 
ATOM     40  C19 UNL     1      69.621  70.150 106.304  0.00  0.00    +0.000 A 
ATOM     41  C20 UNL     1      70.348  70.337 105.127  0.00  0.00    +0.000 A 
ATOM     42  C21 UNL     1      71.458  69.484 104.793  0.00  0.00    +0.000 A 
ATOM     43  C22 UNL     1      71.789  68.449 105.669  0.00  0.00    +0.000 A 
ENDBRANCH  36  38
ENDBRANCH  35  36
ENDBRANCH  13  35
BRANCH  16  44
ATOM     44  O11 UNL     1      74.872  64.647 112.918  0.00  0.00    +0.000 OA
BRANCH  44  45
ATOM     45  C26 UNL     1      74.753  63.902 114.071  0.00  0.00    +0.000 C 
ATOM     46  O12 UNL     1      75.717  63.733 114.864  0.00  0.00    +0.000 OA
BRANCH  45  47
ATOM     47  C27 UNL     1      73.391  63.398 114.433  0.00  0.00    +0.000 C 
BRANCH  47  48
ATOM     48  O13 UNL     1      72.532  64.456 114.818  0.00  0.00    +0.000 OA
ATOM     49  H30 UNL     1      71.777  64.077 115.345  0.00  0.00    +0.000 HD
ENDBRANCH  47  48
BRANCH  47  50
ATOM     50  C28 UNL     1      73.465  62.316 115.546  0.00  0.00    +0.000 C 
BRANCH  50  51
ATOM     51  C36 UNL     1      72.078  61.759 115.892  0.00  0.00    +0.000 A 
ATOM     52  C37 UNL     1      71.558  60.640 115.177  0.00  0.00    +0.000 A 
ATOM     53  C38 UNL     1      70.238  60.251 115.336  0.00  0.00    +0.000 A 
ATOM     54  C39 UNL     1      69.450  60.852 116.346  0.00  0.00    +0.000 A 
ATOM     55  C40 UNL     1      69.988  61.875 117.116  0.00  0.00    +0.000 A 
ATOM     56  C41 UNL     1      71.309  62.298 116.924  0.00  0.00    +0.000 A 
ENDBRANCH  50  51
BRANCH  50  57
ATOM     57  N1  UNL     1      74.422  61.217 115.204  0.00  0.00    +0.000 N 
ATOM     58  C29 UNL     1      75.139  60.500 116.205  0.00  0.00    +0.000 C 
ATOM     59  O14 UNL     1      75.431  60.994 117.326  0.00  0.00    +0.000 OA
ATOM     60  H32 UNL     1      74.244  60.722 114.343  0.00  0.00    +0.000 HD
BRANCH  58  61
ATOM     61  C30 UNL     1      75.699  59.188 115.899  0.00  0.00    +0.000 A 
ATOM     62  C31 UNL     1      77.068  59.045 115.706  0.00  0.00    +0.000 A 
ATOM     63  C32 UNL     1      77.616  57.767 115.402  0.00  0.00    +0.000 A 
ATOM     64  C33 UNL     1      76.738  56.654 115.325  0.00  0.00    +0.000 A 
ATOM     65  C34 UNL     1      75.369  56.779 115.507  0.00  0.00    +0.000 A 
ATOM     66  C35 UNL     1      74.840  58.063 115.723  0.00  0.00    +0.000 A 
ENDBRANCH  58  61
ENDBRANCH  50  57
ENDBRANCH  47  50
ENDBRANCH  45  47
ENDBRANCH  44  45
ENDBRANCH  16  44
TORSDOF 17
ENDMDL
