MODEL 1
REMARK VINA RESULT:      -8.8      0.000      0.000
REMARK  Name = ./S1183.pdb
REMARK  11 active torsions:
REMARK  status: ('A' for Active; 'I' for Inactive)
REMARK    1  A    between atoms: C1_1  and  C2_2
REMARK    2  A    between atoms: C2_2  and  C3_3
REMARK    3  A    between atoms: C2_2  and  C4_4
REMARK    4  A    between atoms: C2_2  and  O1_5
REMARK    5  A    between atoms: O1_5  and  C5_6
REMARK    6  A    between atoms: N1_8  and  C6_9
REMARK    7  A    between atoms: C16_19  and  C32_43
REMARK    8  A    between atoms: C20_25  and  O5_30
REMARK    9  A    between atoms: O5_30  and  C23_31
REMARK   10  A    between atoms: N5_45  and  S1_46
REMARK   11  A    between atoms: S1_46  and  C33_49
REMARK                            x       y       z     vdW  Elec       q    Type
REMARK                         _______ _______ _______ _____ _____    ______ ____
ROOT
ATOM      1  C6  UNL     1      74.543  61.421 107.207  0.00  0.00    +0.000 C 
ATOM      2  C7  UNL     1      75.756  61.875 108.068  0.00  0.00    +0.000 C 
ATOM      3  C8  UNL     1      76.513  63.128 107.575  0.00  0.00    +0.000 C 
ATOM      4  C9  UNL     1      75.709  64.435 107.609  0.00  0.00    +0.000 C 
ATOM      5  C10 UNL     1      75.448  64.958 109.031  0.00  0.00    +0.000 C 
ATOM      6  C11 UNL     1      74.847  66.374 108.988  0.00  0.00    +0.000 C 
ATOM      7  C12 UNL     1      74.279  66.809 110.316  0.00  0.00    +0.000 C 
ATOM      8  C13 UNL     1      73.078  66.423 110.783  0.00  0.00    +0.000 C 
ATOM      9  C14 UNL     1      72.230  65.390 110.094  0.00  0.00    +0.000 C 
ATOM     10  C15 UNL     1      70.723  65.482 110.342  0.00  0.00    +0.000 C 
ATOM     11  C16 UNL     1      71.290  65.820 108.959  0.00  0.00    +0.000 C 
ATOM     12  N2  UNL     1      71.079  64.766 107.955  0.00  0.00    +0.000 N 
ATOM     13  C17 UNL     1      71.878  64.684 106.760  0.00  0.00    +0.000 C 
ATOM     14  O3  UNL     1      72.584  65.663 106.404  0.00  0.00    +0.000 OA
ATOM     15  C18 UNL     1      71.861  63.454 105.886  0.00  0.00    +0.000 C 
ATOM     16  C19 UNL     1      70.486  63.206 105.259  0.00  0.00    +0.000 C 
ATOM     17  C20 UNL     1      70.215  61.699 105.383  0.00  0.00    +0.000 C 
ATOM     18  C21 UNL     1      71.293  61.135 106.318  0.00  0.00    +0.000 C 
ATOM     19  N3  UNL     1      72.176  62.241 106.625  0.00  0.00    +0.000 N 
ATOM     20  C22 UNL     1      73.250  62.115 107.571  0.00  0.00    +0.000 C 
ATOM     21  O4  UNL     1      73.024  62.403 108.774  0.00  0.00    +0.000 OA
ATOM     22  H27 UNL     1      70.427  63.976 108.172  0.00  0.00    +0.000 HD
ENDROOT
BRANCH   1  25
ATOM     23  C5  UNL     1      75.486  60.521 105.024  0.00  0.00    +0.000 C 
ATOM     24  O2  UNL     1      75.790  59.432 105.578  0.00  0.00    +0.000 OA
ATOM     25  N1  UNL     1      74.834  61.549 105.776  0.00  0.00    +0.000 N 
ATOM     26  H10 UNL     1      74.716  62.480 105.317  0.00  0.00    +0.000 HD
BRANCH  23  27
ATOM     27  O1  UNL     1      75.790  60.756 103.675  0.00  0.00    +0.000 OA
BRANCH  27  29
ATOM     28  C1  UNL     1      76.862  61.972 101.917  0.00  0.00    +0.000 C 
ATOM     29  C2  UNL     1      77.083  61.064 103.135  0.00  0.00    +0.000 C 
ATOM     30  C3  UNL     1      77.933  61.817 104.174  0.00  0.00    +0.000 C 
ATOM     31  C4  UNL     1      77.803  59.781 102.673  0.00  0.00    +0.000 C 
ENDBRANCH  27  29
ENDBRANCH  23  27
ENDBRANCH   1  25
BRANCH  11  32
ATOM     32  C32 UNL     1      71.056  67.258 108.511  0.00  0.00    +0.000 C 
ATOM     33  O7  UNL     1      69.957  67.804 108.803  0.00  0.00    +0.000 OA
ATOM     34  N5  UNL     1      72.049  68.028 107.811  0.00  0.00    +0.000 N 
ATOM     35  H41 UNL     1      73.027  67.691 107.695  0.00  0.00    +0.000 HD
BRANCH  34  36
ATOM     36  S1  UNL     1      71.676  69.586 107.150  0.00  0.00    +0.000 S 
ATOM     37  O8  UNL     1      71.308  70.521 108.271  0.00  0.00    +0.000 OA
ATOM     38  O9  UNL     1      72.875  70.121 106.418  0.00  0.00    +0.000 OA
BRANCH  36  39
ATOM     39  C33 UNL     1      70.322  69.404 105.991  0.00  0.00    +0.000 C 
ATOM     40  C34 UNL     1      70.079  70.599 105.086  0.00  0.00    +0.000 C 
ATOM     41  C35 UNL     1      69.140  70.321 106.254  0.00  0.00    +0.000 C 
ENDBRANCH  36  39
ENDBRANCH  34  36
ENDBRANCH  11  32
BRANCH  17  42
ATOM     42  O5  UNL     1      70.253  61.083 104.093  0.00  0.00    +0.000 OA
BRANCH  42  43
ATOM     43  C23 UNL     1      71.266  61.322 103.156  0.00  0.00    +0.000 C 
ATOM     44  O6  UNL     1      72.476  61.364 103.517  0.00  0.00    +0.000 OA
ATOM     45  N4  UNL     1      70.929  61.499 101.776  0.00  0.00    +0.000 N 
ATOM     46  C24 UNL     1      71.907  61.809 100.729  0.00  0.00    +0.000 C 
ATOM     47  C25 UNL     1      71.118  61.658  99.482  0.00  0.00    +0.000 A 
ATOM     48  C26 UNL     1      69.815  61.312  99.764  0.00  0.00    +0.000 A 
ATOM     49  C27 UNL     1      69.601  61.204 101.227  0.00  0.00    +0.000 C 
ATOM     50  C28 UNL     1      68.885  61.089  98.744  0.00  0.00    +0.000 A 
ATOM     51  C29 UNL     1      69.306  61.229  97.412  0.00  0.00    +0.000 A 
ATOM     52  C30 UNL     1      70.640  61.586  97.124  0.00  0.00    +0.000 A 
ATOM     53  C31 UNL     1      71.557  61.810  98.166  0.00  0.00    +0.000 A 
ATOM     54  F1  UNL     1      67.605  60.743  99.032  0.00  0.00    +0.000 F 
ENDBRANCH  42  43
ENDBRANCH  17  42
TORSDOF 8
ENDMDL
MODEL 2
REMARK VINA RESULT:      -8.6      1.204      1.515
REMARK  Name = ./S1183.pdb
REMARK  11 active torsions:
REMARK  status: ('A' for Active; 'I' for Inactive)
REMARK    1  A    between atoms: C1_1  and  C2_2
REMARK    2  A    between atoms: C2_2  and  C3_3
REMARK    3  A    between atoms: C2_2  and  C4_4
REMARK    4  A    between atoms: C2_2  and  O1_5
REMARK    5  A    between atoms: O1_5  and  C5_6
REMARK    6  A    between atoms: N1_8  and  C6_9
REMARK    7  A    between atoms: C16_19  and  C32_43
REMARK    8  A    between atoms: C20_25  and  O5_30
REMARK    9  A    between atoms: O5_30  and  C23_31
REMARK   10  A    between atoms: N5_45  and  S1_46
REMARK   11  A    between atoms: S1_46  and  C33_49
REMARK                            x       y       z     vdW  Elec       q    Type
REMARK                         _______ _______ _______ _____ _____    ______ ____
ROOT
ATOM      1  C6  UNL     1      74.312  61.546 107.341  0.00  0.00    +0.000 C 
ATOM      2  C7  UNL     1      75.446  62.065 108.270  0.00  0.00    +0.000 C 
ATOM      3  C8  UNL     1      76.348  63.177 107.692  0.00  0.00    +0.000 C 
ATOM      4  C9  UNL     1      75.646  64.516 107.423  0.00  0.00    +0.000 C 
ATOM      5  C10 UNL     1      75.261  65.274 108.704  0.00  0.00    +0.000 C 
ATOM      6  C11 UNL     1      74.777  66.697 108.368  0.00  0.00    +0.000 C 
ATOM      7  C12 UNL     1      74.092  67.371 109.531  0.00  0.00    +0.000 C 
ATOM      8  C13 UNL     1      72.819  67.133 109.895  0.00  0.00    +0.000 C 
ATOM      9  C14 UNL     1      71.982  66.050 109.270  0.00  0.00    +0.000 C 
ATOM     10  C15 UNL     1      70.467  66.265 109.307  0.00  0.00    +0.000 C 
ATOM     11  C16 UNL     1      71.216  66.344 107.973  0.00  0.00    +0.000 C 
ATOM     12  N2  UNL     1      71.045  65.156 107.123  0.00  0.00    +0.000 N 
ATOM     13  C17 UNL     1      71.970  64.838 106.066  0.00  0.00    +0.000 C 
ATOM     14  O3  UNL     1      72.784  65.706 105.657  0.00  0.00    +0.000 OA
ATOM     15  C18 UNL     1      71.963  63.487 105.395  0.00  0.00    +0.000 C 
ATOM     16  C19 UNL     1      70.656  63.218 104.644  0.00  0.00    +0.000 C 
ATOM     17  C20 UNL     1      70.259  61.768 104.961  0.00  0.00    +0.000 C 
ATOM     18  C21 UNL     1      71.176  61.303 106.101  0.00  0.00    +0.000 C 
ATOM     19  N3  UNL     1      72.097  62.393 106.345  0.00  0.00    +0.000 N 
ATOM     20  C22 UNL     1      73.041  62.361 107.428  0.00  0.00    +0.000 C 
ATOM     21  O4  UNL     1      72.698  62.851 108.534  0.00  0.00    +0.000 OA
ATOM     22  H27 UNL     1      70.315  64.449 107.374  0.00  0.00    +0.000 HD
ENDROOT
BRANCH   1  25
ATOM     23  C5  UNL     1      75.386  60.236 105.446  0.00  0.00    +0.000 C 
ATOM     24  O2  UNL     1      75.496  59.220 106.179  0.00  0.00    +0.000 OA
ATOM     25  N1  UNL     1      74.777  61.426 105.956  0.00  0.00    +0.000 N 
ATOM     26  H10 UNL     1      74.821  62.283 105.362  0.00  0.00    +0.000 HD
BRANCH  23  27
ATOM     27  O1  UNL     1      75.867  60.232 104.128  0.00  0.00    +0.000 OA
BRANCH  27  29
ATOM     28  C1  UNL     1      78.048  59.252 104.080  0.00  0.00    +0.000 C 
ATOM     29  C2  UNL     1      77.216  60.490 103.714  0.00  0.00    +0.000 C 
ATOM     30  C3  UNL     1      77.279  60.703 102.191  0.00  0.00    +0.000 C 
ATOM     31  C4  UNL     1      77.793  61.712 104.456  0.00  0.00    +0.000 C 
ENDBRANCH  27  29
ENDBRANCH  23  27
ENDBRANCH   1  25
BRANCH  11  32
ATOM     32  C32 UNL     1      71.145  67.702 107.284  0.00  0.00    +0.000 C 
ATOM     33  O7  UNL     1      72.211  68.196 106.824  0.00  0.00    +0.000 OA
ATOM     34  N5  UNL     1      69.912  68.420 107.100  0.00  0.00    +0.000 N 
ATOM     35  H41 UNL     1      68.987  67.987 107.304  0.00  0.00    +0.000 HD
BRANCH  34  36
ATOM     36  S1  UNL     1      69.899  70.041 106.490  0.00  0.00    +0.000 S 
ATOM     37  O8  UNL     1      70.564  70.064 105.140  0.00  0.00    +0.000 OA
ATOM     38  O9  UNL     1      68.478  70.518 106.362  0.00  0.00    +0.000 OA
BRANCH  36  39
ATOM     39  C33 UNL     1      70.762  71.095 107.653  0.00  0.00    +0.000 C 
ATOM     40  C34 UNL     1      70.774  72.574 107.303  0.00  0.00    +0.000 C 
ATOM     41  C35 UNL     1      72.029  71.731 107.106  0.00  0.00    +0.000 C 
ENDBRANCH  36  39
ENDBRANCH  34  36
ENDBRANCH  11  32
BRANCH  17  42
ATOM     42  O5  UNL     1      70.402  60.951 103.796  0.00  0.00    +0.000 OA
BRANCH  42  43
ATOM     43  C23 UNL     1      71.342  61.204 102.789  0.00  0.00    +0.000 C 
ATOM     44  O6  UNL     1      72.576  61.244 103.060  0.00  0.00    +0.000 OA
ATOM     45  N4  UNL     1      70.904  61.396 101.440  0.00  0.00    +0.000 N 
ATOM     46  C24 UNL     1      71.802  61.720 100.328  0.00  0.00    +0.000 C 
ATOM     47  C25 UNL     1      70.923  61.583  99.141  0.00  0.00    +0.000 A 
ATOM     48  C26 UNL     1      69.645  61.230  99.514  0.00  0.00    +0.000 A 
ATOM     49  C27 UNL     1      69.540  61.105 100.988  0.00  0.00    +0.000 C 
ATOM     50  C28 UNL     1      68.643  61.018  98.563  0.00  0.00    +0.000 A 
ATOM     51  C29 UNL     1      68.964  61.175  97.205  0.00  0.00    +0.000 A 
ATOM     52  C30 UNL     1      70.273  61.537  96.823  0.00  0.00    +0.000 A 
ATOM     53  C31 UNL     1      71.263  61.751  97.797  0.00  0.00    +0.000 A 
ATOM     54  F1  UNL     1      67.388  60.666  98.940  0.00  0.00    +0.000 F 
ENDBRANCH  42  43
ENDBRANCH  17  42
TORSDOF 8
ENDMDL
MODEL 3
REMARK VINA RESULT:      -8.6      2.445      3.987
REMARK  Name = ./S1183.pdb
REMARK  11 active torsions:
REMARK  status: ('A' for Active; 'I' for Inactive)
REMARK    1  A    between atoms: C1_1  and  C2_2
REMARK    2  A    between atoms: C2_2  and  C3_3
REMARK    3  A    between atoms: C2_2  and  C4_4
REMARK    4  A    between atoms: C2_2  and  O1_5
REMARK    5  A    between atoms: O1_5  and  C5_6
REMARK    6  A    between atoms: N1_8  and  C6_9
REMARK    7  A    between atoms: C16_19  and  C32_43
REMARK    8  A    between atoms: C20_25  and  O5_30
REMARK    9  A    between atoms: O5_30  and  C23_31
REMARK   10  A    between atoms: N5_45  and  S1_46
REMARK   11  A    between atoms: S1_46  and  C33_49
REMARK                            x       y       z     vdW  Elec       q    Type
REMARK                         _______ _______ _______ _____ _____    ______ ____
ROOT
ATOM      1  C6  UNL     1      76.585  62.148 103.280  0.00  0.00    +0.000 C 
ATOM      2  C7  UNL     1      77.974  62.453 103.910  0.00  0.00    +0.000 C 
ATOM      3  C8  UNL     1      78.240  63.923 104.302  0.00  0.00    +0.000 C 
ATOM      4  C9  UNL     1      77.354  64.471 105.431  0.00  0.00    +0.000 C 
ATOM      5  C10 UNL     1      77.683  63.878 106.810  0.00  0.00    +0.000 C 
ATOM      6  C11 UNL     1      76.926  64.630 107.919  0.00  0.00    +0.000 C 
ATOM      7  C12 UNL     1      76.955  63.905 109.242  0.00  0.00    +0.000 C 
ATOM      8  C13 UNL     1      76.160  62.863 109.547  0.00  0.00    +0.000 C 
ATOM      9  C14 UNL     1      75.255  62.209 108.540  0.00  0.00    +0.000 C 
ATOM     10  C15 UNL     1      74.022  61.499 109.104  0.00  0.00    +0.000 C 
ATOM     11  C16 UNL     1      73.856  62.789 108.294  0.00  0.00    +0.000 C 
ATOM     12  N2  UNL     1      73.374  62.572 106.921  0.00  0.00    +0.000 N 
ATOM     13  C17 UNL     1      73.557  63.557 105.887  0.00  0.00    +0.000 C 
ATOM     14  O3  UNL     1      73.878  64.736 106.187  0.00  0.00    +0.000 OA
ATOM     15  C18 UNL     1      73.331  63.222 104.433  0.00  0.00    +0.000 C 
ATOM     16  C19 UNL     1      71.874  62.853 104.141  0.00  0.00    +0.000 C 
ATOM     17  C20 UNL     1      71.910  61.628 103.215  0.00  0.00    +0.000 C 
ATOM     18  C21 UNL     1      73.362  61.131 103.202  0.00  0.00    +0.000 C 
ATOM     19  N3  UNL     1      74.117  62.077 103.997  0.00  0.00    +0.000 N 
ATOM     20  C22 UNL     1      75.506  61.874 104.303  0.00  0.00    +0.000 C 
ATOM     21  O4  UNL     1      75.802  61.264 105.361  0.00  0.00    +0.000 OA
ATOM     22  H27 UNL     1      73.011  61.629 106.650  0.00  0.00    +0.000 HD
ENDROOT
BRANCH   1  25
ATOM     23  C5  UNL     1      76.131  63.014 100.933  0.00  0.00    +0.000 C 
ATOM     24  O2  UNL     1      76.386  61.883 100.442  0.00  0.00    +0.000 OA
ATOM     25  N1  UNL     1      76.185  63.208 102.350  0.00  0.00    +0.000 N 
ATOM     26  H10 UNL     1      76.092  64.185 102.706  0.00  0.00    +0.000 HD
BRANCH  23  27
ATOM     27  O1  UNL     1      75.805  64.102 100.111  0.00  0.00    +0.000 OA
BRANCH  27  29
ATOM     28  C1  UNL     1      78.088  64.634  99.638  0.00  0.00    +0.000 C 
ATOM     29  C2  UNL     1      76.666  65.198  99.769  0.00  0.00    +0.000 C 
ATOM     30  C3  UNL     1      76.244  65.811  98.422  0.00  0.00    +0.000 C 
ATOM     31  C4  UNL     1      76.657  66.268 100.878  0.00  0.00    +0.000 C 
ENDBRANCH  27  29
ENDBRANCH  23  27
ENDBRANCH   1  25
BRANCH  11  32
ATOM     32  C32 UNL     1      73.239  63.950 109.067  0.00  0.00    +0.000 C 
ATOM     33  O7  UNL     1      72.389  63.687 109.962  0.00  0.00    +0.000 OA
ATOM     34  N5  UNL     1      73.616  65.320 108.848  0.00  0.00    +0.000 N 
ATOM     35  H41 UNL     1      74.427  65.580 108.249  0.00  0.00    +0.000 HD
BRANCH  34  36
ATOM     36  S1  UNL     1      72.756  66.620 109.605  0.00  0.00    +0.000 S 
ATOM     37  O8  UNL     1      73.002  66.575 111.089  0.00  0.00    +0.000 OA
ATOM     38  O9  UNL     1      73.239  67.932 109.051  0.00  0.00    +0.000 OA
BRANCH  36  39
ATOM     39  C33 UNL     1      71.012  66.442 109.235  0.00  0.00    +0.000 C 
ATOM     40  C34 UNL     1      70.669  66.351 107.757  0.00  0.00    +0.000 C 
ATOM     41  C35 UNL     1      70.393  67.636 108.529  0.00  0.00    +0.000 C 
ENDBRANCH  36  39
ENDBRANCH  34  36
ENDBRANCH  11  32
BRANCH  17  42
ATOM     42  O5  UNL     1      71.457  61.986 101.906  0.00  0.00    +0.000 OA
BRANCH  42  43
ATOM     43  C23 UNL     1      70.179  61.678 101.423  0.00  0.00    +0.000 C 
ATOM     44  O6  UNL     1      69.176  61.725 102.190  0.00  0.00    +0.000 OA
ATOM     45  N4  UNL     1      70.005  61.329 100.046  0.00  0.00    +0.000 N 
ATOM     46  C24 UNL     1      68.721  60.937  99.459  0.00  0.00    +0.000 C 
ATOM     47  C25 UNL     1      69.015  60.911  98.005  0.00  0.00    +0.000 A 
ATOM     48  C26 UNL     1      70.332  61.238  97.764  0.00  0.00    +0.000 A 
ATOM     49  C27 UNL     1      71.050  61.506  99.033  0.00  0.00    +0.000 C 
ATOM     50  C28 UNL     1      70.838  61.303  96.463  0.00  0.00    +0.000 A 
ATOM     51  C29 UNL     1      69.973  61.026  95.393  0.00  0.00    +0.000 A 
ATOM     52  C30 UNL     1      68.625  60.690  95.640  0.00  0.00    +0.000 A 
ATOM     53  C31 UNL     1      68.139  60.624  96.957  0.00  0.00    +0.000 A 
ATOM     54  F1  UNL     1      72.135  61.631  96.236  0.00  0.00    +0.000 F 
ENDBRANCH  42  43
ENDBRANCH  17  42
TORSDOF 8
ENDMDL
MODEL 4
REMARK VINA RESULT:      -8.6      4.575     10.397
REMARK  Name = ./S1183.pdb
REMARK  11 active torsions:
REMARK  status: ('A' for Active; 'I' for Inactive)
REMARK    1  A    between atoms: C1_1  and  C2_2
REMARK    2  A    between atoms: C2_2  and  C3_3
REMARK    3  A    between atoms: C2_2  and  C4_4
REMARK    4  A    between atoms: C2_2  and  O1_5
REMARK    5  A    between atoms: O1_5  and  C5_6
REMARK    6  A    between atoms: N1_8  and  C6_9
REMARK    7  A    between atoms: C16_19  and  C32_43
REMARK    8  A    between atoms: C20_25  and  O5_30
REMARK    9  A    between atoms: O5_30  and  C23_31
REMARK   10  A    between atoms: N5_45  and  S1_46
REMARK   11  A    between atoms: S1_46  and  C33_49
REMARK                            x       y       z     vdW  Elec       q    Type
REMARK                         _______ _______ _______ _____ _____    ______ ____
ROOT
ATOM      1  C6  UNL     1      74.249  61.092 101.339  0.00  0.00    +0.000 C 
ATOM      2  C7  UNL     1      75.251  60.378 100.387  0.00  0.00    +0.000 C 
ATOM      3  C8  UNL     1      75.019  58.869 100.157  0.00  0.00    +0.000 C 
ATOM      4  C9  UNL     1      73.718  58.509  99.425  0.00  0.00    +0.000 C 
ATOM      5  C10 UNL     1      73.725  58.897  97.938  0.00  0.00    +0.000 C 
ATOM      6  C11 UNL     1      72.499  58.308  97.217  0.00  0.00    +0.000 C 
ATOM      7  C12 UNL     1      72.279  58.908  95.850  0.00  0.00    +0.000 C 
ATOM      8  C13 UNL     1      71.702  60.104  95.638  0.00  0.00    +0.000 C 
ATOM      9  C14 UNL     1      71.346  61.046  96.755  0.00  0.00    +0.000 C 
ATOM     10  C15 UNL     1      70.205  62.026  96.472  0.00  0.00    +0.000 C 
ATOM     11  C16 UNL     1      70.001  60.887  97.476  0.00  0.00    +0.000 C 
ATOM     12  N2  UNL     1      70.046  61.318  98.882  0.00  0.00    +0.000 N 
ATOM     13  C17 UNL     1      70.306  60.392  99.953  0.00  0.00    +0.000 C 
ATOM     14  O3  UNL     1      70.224  59.152  99.750  0.00  0.00    +0.000 OA
ATOM     15  C18 UNL     1      70.640  60.872 101.344  0.00  0.00    +0.000 C 
ATOM     16  C19 UNL     1      69.483  61.643 101.985  0.00  0.00    +0.000 C 
ATOM     17  C20 UNL     1      70.101  62.870 102.671  0.00  0.00    +0.000 C 
ATOM     18  C21 UNL     1      71.557  62.952 102.192  0.00  0.00    +0.000 C 
ATOM     19  N3  UNL     1      71.772  61.785 101.361  0.00  0.00    +0.000 N 
ATOM     20  C22 UNL     1      72.999  61.581 100.642  0.00  0.00    +0.000 C 
ATOM     21  O4  UNL     1      73.081  62.015  99.465  0.00  0.00    +0.000 OA
ATOM     22  H27 UNL     1      70.024  62.341  99.104  0.00  0.00    +0.000 HD
ENDROOT
BRANCH   1  25
ATOM     23  C5  UNL     1      74.724  60.209 103.675  0.00  0.00    +0.000 C 
ATOM     24  O2  UNL     1      75.730  60.959 103.779  0.00  0.00    +0.000 OA
ATOM     25  N1  UNL     1      73.922  60.246 102.491  0.00  0.00    +0.000 N 
ATOM     26  H10 UNL     1      73.177  59.521 102.392  0.00  0.00    +0.000 HD
BRANCH  23  27
ATOM     27  O1  UNL     1      74.378  59.319 104.702  0.00  0.00    +0.000 OA
BRANCH  27  29
ATOM     28  C1  UNL     1      75.048  57.446 106.031  0.00  0.00    +0.000 C 
ATOM     29  C2  UNL     1      74.502  57.889 104.666  0.00  0.00    +0.000 C 
ATOM     30  C3  UNL     1      73.126  57.237 104.441  0.00  0.00    +0.000 C 
ATOM     31  C4  UNL     1      75.494  57.453 103.570  0.00  0.00    +0.000 C 
ENDBRANCH  27  29
ENDBRANCH  23  27
ENDBRANCH   1  25
BRANCH  11  32
ATOM     32  C32 UNL     1      68.913  59.890  97.094  0.00  0.00    +0.000 C 
ATOM     33  O7  UNL     1      67.864  60.330  96.548  0.00  0.00    +0.000 OA
ATOM     34  N5  UNL     1      69.050  58.472  97.290  0.00  0.00    +0.000 N 
ATOM     35  H41 UNL     1      69.954  58.040  97.576  0.00  0.00    +0.000 HD
BRANCH  34  36
ATOM     36  S1  UNL     1      67.719  57.395  97.024  0.00  0.00    +0.000 S 
ATOM     37  O8  UNL     1      66.609  57.739  97.980  0.00  0.00    +0.000 OA
ATOM     38  O9  UNL     1      67.231  57.541  95.609  0.00  0.00    +0.000 OA
BRANCH  36  39
ATOM     39  C33 UNL     1      68.288  55.715  97.272  0.00  0.00    +0.000 C 
ATOM     40  C34 UNL     1      69.335  55.538  98.359  0.00  0.00    +0.000 C 
ATOM     41  C35 UNL     1      69.740  55.478  96.890  0.00  0.00    +0.000 C 
ENDBRANCH  36  39
ENDBRANCH  34  36
ENDBRANCH  11  32
BRANCH  17  42
ATOM     42  O5  UNL     1      70.015  62.738 104.093  0.00  0.00    +0.000 OA
BRANCH  42  43
ATOM     43  C23 UNL     1      71.082  63.012 104.957  0.00  0.00    +0.000 C 
ATOM     44  O6  UNL     1      71.533  64.188 105.065  0.00  0.00    +0.000 OA
ATOM     45  N4  UNL     1      71.652  61.957 105.739  0.00  0.00    +0.000 N 
ATOM     46  C24 UNL     1      72.804  62.131 106.629  0.00  0.00    +0.000 C 
ATOM     47  C25 UNL     1      72.851  60.844 107.366  0.00  0.00    +0.000 A 
ATOM     48  C26 UNL     1      71.846  60.001 106.946  0.00  0.00    +0.000 A 
ATOM     49  C27 UNL     1      71.032  60.636 105.881  0.00  0.00    +0.000 C 
ATOM     50  C28 UNL     1      71.673  58.736 107.516  0.00  0.00    +0.000 A 
ATOM     51  C29 UNL     1      72.553  58.335 108.533  0.00  0.00    +0.000 A 
ATOM     52  C30 UNL     1      73.583  59.197 108.962  0.00  0.00    +0.000 A 
ATOM     53  C31 UNL     1      73.741  60.463 108.371  0.00  0.00    +0.000 A 
ATOM     54  F1  UNL     1      70.677  57.915 107.099  0.00  0.00    +0.000 F 
ENDBRANCH  42  43
ENDBRANCH  17  42
TORSDOF 8
ENDMDL
MODEL 5
REMARK VINA RESULT:      -8.4      7.212     12.058
REMARK  Name = ./S1183.pdb
REMARK  11 active torsions:
REMARK  status: ('A' for Active; 'I' for Inactive)
REMARK    1  A    between atoms: C1_1  and  C2_2
REMARK    2  A    between atoms: C2_2  and  C3_3
REMARK    3  A    between atoms: C2_2  and  C4_4
REMARK    4  A    between atoms: C2_2  and  O1_5
REMARK    5  A    between atoms: O1_5  and  C5_6
REMARK    6  A    between atoms: N1_8  and  C6_9
REMARK    7  A    between atoms: C16_19  and  C32_43
REMARK    8  A    between atoms: C20_25  and  O5_30
REMARK    9  A    between atoms: O5_30  and  C23_31
REMARK   10  A    between atoms: N5_45  and  S1_46
REMARK   11  A    between atoms: S1_46  and  C33_49
REMARK                            x       y       z     vdW  Elec       q    Type
REMARK                         _______ _______ _______ _____ _____    ______ ____
ROOT
ATOM      1  C6  UNL     1      73.775  65.360 115.522  0.00  0.00    +0.000 C 
ATOM      2  C7  UNL     1      73.638  66.897 115.327  0.00  0.00    +0.000 C 
ATOM      3  C8  UNL     1      74.914  67.648 114.888  0.00  0.00    +0.000 C 
ATOM      4  C9  UNL     1      75.438  67.288 113.490  0.00  0.00    +0.000 C 
ATOM      5  C10 UNL     1      74.548  67.809 112.350  0.00  0.00    +0.000 C 
ATOM      6  C11 UNL     1      75.241  67.618 110.989  0.00  0.00    +0.000 C 
ATOM      7  C12 UNL     1      74.304  67.811 109.822  0.00  0.00    +0.000 C 
ATOM      8  C13 UNL     1      73.434  66.878 109.395  0.00  0.00    +0.000 C 
ATOM      9  C14 UNL     1      73.194  65.590 110.132  0.00  0.00    +0.000 C 
ATOM     10  C15 UNL     1      72.694  64.414 109.289  0.00  0.00    +0.000 C 
ATOM     11  C16 UNL     1      74.112  64.389 109.870  0.00  0.00    +0.000 C 
ATOM     12  N2  UNL     1      74.260  63.509 111.040  0.00  0.00    +0.000 N 
ATOM     13  C17 UNL     1      75.346  63.661 111.973  0.00  0.00    +0.000 C 
ATOM     14  O3  UNL     1      76.348  64.359 111.667  0.00  0.00    +0.000 OA
ATOM     15  C18 UNL     1      75.337  62.964 113.311  0.00  0.00    +0.000 C 
ATOM     16  C19 UNL     1      75.368  61.440 113.171  0.00  0.00    +0.000 C 
ATOM     17  C20 UNL     1      74.354  60.887 114.184  0.00  0.00    +0.000 C 
ATOM     18  C21 UNL     1      73.550  62.089 114.699  0.00  0.00    +0.000 C 
ATOM     19  N3  UNL     1      74.141  63.259 114.084  0.00  0.00    +0.000 N 
ATOM     20  C22 UNL     1      73.575  64.570 114.248  0.00  0.00    +0.000 C 
ATOM     21  O4  UNL     1      72.734  64.968 113.403  0.00  0.00    +0.000 OA
ATOM     22  H27 UNL     1      73.488  62.845 111.281  0.00  0.00    +0.000 HD
ENDROOT
BRANCH   1  25
ATOM     23  C5  UNL     1      75.158  64.761 117.570  0.00  0.00    +0.000 C 
ATOM     24  O2  UNL     1      74.129  64.767 118.295  0.00  0.00    +0.000 OA
ATOM     25  N1  UNL     1      75.048  65.022 116.167  0.00  0.00    +0.000 N 
ATOM     26  H10 UNL     1      75.934  65.135 115.627  0.00  0.00    +0.000 HD
BRANCH  23  27
ATOM     27  O1  UNL     1      76.426  64.515 118.116  0.00  0.00    +0.000 OA
BRANCH  27  29
ATOM     28  C1  UNL     1      77.950  63.157 119.362  0.00  0.00    +0.000 C 
ATOM     29  C2  UNL     1      77.153  63.279 118.055  0.00  0.00    +0.000 C 
ATOM     30  C3  UNL     1      76.183  62.089 117.947  0.00  0.00    +0.000 C 
ATOM     31  C4  UNL     1      78.141  63.283 116.871  0.00  0.00    +0.000 C 
ENDBRANCH  27  29
ENDBRANCH  23  27
ENDBRANCH   1  25
BRANCH  11  32
ATOM     32  C32 UNL     1      75.225  64.345 108.829  0.00  0.00    +0.000 C 
ATOM     33  O7  UNL     1      75.109  63.542 107.863  0.00  0.00    +0.000 OA
ATOM     34  N5  UNL     1      76.374  65.209 108.879  0.00  0.00    +0.000 N 
ATOM     35  H41 UNL     1      76.438  66.002 109.550  0.00  0.00    +0.000 HD
BRANCH  34  36
ATOM     36  S1  UNL     1      77.705  64.996 107.790  0.00  0.00    +0.000 S 
ATOM     37  O8  UNL     1      77.182  64.923 106.381  0.00  0.00    +0.000 OA
ATOM     38  O9  UNL     1      78.650  66.159 107.920  0.00  0.00    +0.000 OA
BRANCH  36  39
ATOM     39  C33 UNL     1      78.571  63.493 108.236  0.00  0.00    +0.000 C 
ATOM     40  C34 UNL     1      79.096  63.446 109.661  0.00  0.00    +0.000 C 
ATOM     41  C35 UNL     1      80.056  63.677 108.500  0.00  0.00    +0.000 C 
ENDBRANCH  36  39
ENDBRANCH  34  36
ENDBRANCH  11  32
BRANCH  17  42
ATOM     42  O5  UNL     1      75.034  60.207 115.243  0.00  0.00    +0.000 OA
BRANCH  42  43
ATOM     43  C23 UNL     1      75.490  58.887 115.142  0.00  0.00    +0.000 C 
ATOM     44  O6  UNL     1      74.703  57.962 114.795  0.00  0.00    +0.000 OA
ATOM     45  N4  UNL     1      76.863  58.588 115.414  0.00  0.00    +0.000 N 
ATOM     46  C24 UNL     1      77.424  57.234 115.390  0.00  0.00    +0.000 C 
ATOM     47  C25 UNL     1      78.884  57.478 115.497  0.00  0.00    +0.000 A 
ATOM     48  C26 UNL     1      79.152  58.826 115.588  0.00  0.00    +0.000 A 
ATOM     49  C27 UNL     1      77.898  59.617 115.559  0.00  0.00    +0.000 C 
ATOM     50  C28 UNL     1      80.463  59.302 115.673  0.00  0.00    +0.000 A 
ATOM     51  C29 UNL     1      81.515  58.373 115.667  0.00  0.00    +0.000 A 
ATOM     52  C30 UNL     1      81.241  56.992 115.575  0.00  0.00    +0.000 A 
ATOM     53  C31 UNL     1      79.914  56.535 115.496  0.00  0.00    +0.000 A 
ATOM     54  F1  UNL     1      80.717  60.633 115.757  0.00  0.00    +0.000 F 
ENDBRANCH  42  43
ENDBRANCH  17  42
TORSDOF 8
ENDMDL
MODEL 6
REMARK VINA RESULT:      -8.2      2.941      3.760
REMARK  Name = ./S1183.pdb
REMARK  11 active torsions:
REMARK  status: ('A' for Active; 'I' for Inactive)
REMARK    1  A    between atoms: C1_1  and  C2_2
REMARK    2  A    between atoms: C2_2  and  C3_3
REMARK    3  A    between atoms: C2_2  and  C4_4
REMARK    4  A    between atoms: C2_2  and  O1_5
REMARK    5  A    between atoms: O1_5  and  C5_6
REMARK    6  A    between atoms: N1_8  and  C6_9
REMARK    7  A    between atoms: C16_19  and  C32_43
REMARK    8  A    between atoms: C20_25  and  O5_30
REMARK    9  A    between atoms: O5_30  and  C23_31
REMARK   10  A    between atoms: N5_45  and  S1_46
REMARK   11  A    between atoms: S1_46  and  C33_49
REMARK                            x       y       z     vdW  Elec       q    Type
REMARK                         _______ _______ _______ _____ _____    ______ ____
ROOT
ATOM      1  C6  UNL     1      73.608  60.617 106.726  0.00  0.00    +0.000 C 
ATOM      2  C7  UNL     1      73.926  60.127 108.167  0.00  0.00    +0.000 C 
ATOM      3  C8  UNL     1      75.247  60.635 108.786  0.00  0.00    +0.000 C 
ATOM      4  C9  UNL     1      75.312  62.148 109.042  0.00  0.00    +0.000 C 
ATOM      5  C10 UNL     1      74.408  62.613 110.194  0.00  0.00    +0.000 C 
ATOM      6  C11 UNL     1      74.691  64.085 110.547  0.00  0.00    +0.000 C 
ATOM      7  C12 UNL     1      73.633  64.687 111.438  0.00  0.00    +0.000 C 
ATOM      8  C13 UNL     1      72.441  65.128 110.998  0.00  0.00    +0.000 C 
ATOM      9  C14 UNL     1      71.971  64.929 109.583  0.00  0.00    +0.000 C 
ATOM     10  C15 UNL     1      70.953  65.946 109.063  0.00  0.00    +0.000 C 
ATOM     11  C16 UNL     1      72.380  65.940 108.504  0.00  0.00    +0.000 C 
ATOM     12  N2  UNL     1      72.492  65.340 107.165  0.00  0.00    +0.000 N 
ATOM     13  C17 UNL     1      73.746  64.851 106.654  0.00  0.00    +0.000 C 
ATOM     14  O3  UNL     1      74.825  65.173 107.215  0.00  0.00    +0.000 OA
ATOM     15  C18 UNL     1      73.807  63.983 105.421  0.00  0.00    +0.000 C 
ATOM     16  C19 UNL     1      73.321  64.717 104.169  0.00  0.00    +0.000 C 
ATOM     17  C20 UNL     1      72.430  63.730 103.400  0.00  0.00    +0.000 C 
ATOM     18  C21 UNL     1      72.182  62.542 104.340  0.00  0.00    +0.000 C 
ATOM     19  N3  UNL     1      72.965  62.801 105.530  0.00  0.00    +0.000 N 
ATOM     20  C22 UNL     1      72.895  61.950 106.686  0.00  0.00    +0.000 C 
ATOM     21  O4  UNL     1      72.061  62.229 107.584  0.00  0.00    +0.000 OA
ATOM     22  H27 UNL     1      71.621  65.138 106.621  0.00  0.00    +0.000 HD
ENDROOT
BRANCH   1  25
ATOM     23  C5  UNL     1      74.891  59.963 104.631  0.00  0.00    +0.000 C 
ATOM     24  O2  UNL     1      73.880  59.373 104.168  0.00  0.00    +0.000 OA
ATOM     25  N1  UNL     1      74.815  60.630 105.895  0.00  0.00    +0.000 N 
ATOM     26  H10 UNL     1      75.705  60.994 106.301  0.00  0.00    +0.000 HD
BRANCH  23  27
ATOM     27  O1  UNL     1      76.108  59.967 103.934  0.00  0.00    +0.000 OA
BRANCH  27  29
ATOM     28  C1  UNL     1      76.832  58.234 102.454  0.00  0.00    +0.000 C 
ATOM     29  C2  UNL     1      77.035  58.877 103.833  0.00  0.00    +0.000 C 
ATOM     30  C3  UNL     1      78.482  59.391 103.939  0.00  0.00    +0.000 C 
ATOM     31  C4  UNL     1      76.755  57.819 104.919  0.00  0.00    +0.000 C 
ENDBRANCH  27  29
ENDBRANCH  23  27
ENDBRANCH   1  25
BRANCH  11  32
ATOM     32  C32 UNL     1      73.166  67.222 108.754  0.00  0.00    +0.000 C 
ATOM     33  O7  UNL     1      72.554  68.322 108.684  0.00  0.00    +0.000 OA
ATOM     34  N5  UNL     1      74.560  67.225 109.108  0.00  0.00    +0.000 N 
ATOM     35  H41 UNL     1      75.070  66.349 109.347  0.00  0.00    +0.000 HD
BRANCH  34  36
ATOM     36  S1  UNL     1      75.462  68.702 109.194  0.00  0.00    +0.000 S 
ATOM     37  O8  UNL     1      74.866  69.581 110.259  0.00  0.00    +0.000 OA
ATOM     38  O9  UNL     1      76.895  68.396 109.533  0.00  0.00    +0.000 OA
BRANCH  36  39
ATOM     39  C33 UNL     1      75.403  69.499 107.591  0.00  0.00    +0.000 C 
ATOM     40  C34 UNL     1      75.784  68.617 106.414  0.00  0.00    +0.000 C 
ATOM     41  C35 UNL     1      76.757  69.674 106.924  0.00  0.00    +0.000 C 
ENDBRANCH  36  39
ENDBRANCH  34  36
ENDBRANCH  11  32
BRANCH  17  42
ATOM     42  O5  UNL     1      73.073  63.325 102.188  0.00  0.00    +0.000 OA
BRANCH  42  43
ATOM     43  C23 UNL     1      72.454  62.524 101.220  0.00  0.00    +0.000 C 
ATOM     44  O6  UNL     1      71.249  62.725 100.898  0.00  0.00    +0.000 OA
ATOM     45  N4  UNL     1      73.199  61.485 100.577  0.00  0.00    +0.000 N 
ATOM     46  C24 UNL     1      72.628  60.559  99.594  0.00  0.00    +0.000 C 
ATOM     47  C25 UNL     1      73.824  59.856  99.068  0.00  0.00    +0.000 A 
ATOM     48  C26 UNL     1      74.970  60.308  99.683  0.00  0.00    +0.000 A 
ATOM     49  C27 UNL     1      74.655  61.352 100.687  0.00  0.00    +0.000 C 
ATOM     50  C28 UNL     1      76.228  59.809  99.332  0.00  0.00    +0.000 A 
ATOM     51  C29 UNL     1      76.304  58.826  98.333  0.00  0.00    +0.000 A 
ATOM     52  C30 UNL     1      75.130  58.362  97.704  0.00  0.00    +0.000 A 
ATOM     53  C31 UNL     1      73.875  58.874  98.076  0.00  0.00    +0.000 A 
ATOM     54  F1  UNL     1      77.352  60.264  99.941  0.00  0.00    +0.000 F 
ENDBRANCH  42  43
ENDBRANCH  17  42
TORSDOF 8
ENDMDL
MODEL 7
REMARK VINA RESULT:      -8.1      3.607      6.339
REMARK  Name = ./S1183.pdb
REMARK  11 active torsions:
REMARK  status: ('A' for Active; 'I' for Inactive)
REMARK    1  A    between atoms: C1_1  and  C2_2
REMARK    2  A    between atoms: C2_2  and  C3_3
REMARK    3  A    between atoms: C2_2  and  C4_4
REMARK    4  A    between atoms: C2_2  and  O1_5
REMARK    5  A    between atoms: O1_5  and  C5_6
REMARK    6  A    between atoms: N1_8  and  C6_9
REMARK    7  A    between atoms: C16_19  and  C32_43
REMARK    8  A    between atoms: C20_25  and  O5_30
REMARK    9  A    between atoms: O5_30  and  C23_31
REMARK   10  A    between atoms: N5_45  and  S1_46
REMARK   11  A    between atoms: S1_46  and  C33_49
REMARK                            x       y       z     vdW  Elec       q    Type
REMARK                         _______ _______ _______ _____ _____    ______ ____
ROOT
ATOM      1  C6  UNL     1      72.345  62.859 104.140  0.00  0.00    +0.000 C 
ATOM      2  C7  UNL     1      70.849  63.231 104.344  0.00  0.00    +0.000 C 
ATOM      3  C8  UNL     1      70.247  62.912 105.730  0.00  0.00    +0.000 C 
ATOM      4  C9  UNL     1      70.840  63.708 106.901  0.00  0.00    +0.000 C 
ATOM      5  C10 UNL     1      70.443  65.193 106.895  0.00  0.00    +0.000 C 
ATOM      6  C11 UNL     1      70.873  65.876 108.206  0.00  0.00    +0.000 C 
ATOM      7  C12 UNL     1      70.801  67.381 108.132  0.00  0.00    +0.000 C 
ATOM      8  C13 UNL     1      71.735  68.151 107.544  0.00  0.00    +0.000 C 
ATOM      9  C14 UNL     1      72.884  67.580 106.759  0.00  0.00    +0.000 C 
ATOM     10  C15 UNL     1      74.140  68.450 106.676  0.00  0.00    +0.000 C 
ATOM     11  C16 UNL     1      74.162  67.154 107.495  0.00  0.00    +0.000 C 
ATOM     12  N2  UNL     1      74.865  66.045 106.833  0.00  0.00    +0.000 N 
ATOM     13  C17 UNL     1      74.640  64.672 107.206  0.00  0.00    +0.000 C 
ATOM     14  O3  UNL     1      74.054  64.399 108.286  0.00  0.00    +0.000 OA
ATOM     15  C18 UNL     1      75.129  63.533 106.346  0.00  0.00    +0.000 C 
ATOM     16  C19 UNL     1      76.657  63.494 106.248  0.00  0.00    +0.000 C 
ATOM     17  C20 UNL     1      76.994  63.215 104.776  0.00  0.00    +0.000 C 
ATOM     18  C21 UNL     1      75.684  63.370 103.990  0.00  0.00    +0.000 C 
ATOM     19  N3  UNL     1      74.654  63.627 104.975  0.00  0.00    +0.000 N 
ATOM     20  C22 UNL     1      73.303  63.937 104.596  0.00  0.00    +0.000 C 
ATOM     21  O4  UNL     1      72.986  65.144 104.446  0.00  0.00    +0.000 OA
ATOM     22  H27 UNL     1      75.441  66.240 105.981  0.00  0.00    +0.000 HD
ENDROOT
BRANCH   1  25
ATOM     23  C5  UNL     1      72.310  60.317 104.162  0.00  0.00    +0.000 C 
ATOM     24  O2  UNL     1      71.757  60.292 103.032  0.00  0.00    +0.000 OA
ATOM     25  N1  UNL     1      72.657  61.568 104.762  0.00  0.00    +0.000 N 
ATOM     26  H10 UNL     1      72.994  61.551 105.750  0.00  0.00    +0.000 HD
BRANCH  23  27
ATOM     27  O1  UNL     1      72.583  59.131 104.860  0.00  0.00    +0.000 OA
BRANCH  27  29
ATOM     28  C1  UNL     1      71.810  57.214 106.062  0.00  0.00    +0.000 C 
ATOM     29  C2  UNL     1      72.017  58.734 106.117  0.00  0.00    +0.000 C 
ATOM     30  C3  UNL     1      72.982  59.068 107.269  0.00  0.00    +0.000 C 
ATOM     31  C4  UNL     1      70.650  59.413 106.341  0.00  0.00    +0.000 C 
ENDBRANCH  27  29
ENDBRANCH  23  27
ENDBRANCH   1  25
BRANCH  11  32
ATOM     32  C32 UNL     1      74.423  67.348 108.984  0.00  0.00    +0.000 C 
ATOM     33  O7  UNL     1      75.298  68.187 109.333  0.00  0.00    +0.000 OA
ATOM     34  N5  UNL     1      73.687  66.648 110.002  0.00  0.00    +0.000 N 
ATOM     35  H41 UNL     1      72.846  66.077 109.780  0.00  0.00    +0.000 HD
BRANCH  34  36
ATOM     36  S1  UNL     1      74.144  66.750 111.671  0.00  0.00    +0.000 S 
ATOM     37  O8  UNL     1      74.570  68.160 111.980  0.00  0.00    +0.000 OA
ATOM     38  O9  UNL     1      72.973  66.374 112.536  0.00  0.00    +0.000 OA
BRANCH  36  39
ATOM     39  C33 UNL     1      75.479  65.592 111.967  0.00  0.00    +0.000 C 
ATOM     40  C34 UNL     1      75.172  64.145 111.619  0.00  0.00    +0.000 C 
ATOM     41  C35 UNL     1      75.209  64.590 113.077  0.00  0.00    +0.000 C 
ENDBRANCH  36  39
ENDBRANCH  34  36
ENDBRANCH  11  32
BRANCH  17  42
ATOM     42  O5  UNL     1      77.547  61.903 104.636  0.00  0.00    +0.000 OA
BRANCH  42  43
ATOM     43  C23 UNL     1      77.507  61.175 103.441  0.00  0.00    +0.000 C 
ATOM     44  O6  UNL     1      78.114  61.594 102.415  0.00  0.00    +0.000 OA
ATOM     45  N4  UNL     1      76.791  59.937 103.387  0.00  0.00    +0.000 N 
ATOM     46  C24 UNL     1      76.643  59.130 102.172  0.00  0.00    +0.000 C 
ATOM     47  C25 UNL     1      76.044  57.872 102.680  0.00  0.00    +0.000 A 
ATOM     48  C26 UNL     1      75.848  57.936 104.042  0.00  0.00    +0.000 A 
ATOM     49  C27 UNL     1      76.288  59.246 104.579  0.00  0.00    +0.000 C 
ATOM     50  C28 UNL     1      75.316  56.854 104.751  0.00  0.00    +0.000 A 
ATOM     51  C29 UNL     1      74.980  55.690 104.043  0.00  0.00    +0.000 A 
ATOM     52  C30 UNL     1      75.180  55.625 102.648  0.00  0.00    +0.000 A 
ATOM     53  C31 UNL     1      75.710  56.726 101.955  0.00  0.00    +0.000 A 
ATOM     54  F1  UNL     1      75.131  56.926 106.094  0.00  0.00    +0.000 F 
ENDBRANCH  42  43
ENDBRANCH  17  42
TORSDOF 8
ENDMDL
MODEL 8
REMARK VINA RESULT:      -8.1      1.983      2.939
REMARK  Name = ./S1183.pdb
REMARK  11 active torsions:
REMARK  status: ('A' for Active; 'I' for Inactive)
REMARK    1  A    between atoms: C1_1  and  C2_2
REMARK    2  A    between atoms: C2_2  and  C3_3
REMARK    3  A    between atoms: C2_2  and  C4_4
REMARK    4  A    between atoms: C2_2  and  O1_5
REMARK    5  A    between atoms: O1_5  and  C5_6
REMARK    6  A    between atoms: N1_8  and  C6_9
REMARK    7  A    between atoms: C16_19  and  C32_43
REMARK    8  A    between atoms: C20_25  and  O5_30
REMARK    9  A    between atoms: O5_30  and  C23_31
REMARK   10  A    between atoms: N5_45  and  S1_46
REMARK   11  A    between atoms: S1_46  and  C33_49
REMARK                            x       y       z     vdW  Elec       q    Type
REMARK                         _______ _______ _______ _____ _____    ______ ____
ROOT
ATOM      1  C6  UNL     1      73.558  60.394 107.224  0.00  0.00    +0.000 C 
ATOM      2  C7  UNL     1      73.876  60.402 108.747  0.00  0.00    +0.000 C 
ATOM      3  C8  UNL     1      75.142  61.175 109.177  0.00  0.00    +0.000 C 
ATOM      4  C9  UNL     1      75.094  62.692 108.947  0.00  0.00    +0.000 C 
ATOM      5  C10 UNL     1      74.132  63.425 109.897  0.00  0.00    +0.000 C 
ATOM      6  C11 UNL     1      74.302  64.950 109.772  0.00  0.00    +0.000 C 
ATOM      7  C12 UNL     1      73.183  65.719 110.430  0.00  0.00    +0.000 C 
ATOM      8  C13 UNL     1      71.973  65.910 109.874  0.00  0.00    +0.000 C 
ATOM      9  C14 UNL     1      71.552  65.246 108.592  0.00  0.00    +0.000 C 
ATOM     10  C15 UNL     1      70.478  65.973 107.779  0.00  0.00    +0.000 C 
ATOM     11  C16 UNL     1      71.915  65.899 107.251  0.00  0.00    +0.000 C 
ATOM     12  N2  UNL     1      72.100  64.922 106.166  0.00  0.00    +0.000 N 
ATOM     13  C17 UNL     1      73.398  64.394 105.834  0.00  0.00    +0.000 C 
ATOM     14  O3  UNL     1      74.438  64.954 106.267  0.00  0.00    +0.000 OA
ATOM     15  C18 UNL     1      73.550  63.192 104.934  0.00  0.00    +0.000 C 
ATOM     16  C19 UNL     1      73.043  63.462 103.515  0.00  0.00    +0.000 C 
ATOM     17  C20 UNL     1      72.243  62.221 103.092  0.00  0.00    +0.000 C 
ATOM     18  C21 UNL     1      72.057  61.369 104.355  0.00  0.00    +0.000 C 
ATOM     19  N3  UNL     1      72.791  62.043 105.406  0.00  0.00    +0.000 N 
ATOM     20  C22 UNL     1      72.754  61.592 106.769  0.00  0.00    +0.000 C 
ATOM     21  O4  UNL     1      71.881  62.074 107.535  0.00  0.00    +0.000 OA
ATOM     22  H27 UNL     1      71.259  64.497 105.712  0.00  0.00    +0.000 HD
ENDROOT
BRANCH   1  25
ATOM     23  C5  UNL     1      75.238  58.968 105.957  0.00  0.00    +0.000 C 
ATOM     24  O2  UNL     1      74.558  57.932 106.176  0.00  0.00    +0.000 OA
ATOM     25  N1  UNL     1      74.781  60.238 106.431  0.00  0.00    +0.000 N 
ATOM     26  H10 UNL     1      75.433  61.048 106.342  0.00  0.00    +0.000 HD
BRANCH  23  27
ATOM     27  O1  UNL     1      76.456  58.900 105.266  0.00  0.00    +0.000 OA
BRANCH  27  29
ATOM     28  C1  UNL     1      77.749  58.424 103.310  0.00  0.00    +0.000 C 
ATOM     29  C2  UNL     1      76.703  59.362 103.930  0.00  0.00    +0.000 C 
ATOM     30  C3  UNL     1      75.413  59.297 103.092  0.00  0.00    +0.000 C 
ATOM     31  C4  UNL     1      77.269  60.797 103.942  0.00  0.00    +0.000 C 
ENDBRANCH  27  29
ENDBRANCH  23  27
ENDBRANCH   1  25
BRANCH  11  32
ATOM     32  C32 UNL     1      72.602  67.250 107.089  0.00  0.00    +0.000 C 
ATOM     33  O7  UNL     1      71.930  68.211 106.626  0.00  0.00    +0.000 OA
ATOM     34  N5  UNL     1      73.966  67.483 107.482  0.00  0.00    +0.000 N 
ATOM     35  H41 UNL     1      74.511  66.780 108.024  0.00  0.00    +0.000 HD
BRANCH  34  36
ATOM     36  S1  UNL     1      74.768  68.972 107.105  0.00  0.00    +0.000 S 
ATOM     37  O8  UNL     1      74.898  69.096 105.610  0.00  0.00    +0.000 OA
ATOM     38  O9  UNL     1      73.964  70.124 107.640  0.00  0.00    +0.000 OA
BRANCH  36  39
ATOM     39  C33 UNL     1      76.375  68.969 107.894  0.00  0.00    +0.000 C 
ATOM     40  C34 UNL     1      77.017  67.601 108.054  0.00  0.00    +0.000 C 
ATOM     41  C35 UNL     1      76.405  68.304 109.260  0.00  0.00    +0.000 C 
ENDBRANCH  36  39
ENDBRANCH  34  36
ENDBRANCH  11  32
BRANCH  17  42
ATOM     42  O5  UNL     1      72.941  61.508 102.067  0.00  0.00    +0.000 OA
BRANCH  42  43
ATOM     43  C23 UNL     1      72.838  61.821 100.706  0.00  0.00    +0.000 C 
ATOM     44  O6  UNL     1      73.830  62.293 100.081  0.00  0.00    +0.000 OA
ATOM     45  N4  UNL     1      71.608  61.586 100.014  0.00  0.00    +0.000 N 
ATOM     46  C24 UNL     1      71.383  61.930  98.607  0.00  0.00    +0.000 C 
ATOM     47  C25 UNL     1      70.079  61.287  98.312  0.00  0.00    +0.000 A 
ATOM     48  C26 UNL     1      69.585  60.646  99.427  0.00  0.00    +0.000 A 
ATOM     49  C27 UNL     1      70.504  60.804 100.579  0.00  0.00    +0.000 C 
ATOM     50  C28 UNL     1      68.376  59.944  99.385  0.00  0.00    +0.000 A 
ATOM     51  C29 UNL     1      67.666  59.906  98.174  0.00  0.00    +0.000 A 
ATOM     52  C30 UNL     1      68.172  60.564  97.034  0.00  0.00    +0.000 A 
ATOM     53  C31 UNL     1      69.386  61.268  97.101  0.00  0.00    +0.000 A 
ATOM     54  F1  UNL     1      67.900  59.311 100.487  0.00  0.00    +0.000 F 
ENDBRANCH  42  43
ENDBRANCH  17  42
TORSDOF 8
ENDMDL
MODEL 9
REMARK VINA RESULT:      -8.0      4.397     10.546
REMARK  Name = ./S1183.pdb
REMARK  11 active torsions:
REMARK  status: ('A' for Active; 'I' for Inactive)
REMARK    1  A    between atoms: C1_1  and  C2_2
REMARK    2  A    between atoms: C2_2  and  C3_3
REMARK    3  A    between atoms: C2_2  and  C4_4
REMARK    4  A    between atoms: C2_2  and  O1_5
REMARK    5  A    between atoms: O1_5  and  C5_6
REMARK    6  A    between atoms: N1_8  and  C6_9
REMARK    7  A    between atoms: C16_19  and  C32_43
REMARK    8  A    between atoms: C20_25  and  O5_30
REMARK    9  A    between atoms: O5_30  and  C23_31
REMARK   10  A    between atoms: N5_45  and  S1_46
REMARK   11  A    between atoms: S1_46  and  C33_49
REMARK                            x       y       z     vdW  Elec       q    Type
REMARK                         _______ _______ _______ _____ _____    ______ ____
ROOT
ATOM      1  C6  UNL     1      74.013  61.116 101.524  0.00  0.00    +0.000 C 
ATOM      2  C7  UNL     1      75.081  60.386 100.660  0.00  0.00    +0.000 C 
ATOM      3  C8  UNL     1      74.858  58.876 100.427  0.00  0.00    +0.000 C 
ATOM      4  C9  UNL     1      73.615  58.517  99.600  0.00  0.00    +0.000 C 
ATOM      5  C10 UNL     1      73.739  58.889  98.114  0.00  0.00    +0.000 C 
ATOM      6  C11 UNL     1      72.569  58.300  97.306  0.00  0.00    +0.000 C 
ATOM      7  C12 UNL     1      72.461  58.887  95.920  0.00  0.00    +0.000 C 
ATOM      8  C13 UNL     1      71.910  60.085  95.652  0.00  0.00    +0.000 C 
ATOM      9  C14 UNL     1      71.476  61.041  96.728  0.00  0.00    +0.000 C 
ATOM     10  C15 UNL     1      70.367  62.025  96.347  0.00  0.00    +0.000 C 
ATOM     11  C16 UNL     1      70.077  60.898  97.344  0.00  0.00    +0.000 C 
ATOM     12  N2  UNL     1      70.016  61.343  98.745  0.00  0.00    +0.000 N 
ATOM     13  C17 UNL     1      70.186  60.427  99.842  0.00  0.00    +0.000 C 
ATOM     14  O3  UNL     1      70.110  59.186  99.646  0.00  0.00    +0.000 OA
ATOM     15  C18 UNL     1      70.413  60.919 101.250  0.00  0.00    +0.000 C 
ATOM     16  C19 UNL     1      69.216  61.704 101.792  0.00  0.00    +0.000 C 
ATOM     17  C20 UNL     1      69.788  62.934 102.511  0.00  0.00    +0.000 C 
ATOM     18  C21 UNL     1      71.277  63.002 102.146  0.00  0.00    +0.000 C 
ATOM     19  N3  UNL     1      71.548  61.825 101.346  0.00  0.00    +0.000 N 
ATOM     20  C22 UNL     1      72.825  61.606 100.726  0.00  0.00    +0.000 C 
ATOM     21  O4  UNL     1      73.001  62.027  99.555  0.00  0.00    +0.000 OA
ATOM     22  H27 UNL     1      69.984  62.368  98.954  0.00  0.00    +0.000 HD
ENDROOT
BRANCH   1  25
ATOM     23  C5  UNL     1      73.974  60.565 104.005  0.00  0.00    +0.000 C 
ATOM     24  O2  UNL     1      74.659  61.587 104.266  0.00  0.00    +0.000 OA
ATOM     25  N1  UNL     1      73.592  60.284 102.655  0.00  0.00    +0.000 N 
ATOM     26  H10 UNL     1      73.137  59.364 102.465  0.00  0.00    +0.000 HD
BRANCH  23  27
ATOM     27  O1  UNL     1      73.585  59.677 105.018  0.00  0.00    +0.000 OA
BRANCH  27  29
ATOM     28  C1  UNL     1      74.887  59.736 107.024  0.00  0.00    +0.000 C 
ATOM     29  C2  UNL     1      74.457  58.874 105.828  0.00  0.00    +0.000 C 
ATOM     30  C3  UNL     1      73.714  57.631 106.348  0.00  0.00    +0.000 C 
ATOM     31  C4  UNL     1      75.714  58.463 105.036  0.00  0.00    +0.000 C 
ENDBRANCH  27  29
ENDBRANCH  23  27
ENDBRANCH   1  25
BRANCH  11  32
ATOM     32  C32 UNL     1      69.015  59.904  96.889  0.00  0.00    +0.000 C 
ATOM     33  O7  UNL     1      68.021  60.343  96.247  0.00  0.00    +0.000 OA
ATOM     34  N5  UNL     1      69.120  58.489  97.121  0.00  0.00    +0.000 N 
ATOM     35  H41 UNL     1      69.991  58.054  97.490  0.00  0.00    +0.000 HD
BRANCH  34  36
ATOM     36  S1  UNL     1      67.805  57.419  96.761  0.00  0.00    +0.000 S 
ATOM     37  O8  UNL     1      66.694  57.656  97.748  0.00  0.00    +0.000 OA
ATOM     38  O9  UNL     1      67.310  57.684  95.366  0.00  0.00    +0.000 OA
BRANCH  36  39
ATOM     39  C33 UNL     1      68.401  55.732  96.854  0.00  0.00    +0.000 C 
ATOM     40  C34 UNL     1      67.409  54.724  97.408  0.00  0.00    +0.000 C 
ATOM     41  C35 UNL     1      68.574  55.202  98.267  0.00  0.00    +0.000 C 
ENDBRANCH  36  39
ENDBRANCH  34  36
ENDBRANCH  11  32
BRANCH  17  42
ATOM     42  O5  UNL     1      69.590  62.817 103.923  0.00  0.00    +0.000 OA
BRANCH  42  43
ATOM     43  C23 UNL     1      70.420  62.055 104.755  0.00  0.00    +0.000 C 
ATOM     44  O6  UNL     1      70.561  60.815 104.556  0.00  0.00    +0.000 OA
ATOM     45  N4  UNL     1      71.129  62.689 105.825  0.00  0.00    +0.000 N 
ATOM     46  C24 UNL     1      71.975  61.971 106.782  0.00  0.00    +0.000 C 
ATOM     47  C25 UNL     1      72.651  63.070 107.516  0.00  0.00    +0.000 A 
ATOM     48  C26 UNL     1      72.237  64.299 107.051  0.00  0.00    +0.000 A 
ATOM     49  C27 UNL     1      71.238  64.144 105.966  0.00  0.00    +0.000 C 
ATOM     50  C28 UNL     1      72.756  65.486 107.575  0.00  0.00    +0.000 A 
ATOM     51  C29 UNL     1      73.716  65.404 108.596  0.00  0.00    +0.000 A 
ATOM     52  C30 UNL     1      74.138  64.146 109.073  0.00  0.00    +0.000 A 
ATOM     53  C31 UNL     1      73.598  62.965 108.536  0.00  0.00    +0.000 A 
ATOM     54  F1  UNL     1      72.346  66.692 107.106  0.00  0.00    +0.000 F 
ENDBRANCH  42  43
ENDBRANCH  17  42
TORSDOF 8
ENDMDL
MODEL 10
REMARK VINA RESULT:      -8.0      4.203     10.328
REMARK  Name = ./S1183.pdb
REMARK  11 active torsions:
REMARK  status: ('A' for Active; 'I' for Inactive)
REMARK    1  A    between atoms: C1_1  and  C2_2
REMARK    2  A    between atoms: C2_2  and  C3_3
REMARK    3  A    between atoms: C2_2  and  C4_4
REMARK    4  A    between atoms: C2_2  and  O1_5
REMARK    5  A    between atoms: O1_5  and  C5_6
REMARK    6  A    between atoms: N1_8  and  C6_9
REMARK    7  A    between atoms: C16_19  and  C32_43
REMARK    8  A    between atoms: C20_25  and  O5_30
REMARK    9  A    between atoms: O5_30  and  C23_31
REMARK   10  A    between atoms: N5_45  and  S1_46
REMARK   11  A    between atoms: S1_46  and  C33_49
REMARK                            x       y       z     vdW  Elec       q    Type
REMARK                         _______ _______ _______ _____ _____    ______ ____
ROOT
ATOM      1  C6  UNL     1      75.294  60.499 100.914  0.00  0.00    +0.000 C 
ATOM      2  C7  UNL     1      76.021  59.675  99.813  0.00  0.00    +0.000 C 
ATOM      3  C8  UNL     1      75.574  58.206  99.651  0.00  0.00    +0.000 C 
ATOM      4  C9  UNL     1      74.131  58.009  99.165  0.00  0.00    +0.000 C 
ATOM      5  C10 UNL     1      73.922  58.401  97.693  0.00  0.00    +0.000 C 
ATOM      6  C11 UNL     1      72.527  57.967  97.208  0.00  0.00    +0.000 C 
ATOM      7  C12 UNL     1      72.143  58.596  95.892  0.00  0.00    +0.000 C 
ATOM      8  C13 UNL     1      71.684  59.854  95.765  0.00  0.00    +0.000 C 
ATOM      9  C14 UNL     1      71.646  60.826  96.911  0.00  0.00    +0.000 C 
ATOM     10  C15 UNL     1      70.597  61.937  96.817  0.00  0.00    +0.000 C 
ATOM     11  C16 UNL     1      70.439  60.826  97.860  0.00  0.00    +0.000 C 
ATOM     12  N2  UNL     1      70.782  61.241  99.229  0.00  0.00    +0.000 N 
ATOM     13  C17 UNL     1      71.114  60.285 100.252  0.00  0.00    +0.000 C 
ATOM     14  O3  UNL     1      70.851  59.065 100.087  0.00  0.00    +0.000 OA
ATOM     15  C18 UNL     1      71.742  60.714 101.556  0.00  0.00    +0.000 C 
ATOM     16  C19 UNL     1      70.816  61.615 102.378  0.00  0.00    +0.000 C 
ATOM     17  C20 UNL     1      71.688  62.755 102.924  0.00  0.00    +0.000 C 
ATOM     18  C21 UNL     1      73.035  62.664 102.196  0.00  0.00    +0.000 C 
ATOM     19  N3  UNL     1      72.961  61.484 101.359  0.00  0.00    +0.000 N 
ATOM     20  C22 UNL     1      74.008  61.138 100.439  0.00  0.00    +0.000 C 
ATOM     21  O4  UNL     1      73.933  61.566  99.260  0.00  0.00    +0.000 OA
ATOM     22  H27 UNL     1      70.921  62.258  99.435  0.00  0.00    +0.000 HD
ENDROOT
BRANCH   1  25
ATOM     23  C5  UNL     1      75.526  60.101 103.414  0.00  0.00    +0.000 C 
ATOM     24  O2  UNL     1      76.090  61.216 103.563  0.00  0.00    +0.000 OA
ATOM     25  N1  UNL     1      75.077  59.692 102.119  0.00  0.00    +0.000 N 
ATOM     26  H10 UNL     1      74.732  58.712 102.016  0.00  0.00    +0.000 HD
BRANCH  23  27
ATOM     27  O1  UNL     1      75.338  59.236 104.502  0.00  0.00    +0.000 OA
BRANCH  27  29
ATOM     28  C1  UNL     1      74.349  58.017 106.307  0.00  0.00    +0.000 C 
ATOM     29  C2  UNL     1      74.284  59.305 105.473  0.00  0.00    +0.000 C 
ATOM     30  C3  UNL     1      74.488  60.514 106.402  0.00  0.00    +0.000 C 
ATOM     31  C4  UNL     1      72.908  59.378 104.782  0.00  0.00    +0.000 C 
ENDBRANCH  27  29
ENDBRANCH  23  27
ENDBRANCH   1  25
BRANCH  11  32
ATOM     32  C32 UNL     1      69.190  59.969  97.691  0.00  0.00    +0.000 C 
ATOM     33  O7  UNL     1      68.138  60.522  97.266  0.00  0.00    +0.000 OA
ATOM     34  N5  UNL     1      69.173  58.555  97.952  0.00  0.00    +0.000 N 
ATOM     35  H41 UNL     1      70.045  58.018  98.137  0.00  0.00    +0.000 HD
BRANCH  34  36
ATOM     36  S1  UNL     1      67.691  57.656  97.935  0.00  0.00    +0.000 S 
ATOM     37  O8  UNL     1      67.112  57.687  96.546  0.00  0.00    +0.000 OA
ATOM     38  O9  UNL     1      67.963  56.232  98.338  0.00  0.00    +0.000 OA
BRANCH  36  39
ATOM     39  C33 UNL     1      66.566  58.389  99.120  0.00  0.00    +0.000 C 
ATOM     40  C34 UNL     1      67.224  58.999 100.347  0.00  0.00    +0.000 C 
ATOM     41  C35 UNL     1      66.496  57.664 100.454  0.00  0.00    +0.000 C 
ENDBRANCH  36  39
ENDBRANCH  34  36
ENDBRANCH  11  32
BRANCH  17  42
ATOM     42  O5  UNL     1      71.838  62.626 104.341  0.00  0.00    +0.000 OA
BRANCH  42  43
ATOM     43  C23 UNL     1      70.856  63.023 105.258  0.00  0.00    +0.000 C 
ATOM     44  O6  UNL     1      69.841  62.299 105.463  0.00  0.00    +0.000 OA
ATOM     45  N4  UNL     1      71.015  64.247 105.983  0.00  0.00    +0.000 N 
ATOM     46  C24 UNL     1      70.021  64.776 106.921  0.00  0.00    +0.000 C 
ATOM     47  C25 UNL     1      70.739  65.901 107.567  0.00  0.00    +0.000 A 
ATOM     48  C26 UNL     1      72.012  66.029 107.056  0.00  0.00    +0.000 A 
ATOM     49  C27 UNL     1      72.268  65.008 106.012  0.00  0.00    +0.000 C 
ATOM     50  C28 UNL     1      72.890  67.008 107.531  0.00  0.00    +0.000 A 
ATOM     51  C29 UNL     1      72.447  67.870 108.546  0.00  0.00    +0.000 A 
ATOM     52  C30 UNL     1      71.144  67.739 109.068  0.00  0.00    +0.000 A 
ATOM     53  C31 UNL     1      70.275  66.751 108.573  0.00  0.00    +0.000 A 
ATOM     54  F1  UNL     1      74.144  67.123 107.024  0.00  0.00    +0.000 F 
ENDBRANCH  42  43
ENDBRANCH  17  42
TORSDOF 8
ENDMDL
MODEL 11
REMARK VINA RESULT:      -8.0      2.992      4.483
REMARK  Name = ./S1183.pdb
REMARK  11 active torsions:
REMARK  status: ('A' for Active; 'I' for Inactive)
REMARK    1  A    between atoms: C1_1  and  C2_2
REMARK    2  A    between atoms: C2_2  and  C3_3
REMARK    3  A    between atoms: C2_2  and  C4_4
REMARK    4  A    between atoms: C2_2  and  O1_5
REMARK    5  A    between atoms: O1_5  and  C5_6
REMARK    6  A    between atoms: N1_8  and  C6_9
REMARK    7  A    between atoms: C16_19  and  C32_43
REMARK    8  A    between atoms: C20_25  and  O5_30
REMARK    9  A    between atoms: O5_30  and  C23_31
REMARK   10  A    between atoms: N5_45  and  S1_46
REMARK   11  A    between atoms: S1_46  and  C33_49
REMARK                            x       y       z     vdW  Elec       q    Type
REMARK                         _______ _______ _______ _____ _____    ______ ____
ROOT
ATOM      1  C6  UNL     1      72.585  60.262 107.141  0.00  0.00    +0.000 C 
ATOM      2  C7  UNL     1      73.167  59.891 108.534  0.00  0.00    +0.000 C 
ATOM      3  C8  UNL     1      74.706  59.808 108.632  0.00  0.00    +0.000 C 
ATOM      4  C9  UNL     1      75.449  61.136 108.424  0.00  0.00    +0.000 C 
ATOM      5  C10 UNL     1      75.269  62.127 109.585  0.00  0.00    +0.000 C 
ATOM      6  C11 UNL     1      76.214  63.331 109.423  0.00  0.00    +0.000 C 
ATOM      7  C12 UNL     1      75.866  64.476 110.342  0.00  0.00    +0.000 C 
ATOM      8  C13 UNL     1      74.874  65.353 110.108  0.00  0.00    +0.000 C 
ATOM      9  C14 UNL     1      73.900  65.197 108.973  0.00  0.00    +0.000 C 
ATOM     10  C15 UNL     1      73.255  66.486 108.457  0.00  0.00    +0.000 C 
ATOM     11  C16 UNL     1      74.268  65.737 107.584  0.00  0.00    +0.000 C 
ATOM     12  N2  UNL     1      73.657  64.971 106.487  0.00  0.00    +0.000 N 
ATOM     13  C17 UNL     1      74.349  63.888 105.839  0.00  0.00    +0.000 C 
ATOM     14  O3  UNL     1      75.590  63.747 105.996  0.00  0.00    +0.000 OA
ATOM     15  C18 UNL     1      73.626  62.925 104.928  0.00  0.00    +0.000 C 
ATOM     16  C19 UNL     1      73.065  63.615 103.682  0.00  0.00    +0.000 C 
ATOM     17  C20 UNL     1      71.649  63.058 103.474  0.00  0.00    +0.000 C 
ATOM     18  C21 UNL     1      71.298  62.269 104.743  0.00  0.00    +0.000 C 
ATOM     19  N3  UNL     1      72.483  62.300 105.575  0.00  0.00    +0.000 N 
ATOM     20  C22 UNL     1      72.492  61.753 106.904  0.00  0.00    +0.000 C 
ATOM     21  O4  UNL     1      72.210  62.512 107.864  0.00  0.00    +0.000 OA
ATOM     22  H27 UNL     1      72.647  65.122 106.259  0.00  0.00    +0.000 HD
ENDROOT
BRANCH   1  25
ATOM     23  C5  UNL     1      72.820  58.444 105.380  0.00  0.00    +0.000 C 
ATOM     24  O2  UNL     1      71.678  57.994 105.659  0.00  0.00    +0.000 OA
ATOM     25  N1  UNL     1      73.324  59.594 106.065  0.00  0.00    +0.000 N 
ATOM     26  H10 UNL     1      74.320  59.857 105.897  0.00  0.00    +0.000 HD
BRANCH  23  27
ATOM     27  O1  UNL     1      73.624  57.825 104.412  0.00  0.00    +0.000 OA
BRANCH  27  29
ATOM     28  C1  UNL     1      75.331  58.369 102.827  0.00  0.00    +0.000 C 
ATOM     29  C2  UNL     1      73.817  58.263 103.059  0.00  0.00    +0.000 C 
ATOM     30  C3  UNL     1      73.229  57.237 102.073  0.00  0.00    +0.000 C 
ATOM     31  C4  UNL     1      73.184  59.652 102.838  0.00  0.00    +0.000 C 
ENDBRANCH  27  29
ENDBRANCH  23  27
ENDBRANCH   1  25
BRANCH  11  32
ATOM     32  C32 UNL     1      75.530  66.527 107.256  0.00  0.00    +0.000 C 
ATOM     33  O7  UNL     1      75.420  67.764 107.032  0.00  0.00    +0.000 OA
ATOM     34  N5  UNL     1      76.839  65.931 107.233  0.00  0.00    +0.000 N 
ATOM     35  H41 UNL     1      77.010  64.962 107.574  0.00  0.00    +0.000 HD
BRANCH  34  36
ATOM     36  S1  UNL     1      78.218  66.815 106.667  0.00  0.00    +0.000 S 
ATOM     37  O8  UNL     1      77.928  67.352 105.292  0.00  0.00    +0.000 OA
ATOM     38  O9  UNL     1      78.503  67.955 107.606  0.00  0.00    +0.000 OA
BRANCH  36  39
ATOM     39  C33 UNL     1      79.631  65.714 106.646  0.00  0.00    +0.000 C 
ATOM     40  C34 UNL     1      79.346  64.303 106.157  0.00  0.00    +0.000 C 
ATOM     41  C35 UNL     1      79.552  64.570 107.644  0.00  0.00    +0.000 C 
ENDBRANCH  36  39
ENDBRANCH  34  36
ENDBRANCH  11  32
BRANCH  17  42
ATOM     42  O5  UNL     1      71.609  62.234 102.306  0.00  0.00    +0.000 OA
BRANCH  42  43
ATOM     43  C23 UNL     1      70.424  61.714 101.771  0.00  0.00    +0.000 C 
ATOM     44  O6  UNL     1      69.428  61.493 102.516  0.00  0.00    +0.000 OA
ATOM     45  N4  UNL     1      70.334  61.450 100.367  0.00  0.00    +0.000 N 
ATOM     46  C24 UNL     1      69.161  60.856  99.721  0.00  0.00    +0.000 C 
ATOM     47  C25 UNL     1      69.464  61.009  98.277  0.00  0.00    +0.000 A 
ATOM     48  C26 UNL     1      70.688  61.614  98.093  0.00  0.00    +0.000 A 
ATOM     49  C27 UNL     1      71.328  61.918  99.395  0.00  0.00    +0.000 C 
ATOM     50  C28 UNL     1      71.179  61.887  96.813  0.00  0.00    +0.000 A 
ATOM     51  C29 UNL     1      70.395  61.528  95.705  0.00  0.00    +0.000 A 
ATOM     52  C30 UNL     1      69.143  60.907  95.893  0.00  0.00    +0.000 A 
ATOM     53  C31 UNL     1      68.672  60.637  97.189  0.00  0.00    +0.000 A 
ATOM     54  F1  UNL     1      72.383  62.488  96.642  0.00  0.00    +0.000 F 
ENDBRANCH  42  43
ENDBRANCH  17  42
TORSDOF 8
ENDMDL
MODEL 12
REMARK VINA RESULT:      -7.9      4.102     10.218
REMARK  Name = ./S1183.pdb
REMARK  11 active torsions:
REMARK  status: ('A' for Active; 'I' for Inactive)
REMARK    1  A    between atoms: C1_1  and  C2_2
REMARK    2  A    between atoms: C2_2  and  C3_3
REMARK    3  A    between atoms: C2_2  and  C4_4
REMARK    4  A    between atoms: C2_2  and  O1_5
REMARK    5  A    between atoms: O1_5  and  C5_6
REMARK    6  A    between atoms: N1_8  and  C6_9
REMARK    7  A    between atoms: C16_19  and  C32_43
REMARK    8  A    between atoms: C20_25  and  O5_30
REMARK    9  A    between atoms: O5_30  and  C23_31
REMARK   10  A    between atoms: N5_45  and  S1_46
REMARK   11  A    between atoms: S1_46  and  C33_49
REMARK                            x       y       z     vdW  Elec       q    Type
REMARK                         _______ _______ _______ _____ _____    ______ ____
ROOT
ATOM      1  C6  UNL     1      75.632  60.489 101.566  0.00  0.00    +0.000 C 
ATOM      2  C7  UNL     1      76.357  59.625 100.494  0.00  0.00    +0.000 C 
ATOM      3  C8  UNL     1      75.790  58.207 100.262  0.00  0.00    +0.000 C 
ATOM      4  C9  UNL     1      74.372  58.156  99.674  0.00  0.00    +0.000 C 
ATOM      5  C10 UNL     1      74.304  58.596  98.202  0.00  0.00    +0.000 C 
ATOM      6  C11 UNL     1      72.913  58.304  97.612  0.00  0.00    +0.000 C 
ATOM      7  C12 UNL     1      72.682  58.994  96.290  0.00  0.00    +0.000 C 
ATOM      8  C13 UNL     1      72.350  60.292  96.166  0.00  0.00    +0.000 C 
ATOM      9  C14 UNL     1      72.320  61.239  97.334  0.00  0.00    +0.000 C 
ATOM     10  C15 UNL     1      71.387  62.445  97.199  0.00  0.00    +0.000 C 
ATOM     11  C16 UNL     1      71.055  61.331  98.198  0.00  0.00    +0.000 C 
ATOM     12  N2  UNL     1      71.337  61.684  99.598  0.00  0.00    +0.000 N 
ATOM     13  C17 UNL     1      71.508  60.679 100.615  0.00  0.00    +0.000 C 
ATOM     14  O3  UNL     1      71.146  59.494 100.399  0.00  0.00    +0.000 OA
ATOM     15  C18 UNL     1      72.079  61.021 101.970  0.00  0.00    +0.000 C 
ATOM     16  C19 UNL     1      71.184  61.987 102.751  0.00  0.00    +0.000 C 
ATOM     17  C20 UNL     1      72.116  63.030 103.387  0.00  0.00    +0.000 C 
ATOM     18  C21 UNL     1      73.497  62.828 102.749  0.00  0.00    +0.000 C 
ATOM     19  N3  UNL     1      73.374  61.678 101.878  0.00  0.00    +0.000 N 
ATOM     20  C22 UNL     1      74.448  61.256 101.022  0.00  0.00    +0.000 C 
ATOM     21  O4  UNL     1      74.495  61.713  99.852  0.00  0.00    +0.000 OA
ATOM     22  H27 UNL     1      71.554  62.679  99.841  0.00  0.00    +0.000 HD
ENDROOT
BRANCH   1  25
ATOM     23  C5  UNL     1      75.757  59.944 104.045  0.00  0.00    +0.000 C 
ATOM     24  O2  UNL     1      76.511  60.931 104.248  0.00  0.00    +0.000 OA
ATOM     25  N1  UNL     1      75.258  59.681 102.730  0.00  0.00    +0.000 N 
ATOM     26  H10 UNL     1      74.744  58.785 102.580  0.00  0.00    +0.000 HD
BRANCH  23  27
ATOM     27  O1  UNL     1      75.403  59.078 105.090  0.00  0.00    +0.000 OA
BRANCH  27  29
ATOM     28  C1  UNL     1      74.077  57.923 106.712  0.00  0.00    +0.000 C 
ATOM     29  C2  UNL     1      74.345  59.277 106.039  0.00  0.00    +0.000 C 
ATOM     30  C3  UNL     1      74.773  60.293 107.114  0.00  0.00    +0.000 C 
ATOM     31  C4  UNL     1      73.057  59.744 105.333  0.00  0.00    +0.000 C 
ENDBRANCH  27  29
ENDBRANCH  23  27
ENDBRANCH   1  25
BRANCH  11  32
ATOM     32  C32 UNL     1      69.747  60.598  97.921  0.00  0.00    +0.000 C 
ATOM     33  O7  UNL     1      68.770  61.265  97.482  0.00  0.00    +0.000 OA
ATOM     34  N5  UNL     1      69.596  59.179  98.096  0.00  0.00    +0.000 N 
ATOM     35  H41 UNL     1      70.410  58.558  98.289  0.00  0.00    +0.000 HD
BRANCH  34  36
ATOM     36  S1  UNL     1      68.047  58.416  97.958  0.00  0.00    +0.000 S 
ATOM     37  O8  UNL     1      67.613  58.440  96.517  0.00  0.00    +0.000 OA
ATOM     38  O9  UNL     1      68.143  56.993  98.433  0.00  0.00    +0.000 OA
BRANCH  36  39
ATOM     39  C33 UNL     1      66.883  59.297  98.996  0.00  0.00    +0.000 C 
ATOM     40  C34 UNL     1      67.292  59.437 100.453  0.00  0.00    +0.000 C 
ATOM     41  C35 UNL     1      66.209  58.440 100.055  0.00  0.00    +0.000 C 
ENDBRANCH  36  39
ENDBRANCH  34  36
ENDBRANCH  11  32
BRANCH  17  42
ATOM     42  O5  UNL     1      72.154  62.858 104.806  0.00  0.00    +0.000 OA
BRANCH  42  43
ATOM     43  C23 UNL     1      71.276  63.507 105.683  0.00  0.00    +0.000 C 
ATOM     44  O6  UNL     1      70.072  63.705 105.355  0.00  0.00    +0.000 OA
ATOM     45  N4  UNL     1      71.741  63.930 106.969  0.00  0.00    +0.000 N 
ATOM     46  C24 UNL     1      70.918  64.664 107.934  0.00  0.00    +0.000 C 
ATOM     47  C25 UNL     1      71.755  64.655 109.159  0.00  0.00    +0.000 A 
ATOM     48  C26 UNL     1      72.945  63.998 108.936  0.00  0.00    +0.000 A 
ATOM     49  C27 UNL     1      73.026  63.512 107.537  0.00  0.00    +0.000 C 
ATOM     50  C28 UNL     1      73.889  63.839 109.954  0.00  0.00    +0.000 A 
ATOM     51  C29 UNL     1      73.601  64.367 111.223  0.00  0.00    +0.000 A 
ATOM     52  C30 UNL     1      72.383  65.040 111.451  0.00  0.00    +0.000 A 
ATOM     53  C31 UNL     1      71.451  65.194 110.410  0.00  0.00    +0.000 A 
ATOM     54  F1  UNL     1      75.057  63.187 109.725  0.00  0.00    +0.000 F 
ENDBRANCH  42  43
ENDBRANCH  17  42
TORSDOF 8
ENDMDL
MODEL 13
REMARK VINA RESULT:      -7.9      1.995      2.637
REMARK  Name = ./S1183.pdb
REMARK  11 active torsions:
REMARK  status: ('A' for Active; 'I' for Inactive)
REMARK    1  A    between atoms: C1_1  and  C2_2
REMARK    2  A    between atoms: C2_2  and  C3_3
REMARK    3  A    between atoms: C2_2  and  C4_4
REMARK    4  A    between atoms: C2_2  and  O1_5
REMARK    5  A    between atoms: O1_5  and  C5_6
REMARK    6  A    between atoms: N1_8  and  C6_9
REMARK    7  A    between atoms: C16_19  and  C32_43
REMARK    8  A    between atoms: C20_25  and  O5_30
REMARK    9  A    between atoms: O5_30  and  C23_31
REMARK   10  A    between atoms: N5_45  and  S1_46
REMARK   11  A    between atoms: S1_46  and  C33_49
REMARK                            x       y       z     vdW  Elec       q    Type
REMARK                         _______ _______ _______ _____ _____    ______ ____
ROOT
ATOM      1  C6  UNL     1      74.598  61.456 107.229  0.00  0.00    +0.000 C 
ATOM      2  C7  UNL     1      75.782  61.899 108.136  0.00  0.00    +0.000 C 
ATOM      3  C8  UNL     1      76.558  63.154 107.682  0.00  0.00    +0.000 C 
ATOM      4  C9  UNL     1      75.756  64.463 107.703  0.00  0.00    +0.000 C 
ATOM      5  C10 UNL     1      75.448  64.971 109.120  0.00  0.00    +0.000 C 
ATOM      6  C11 UNL     1      74.851  66.389 109.072  0.00  0.00    +0.000 C 
ATOM      7  C12 UNL     1      74.239  66.812 110.385  0.00  0.00    +0.000 C 
ATOM      8  C13 UNL     1      73.022  66.424 110.807  0.00  0.00    +0.000 C 
ATOM      9  C14 UNL     1      72.196  65.400 110.078  0.00  0.00    +0.000 C 
ATOM     10  C15 UNL     1      70.682  65.493 110.276  0.00  0.00    +0.000 C 
ATOM     11  C16 UNL     1      71.296  65.844 108.917  0.00  0.00    +0.000 C 
ATOM     12  N2  UNL     1      71.117  64.801 107.895  0.00  0.00    +0.000 N 
ATOM     13  C17 UNL     1      71.956  64.730 106.727  0.00  0.00    +0.000 C 
ATOM     14  O3  UNL     1      72.676  65.711 106.405  0.00  0.00    +0.000 OA
ATOM     15  C18 UNL     1      71.967  63.510 105.840  0.00  0.00    +0.000 C 
ATOM     16  C19 UNL     1      70.613  63.271 105.164  0.00  0.00    +0.000 C 
ATOM     17  C20 UNL     1      70.335  61.764 105.262  0.00  0.00    +0.000 C 
ATOM     18  C21 UNL     1      71.379  61.188 106.228  0.00  0.00    +0.000 C 
ATOM     19  N3  UNL     1      72.254  62.288 106.576  0.00  0.00    +0.000 N 
ATOM     20  C22 UNL     1      73.294  62.150 107.557  0.00  0.00    +0.000 C 
ATOM     21  O4  UNL     1      73.028  62.425 108.754  0.00  0.00    +0.000 OA
ATOM     22  H27 UNL     1      70.457  64.011 108.082  0.00  0.00    +0.000 HD
ENDROOT
BRANCH   1  25
ATOM     23  C5  UNL     1      75.613  60.577 105.070  0.00  0.00    +0.000 C 
ATOM     24  O2  UNL     1      75.896  59.482 105.622  0.00  0.00    +0.000 OA
ATOM     25  N1  UNL     1      74.938  61.599 105.810  0.00  0.00    +0.000 N 
ATOM     26  H10 UNL     1      74.837  62.535 105.358  0.00  0.00    +0.000 HD
BRANCH  23  27
ATOM     27  O1  UNL     1      75.963  60.826 103.735  0.00  0.00    +0.000 OA
BRANCH  27  29
ATOM     28  C1  UNL     1      77.998  61.913 104.367  0.00  0.00    +0.000 C 
ATOM     29  C2  UNL     1      77.270  61.157 103.246  0.00  0.00    +0.000 C 
ATOM     30  C3  UNL     1      78.058  59.878 102.911  0.00  0.00    +0.000 C 
ATOM     31  C4  UNL     1      77.176  62.074 102.010  0.00  0.00    +0.000 C 
ENDBRANCH  27  29
ENDBRANCH  23  27
ENDBRANCH   1  25
BRANCH  11  32
ATOM     32  C32 UNL     1      71.081  67.287 108.477  0.00  0.00    +0.000 C 
ATOM     33  O7  UNL     1      69.957  67.818 108.697  0.00  0.00    +0.000 OA
ATOM     34  N5  UNL     1      72.113  68.078 107.863  0.00  0.00    +0.000 N 
ATOM     35  H41 UNL     1      73.101  67.752 107.813  0.00  0.00    +0.000 HD
BRANCH  34  36
ATOM     36  S1  UNL     1      71.773  69.644 107.202  0.00  0.00    +0.000 S 
ATOM     37  O8  UNL     1      70.776  69.500 106.084  0.00  0.00    +0.000 OA
ATOM     38  O9  UNL     1      71.204  70.529 108.277  0.00  0.00    +0.000 OA
BRANCH  36  39
ATOM     39  C33 UNL     1      73.306  70.359 106.613  0.00  0.00    +0.000 C 
ATOM     40  C34 UNL     1      74.572  69.711 107.149  0.00  0.00    +0.000 C 
ATOM     41  C35 UNL     1      74.123  71.067 107.681  0.00  0.00    +0.000 C 
ENDBRANCH  36  39
ENDBRANCH  34  36
ENDBRANCH  11  32
BRANCH  17  42
ATOM     42  O5  UNL     1      70.415  61.161 103.968  0.00  0.00    +0.000 OA
BRANCH  42  43
ATOM     43  C23 UNL     1      70.903  61.829 102.838  0.00  0.00    +0.000 C 
ATOM     44  O6  UNL     1      70.474  62.979 102.538  0.00  0.00    +0.000 OA
ATOM     45  N4  UNL     1      71.910  61.213 102.028  0.00  0.00    +0.000 N 
ATOM     46  C24 UNL     1      72.444  61.804 100.798  0.00  0.00    +0.000 C 
ATOM     47  C25 UNL     1      73.592  60.921 100.476  0.00  0.00    +0.000 A 
ATOM     48  C26 UNL     1      73.713  59.913 101.408  0.00  0.00    +0.000 A 
ATOM     49  C27 UNL     1      72.652  60.017 102.439  0.00  0.00    +0.000 C 
ATOM     50  C28 UNL     1      74.741  58.970 101.328  0.00  0.00    +0.000 A 
ATOM     51  C29 UNL     1      75.658  59.066 100.270  0.00  0.00    +0.000 A 
ATOM     52  C30 UNL     1      75.533  60.097  99.315  0.00  0.00    +0.000 A 
ATOM     53  C31 UNL     1      74.488  61.032  99.412  0.00  0.00    +0.000 A 
ATOM     54  F1  UNL     1      74.854  57.984 102.254  0.00  0.00    +0.000 F 
ENDBRANCH  42  43
ENDBRANCH  17  42
TORSDOF 8
ENDMDL
MODEL 14
REMARK VINA RESULT:      -7.9      4.724      8.616
REMARK  Name = ./S1183.pdb
REMARK  11 active torsions:
REMARK  status: ('A' for Active; 'I' for Inactive)
REMARK    1  A    between atoms: C1_1  and  C2_2
REMARK    2  A    between atoms: C2_2  and  C3_3
REMARK    3  A    between atoms: C2_2  and  C4_4
REMARK    4  A    between atoms: C2_2  and  O1_5
REMARK    5  A    between atoms: O1_5  and  C5_6
REMARK    6  A    between atoms: N1_8  and  C6_9
REMARK    7  A    between atoms: C16_19  and  C32_43
REMARK    8  A    between atoms: C20_25  and  O5_30
REMARK    9  A    between atoms: O5_30  and  C23_31
REMARK   10  A    between atoms: N5_45  and  S1_46
REMARK   11  A    between atoms: S1_46  and  C33_49
REMARK                            x       y       z     vdW  Elec       q    Type
REMARK                         _______ _______ _______ _____ _____    ______ ____
ROOT
ATOM      1  C6  UNL     1      72.102  61.115  99.102  0.00  0.00    +0.000 C 
ATOM      2  C7  UNL     1      70.874  62.024  99.394  0.00  0.00    +0.000 C 
ATOM      3  C8  UNL     1      69.817  61.454 100.367  0.00  0.00    +0.000 C 
ATOM      4  C9  UNL     1      70.298  61.252 101.811  0.00  0.00    +0.000 C 
ATOM      5  C10 UNL     1      70.520  62.569 102.573  0.00  0.00    +0.000 C 
ATOM      6  C11 UNL     1      70.774  62.296 104.066  0.00  0.00    +0.000 C 
ATOM      7  C12 UNL     1      71.308  63.502 104.798  0.00  0.00    +0.000 C 
ATOM      8  C13 UNL     1      72.593  63.899 104.757  0.00  0.00    +0.000 C 
ATOM      9  C14 UNL     1      73.612  63.266 103.849  0.00  0.00    +0.000 C 
ATOM     10  C15 UNL     1      75.069  63.358 104.306  0.00  0.00    +0.000 C 
ATOM     11  C16 UNL     1      74.353  62.004 104.313  0.00  0.00    +0.000 C 
ATOM     12  N2  UNL     1      74.738  61.121 103.201  0.00  0.00    +0.000 N 
ATOM     13  C17 UNL     1      73.906  60.025 102.778  0.00  0.00    +0.000 C 
ATOM     14  O3  UNL     1      72.972  59.619 103.517  0.00  0.00    +0.000 OA
ATOM     15  C18 UNL     1      74.152  59.310 101.471  0.00  0.00    +0.000 C 
ATOM     16  C19 UNL     1      75.504  58.593 101.447  0.00  0.00    +0.000 C 
ATOM     17  C20 UNL     1      76.124  58.875 100.070  0.00  0.00    +0.000 C 
ATOM     18  C21 UNL     1      75.267  59.968  99.420  0.00  0.00    +0.000 C 
ATOM     19  N3  UNL     1      74.173  60.219 100.335  0.00  0.00    +0.000 N 
ATOM     20  C22 UNL     1      73.219  61.270 100.110  0.00  0.00    +0.000 C 
ATOM     21  O4  UNL     1      73.448  62.401 100.606  0.00  0.00    +0.000 OA
ATOM     22  H27 UNL     1      75.567  61.372 102.613  0.00  0.00    +0.000 HD
ENDROOT
BRANCH   1  25
ATOM     23  C5  UNL     1      71.901  58.968  97.756  0.00  0.00    +0.000 C 
ATOM     24  O2  UNL     1      72.489  59.499  96.779  0.00  0.00    +0.000 OA
ATOM     25  N1  UNL     1      71.699  59.713  98.961  0.00  0.00    +0.000 N 
ATOM     26  H10 UNL     1      71.096  59.283  99.698  0.00  0.00    +0.000 HD
BRANCH  23  27
ATOM     27  O1  UNL     1      71.421  57.652  97.684  0.00  0.00    +0.000 OA
BRANCH  27  29
ATOM     28  C1  UNL     1      70.563  56.978  95.556  0.00  0.00    +0.000 C 
ATOM     29  C2  UNL     1      70.218  57.220  97.032  0.00  0.00    +0.000 C 
ATOM     30  C3  UNL     1      69.715  55.903  97.651  0.00  0.00    +0.000 C 
ATOM     31  C4  UNL     1      69.129  58.308  97.115  0.00  0.00    +0.000 C 
ENDBRANCH  27  29
ENDBRANCH  23  27
ENDBRANCH   1  25
BRANCH  11  32
ATOM     32  C32 UNL     1      74.219  61.363 105.689  0.00  0.00    +0.000 C 
ATOM     33  O7  UNL     1      75.167  61.506 106.510  0.00  0.00    +0.000 OA
ATOM     34  N5  UNL     1      73.045  60.643 106.104  0.00  0.00    +0.000 N 
ATOM     35  H41 UNL     1      72.172  60.640 105.537  0.00  0.00    +0.000 HD
BRANCH  34  36
ATOM     36  S1  UNL     1      73.009  59.767 107.599  0.00  0.00    +0.000 S 
ATOM     37  O8  UNL     1      74.224  58.883 107.679  0.00  0.00    +0.000 OA
ATOM     38  O9  UNL     1      73.012  60.737 108.749  0.00  0.00    +0.000 OA
BRANCH  36  39
ATOM     39  C33 UNL     1      71.502  58.802 107.657  0.00  0.00    +0.000 C 
ATOM     40  C34 UNL     1      71.322  57.811 106.519  0.00  0.00    +0.000 C 
ATOM     41  C35 UNL     1      70.516  59.105 106.541  0.00  0.00    +0.000 C 
ENDBRANCH  36  39
ENDBRANCH  34  36
ENDBRANCH  11  32
BRANCH  17  42
ATOM     42  O5  UNL     1      76.148  57.679  99.286  0.00  0.00    +0.000 OA
BRANCH  42  43
ATOM     43  C23 UNL     1      76.203  57.678  97.886  0.00  0.00    +0.000 C 
ATOM     44  O6  UNL     1      77.101  58.328  97.280  0.00  0.00    +0.000 OA
ATOM     45  N4  UNL     1      75.247  56.918  97.139  0.00  0.00    +0.000 N 
ATOM     46  C24 UNL     1      75.186  56.897  95.674  0.00  0.00    +0.000 C 
ATOM     47  C25 UNL     1      74.214  55.811  95.399  0.00  0.00    +0.000 A 
ATOM     48  C26 UNL     1      73.744  55.263  96.572  0.00  0.00    +0.000 A 
ATOM     49  C27 UNL     1      74.348  55.933  97.748  0.00  0.00    +0.000 C 
ATOM     50  C28 UNL     1      72.833  54.203  96.565  0.00  0.00    +0.000 A 
ATOM     51  C29 UNL     1      72.398  53.702  95.327  0.00  0.00    +0.000 A 
ATOM     52  C30 UNL     1      72.878  54.265  94.126  0.00  0.00    +0.000 A 
ATOM     53  C31 UNL     1      73.789  55.334  94.157  0.00  0.00    +0.000 A 
ATOM     54  F1  UNL     1      72.379  53.666  97.726  0.00  0.00    +0.000 F 
ENDBRANCH  42  43
ENDBRANCH  17  42
TORSDOF 8
ENDMDL
MODEL 15
REMARK VINA RESULT:      -7.8      5.716      9.540
REMARK  Name = ./S1183.pdb
REMARK  11 active torsions:
REMARK  status: ('A' for Active; 'I' for Inactive)
REMARK    1  A    between atoms: C1_1  and  C2_2
REMARK    2  A    between atoms: C2_2  and  C3_3
REMARK    3  A    between atoms: C2_2  and  C4_4
REMARK    4  A    between atoms: C2_2  and  O1_5
REMARK    5  A    between atoms: O1_5  and  C5_6
REMARK    6  A    between atoms: N1_8  and  C6_9
REMARK    7  A    between atoms: C16_19  and  C32_43
REMARK    8  A    between atoms: C20_25  and  O5_30
REMARK    9  A    between atoms: O5_30  and  C23_31
REMARK   10  A    between atoms: N5_45  and  S1_46
REMARK   11  A    between atoms: S1_46  and  C33_49
REMARK                            x       y       z     vdW  Elec       q    Type
REMARK                         _______ _______ _______ _____ _____    ______ ____
ROOT
ATOM      1  C6  UNL     1      70.150  61.860 100.428  0.00  0.00    +0.000 C 
ATOM      2  C7  UNL     1      70.033  62.768 101.686  0.00  0.00    +0.000 C 
ATOM      3  C8  UNL     1      70.042  62.048 103.052  0.00  0.00    +0.000 C 
ATOM      4  C9  UNL     1      71.355  61.335 103.409  0.00  0.00    +0.000 C 
ATOM      5  C10 UNL     1      72.508  62.300 103.730  0.00  0.00    +0.000 C 
ATOM      6  C11 UNL     1      73.715  61.533 104.299  0.00  0.00    +0.000 C 
ATOM      7  C12 UNL     1      74.973  62.365 104.334  0.00  0.00    +0.000 C 
ATOM      8  C13 UNL     1      75.753  62.596 103.262  0.00  0.00    +0.000 C 
ATOM      9  C14 UNL     1      75.371  62.170 101.871  0.00  0.00    +0.000 C 
ATOM     10  C15 UNL     1      76.529  61.934 100.898  0.00  0.00    +0.000 C 
ATOM     11  C16 UNL     1      75.701  60.746 101.401  0.00  0.00    +0.000 C 
ATOM     12  N2  UNL     1      74.742  60.228 100.414  0.00  0.00    +0.000 N 
ATOM     13  C17 UNL     1      73.605  59.436 100.802  0.00  0.00    +0.000 C 
ATOM     14  O3  UNL     1      73.551  58.930 101.954  0.00  0.00    +0.000 OA
ATOM     15  C18 UNL     1      72.476  59.155  99.841  0.00  0.00    +0.000 C 
ATOM     16  C19 UNL     1      72.931  58.326  98.637  0.00  0.00    +0.000 C 
ATOM     17  C20 UNL     1      72.280  58.958  97.398  0.00  0.00    +0.000 C 
ATOM     18  C21 UNL     1      71.686  60.298  97.852  0.00  0.00    +0.000 C 
ATOM     19  N3  UNL     1      71.906  60.371  99.282  0.00  0.00    +0.000 N 
ATOM     20  C22 UNL     1      71.578  61.546 100.041  0.00  0.00    +0.000 C 
ATOM     21  O4  UNL     1      72.466  62.421 100.201  0.00  0.00    +0.000 OA
ATOM     22  H27 UNL     1      74.806  60.552  99.421  0.00  0.00    +0.000 HD
ENDROOT
BRANCH   1  25
ATOM     23  C5  UNL     1      68.240  60.328  99.746  0.00  0.00    +0.000 C 
ATOM     24  O2  UNL     1      67.933  61.096  98.797  0.00  0.00    +0.000 OA
ATOM     25  N1  UNL     1      69.357  60.637 100.584  0.00  0.00    +0.000 N 
ATOM     26  H10 UNL     1      69.499  60.047 101.434  0.00  0.00    +0.000 HD
BRANCH  23  27
ATOM     27  O1  UNL     1      67.493  59.171 100.010  0.00  0.00    +0.000 OA
BRANCH  27  29
ATOM     28  C1  UNL     1      67.213  57.892  98.009  0.00  0.00    +0.000 C 
ATOM     29  C2  UNL     1      67.720  57.866  99.458  0.00  0.00    +0.000 C 
ATOM     30  C3  UNL     1      69.224  57.538  99.456  0.00  0.00    +0.000 C 
ATOM     31  C4  UNL     1      66.933  56.796 100.240  0.00  0.00    +0.000 C 
ENDBRANCH  27  29
ENDBRANCH  23  27
ENDBRANCH   1  25
BRANCH  11  32
ATOM     32  C32 UNL     1      76.489  59.718 102.204  0.00  0.00    +0.000 C 
ATOM     33  O7  UNL     1      77.685  59.489 101.873  0.00  0.00    +0.000 OA
ATOM     34  N5  UNL     1      75.943  59.033 103.345  0.00  0.00    +0.000 N 
ATOM     35  H41 UNL     1      75.029  59.304 103.765  0.00  0.00    +0.000 HD
BRANCH  34  36
ATOM     36  S1  UNL     1      76.799  57.735 104.109  0.00  0.00    +0.000 S 
ATOM     37  O8  UNL     1      77.235  56.748 103.060  0.00  0.00    +0.000 OA
ATOM     38  O9  UNL     1      78.005  58.281 104.823  0.00  0.00    +0.000 OA
BRANCH  36  39
ATOM     39  C33 UNL     1      75.714  56.965 105.308  0.00  0.00    +0.000 C 
ATOM     40  C34 UNL     1      74.249  56.902 104.910  0.00  0.00    +0.000 C 
ATOM     41  C35 UNL     1      74.716  57.911 105.954  0.00  0.00    +0.000 C 
ENDBRANCH  36  39
ENDBRANCH  34  36
ENDBRANCH  11  32
BRANCH  17  42
ATOM     42  O5  UNL     1      71.280  58.085  96.866  0.00  0.00    +0.000 OA
BRANCH  42  43
ATOM     43  C23 UNL     1      71.327  57.562  95.568  0.00  0.00    +0.000 C 
ATOM     44  O6  UNL     1      72.166  56.667  95.268  0.00  0.00    +0.000 OA
ATOM     45  N4  UNL     1      70.403  58.030  94.580  0.00  0.00    +0.000 N 
ATOM     46  C24 UNL     1      70.407  57.587  93.183  0.00  0.00    +0.000 C 
ATOM     47  C25 UNL     1      69.149  58.163  92.648  0.00  0.00    +0.000 A 
ATOM     48  C26 UNL     1      68.483  58.877  93.620  0.00  0.00    +0.000 A 
ATOM     49  C27 UNL     1      69.235  58.858  94.898  0.00  0.00    +0.000 C 
ATOM     50  C28 UNL     1      67.256  59.493  93.358  0.00  0.00    +0.000 A 
ATOM     51  C29 UNL     1      66.708  59.371  92.072  0.00  0.00    +0.000 A 
ATOM     52  C30 UNL     1      67.389  58.641  91.076  0.00  0.00    +0.000 A 
ATOM     53  C31 UNL     1      68.625  58.035  91.361  0.00  0.00    +0.000 A 
ATOM     54  F1  UNL     1      66.606  60.191  94.324  0.00  0.00    +0.000 F 
ENDBRANCH  42  43
ENDBRANCH  17  42
TORSDOF 8
ENDMDL
MODEL 16
REMARK VINA RESULT:      -7.8      4.104      9.410
REMARK  Name = ./S1183.pdb
REMARK  11 active torsions:
REMARK  status: ('A' for Active; 'I' for Inactive)
REMARK    1  A    between atoms: C1_1  and  C2_2
REMARK    2  A    between atoms: C2_2  and  C3_3
REMARK    3  A    between atoms: C2_2  and  C4_4
REMARK    4  A    between atoms: C2_2  and  O1_5
REMARK    5  A    between atoms: O1_5  and  C5_6
REMARK    6  A    between atoms: N1_8  and  C6_9
REMARK    7  A    between atoms: C16_19  and  C32_43
REMARK    8  A    between atoms: C20_25  and  O5_30
REMARK    9  A    between atoms: O5_30  and  C23_31
REMARK   10  A    between atoms: N5_45  and  S1_46
REMARK   11  A    between atoms: S1_46  and  C33_49
REMARK                            x       y       z     vdW  Elec       q    Type
REMARK                         _______ _______ _______ _____ _____    ______ ____
ROOT
ATOM      1  C6  UNL     1      72.968  65.420 109.302  0.00  0.00    +0.000 C 
ATOM      2  C7  UNL     1      71.423  65.568 109.189  0.00  0.00    +0.000 C 
ATOM      3  C8  UNL     1      70.884  66.115 107.850  0.00  0.00    +0.000 C 
ATOM      4  C9  UNL     1      71.114  65.210 106.631  0.00  0.00    +0.000 C 
ATOM      5  C10 UNL     1      70.250  63.939 106.642  0.00  0.00    +0.000 C 
ATOM      6  C11 UNL     1      70.356  63.198 105.296  0.00  0.00    +0.000 C 
ATOM      7  C12 UNL     1      69.795  61.799 105.353  0.00  0.00    +0.000 C 
ATOM      8  C13 UNL     1      70.453  60.745 105.869  0.00  0.00    +0.000 C 
ATOM      9  C14 UNL     1      71.768  60.878 106.586  0.00  0.00    +0.000 C 
ATOM     10  C15 UNL     1      72.669  59.641 106.576  0.00  0.00    +0.000 C 
ATOM     11  C16 UNL     1      73.071  60.885 105.777  0.00  0.00    +0.000 C 
ATOM     12  N2  UNL     1      74.138  61.678 106.407  0.00  0.00    +0.000 N 
ATOM     13  C17 UNL     1      74.358  63.060 106.069  0.00  0.00    +0.000 C 
ATOM     14  O3  UNL     1      73.836  63.548 105.033  0.00  0.00    +0.000 OA
ATOM     15  C18 UNL     1      75.244  63.944 106.912  0.00  0.00    +0.000 C 
ATOM     16  C19 UNL     1      76.701  63.474 106.912  0.00  0.00    +0.000 C 
ATOM     17  C20 UNL     1      77.194  63.576 108.364  0.00  0.00    +0.000 C 
ATOM     18  C21 UNL     1      75.953  63.833 109.230  0.00  0.00    +0.000 C 
ATOM     19  N3  UNL     1      74.842  63.964 108.310  0.00  0.00    +0.000 N 
ATOM     20  C22 UNL     1      73.488  64.103 108.770  0.00  0.00    +0.000 C 
ATOM     21  O4  UNL     1      72.799  63.062 108.923  0.00  0.00    +0.000 OA
ATOM     22  H27 UNL     1      74.663  61.275 107.217  0.00  0.00    +0.000 HD
ENDROOT
BRANCH   1  25
ATOM     23  C5  UNL     1      74.068  67.708 109.420  0.00  0.00    +0.000 C 
ATOM     24  O2  UNL     1      73.893  67.754 110.665  0.00  0.00    +0.000 OA
ATOM     25  N1  UNL     1      73.653  66.556 108.679  0.00  0.00    +0.000 N 
ATOM     26  H10 UNL     1      73.698  66.611 107.638  0.00  0.00    +0.000 HD
BRANCH  23  27
ATOM     27  O1  UNL     1      74.654  68.781 108.732  0.00  0.00    +0.000 OA
BRANCH  27  29
ATOM     28  C1  UNL     1      74.169  71.096 109.089  0.00  0.00    +0.000 C 
ATOM     29  C2  UNL     1      73.965  69.897 108.151  0.00  0.00    +0.000 C 
ATOM     30  C3  UNL     1      74.558  70.234 106.771  0.00  0.00    +0.000 C 
ATOM     31  C4  UNL     1      72.455  69.609 108.036  0.00  0.00    +0.000 C 
ENDBRANCH  27  29
ENDBRANCH  23  27
ENDBRANCH   1  25
BRANCH  11  32
ATOM     32  C32 UNL     1      73.170  60.668 104.271  0.00  0.00    +0.000 C 
ATOM     33  O7  UNL     1      73.639  59.573 103.854  0.00  0.00    +0.000 OA
ATOM     34  N5  UNL     1      72.714  61.637 103.311  0.00  0.00    +0.000 N 
ATOM     35  H41 UNL     1      72.167  62.477 103.594  0.00  0.00    +0.000 HD
BRANCH  34  36
ATOM     36  S1  UNL     1      73.021  61.438 101.618  0.00  0.00    +0.000 S 
ATOM     37  O8  UNL     1      72.430  60.131 101.161  0.00  0.00    +0.000 OA
ATOM     38  O9  UNL     1      72.390  62.572 100.857  0.00  0.00    +0.000 OA
BRANCH  36  39
ATOM     39  C33 UNL     1      74.792  61.474 101.351  0.00  0.00    +0.000 C 
ATOM     40  C34 UNL     1      75.263  62.411 100.252  0.00  0.00    +0.000 C 
ATOM     41  C35 UNL     1      75.239  60.906 100.015  0.00  0.00    +0.000 C 
ENDBRANCH  36  39
ENDBRANCH  34  36
ENDBRANCH  11  32
BRANCH  17  42
ATOM     42  O5  UNL     1      78.156  64.627 108.486  0.00  0.00    +0.000 OA
BRANCH  42  43
ATOM     43  C23 UNL     1      78.799  65.213 107.389  0.00  0.00    +0.000 C 
ATOM     44  O6  UNL     1      78.550  66.408 107.064  0.00  0.00    +0.000 OA
ATOM     45  N4  UNL     1      79.761  64.459 106.643  0.00  0.00    +0.000 N 
ATOM     46  C24 UNL     1      80.445  64.962 105.449  0.00  0.00    +0.000 C 
ATOM     47  C25 UNL     1      81.480  63.929 105.199  0.00  0.00    +0.000 A 
ATOM     48  C26 UNL     1      81.404  62.922 106.136  0.00  0.00    +0.000 A 
ATOM     49  C27 UNL     1      80.306  63.177 107.099  0.00  0.00    +0.000 C 
ATOM     50  C28 UNL     1      82.297  61.846 106.119  0.00  0.00    +0.000 A 
ATOM     51  C29 UNL     1      83.282  61.809 105.120  0.00  0.00    +0.000 A 
ATOM     52  C30 UNL     1      83.358  62.839 104.160  0.00  0.00    +0.000 A 
ATOM     53  C31 UNL     1      82.446  63.908 104.192  0.00  0.00    +0.000 A 
ATOM     54  F1  UNL     1      82.218  60.861 107.050  0.00  0.00    +0.000 F 
ENDBRANCH  42  43
ENDBRANCH  17  42
TORSDOF 8
ENDMDL
MODEL 17
REMARK VINA RESULT:      -7.8      6.282     11.789
REMARK  Name = ./S1183.pdb
REMARK  11 active torsions:
REMARK  status: ('A' for Active; 'I' for Inactive)
REMARK    1  A    between atoms: C1_1  and  C2_2
REMARK    2  A    between atoms: C2_2  and  C3_3
REMARK    3  A    between atoms: C2_2  and  C4_4
REMARK    4  A    between atoms: C2_2  and  O1_5
REMARK    5  A    between atoms: O1_5  and  C5_6
REMARK    6  A    between atoms: N1_8  and  C6_9
REMARK    7  A    between atoms: C16_19  and  C32_43
REMARK    8  A    between atoms: C20_25  and  O5_30
REMARK    9  A    between atoms: O5_30  and  C23_31
REMARK   10  A    between atoms: N5_45  and  S1_46
REMARK   11  A    between atoms: S1_46  and  C33_49
REMARK                            x       y       z     vdW  Elec       q    Type
REMARK                         _______ _______ _______ _____ _____    ______ ____
ROOT
ATOM      1  C6  UNL     1      73.002  64.680 111.289  0.00  0.00    +0.000 C 
ATOM      2  C7  UNL     1      71.923  65.578 110.618  0.00  0.00    +0.000 C 
ATOM      3  C8  UNL     1      72.426  66.895 109.987  0.00  0.00    +0.000 C 
ATOM      4  C9  UNL     1      73.362  66.728 108.782  0.00  0.00    +0.000 C 
ATOM      5  C10 UNL     1      72.652  66.210 107.521  0.00  0.00    +0.000 C 
ATOM      6  C11 UNL     1      73.587  66.285 106.301  0.00  0.00    +0.000 C 
ATOM      7  C12 UNL     1      73.068  65.506 105.117  0.00  0.00    +0.000 C 
ATOM      8  C13 UNL     1      73.175  64.171 104.990  0.00  0.00    +0.000 C 
ATOM      9  C14 UNL     1      73.695  63.287 106.091  0.00  0.00    +0.000 C 
ATOM     10  C15 UNL     1      74.324  61.963 105.651  0.00  0.00    +0.000 C 
ATOM     11  C16 UNL     1      75.208  63.071 106.234  0.00  0.00    +0.000 C 
ATOM     12  N2  UNL     1      75.626  62.829 107.623  0.00  0.00    +0.000 N 
ATOM     13  C17 UNL     1      76.075  63.897 108.479  0.00  0.00    +0.000 C 
ATOM     14  O3  UNL     1      76.387  65.012 107.986  0.00  0.00    +0.000 OA
ATOM     15  C18 UNL     1      76.222  63.702 109.968  0.00  0.00    +0.000 C 
ATOM     16  C19 UNL     1      77.295  62.667 110.315  0.00  0.00    +0.000 C 
ATOM     17  C20 UNL     1      76.711  61.790 111.433  0.00  0.00    +0.000 C 
ATOM     18  C21 UNL     1      75.221  62.140 111.531  0.00  0.00    +0.000 C 
ATOM     19  N3  UNL     1      74.999  63.218 110.590  0.00  0.00    +0.000 N 
ATOM     20  C22 UNL     1      73.686  63.737 110.324  0.00  0.00    +0.000 C 
ATOM     21  O4  UNL     1      73.023  63.232 109.383  0.00  0.00    +0.000 OA
ATOM     22  H27 UNL     1      75.469  61.886 108.047  0.00  0.00    +0.000 HD
ENDROOT
BRANCH   1  25
ATOM     23  C5  UNL     1      74.323  65.225 113.391  0.00  0.00    +0.000 C 
ATOM     24  O2  UNL     1      73.823  64.237 113.989  0.00  0.00    +0.000 OA
ATOM     25  N1  UNL     1      73.976  65.488 112.028  0.00  0.00    +0.000 N 
ATOM     26  H10 UNL     1      74.310  66.385 111.611  0.00  0.00    +0.000 HD
BRANCH  23  27
ATOM     27  O1  UNL     1      75.212  66.091 114.044  0.00  0.00    +0.000 OA
BRANCH  27  29
ATOM     28  C1  UNL     1      75.836  68.114 115.157  0.00  0.00    +0.000 C 
ATOM     29  C2  UNL     1      74.932  66.875 115.213  0.00  0.00    +0.000 C 
ATOM     30  C3  UNL     1      73.461  67.328 115.216  0.00  0.00    +0.000 C 
ATOM     31  C4  UNL     1      75.257  66.082 116.495  0.00  0.00    +0.000 C 
ENDBRANCH  27  29
ENDBRANCH  23  27
ENDBRANCH   1  25
BRANCH  11  32
ATOM     32  C32 UNL     1      76.265  63.610 105.278  0.00  0.00    +0.000 C 
ATOM     33  O7  UNL     1      76.844  62.796 104.506  0.00  0.00    +0.000 OA
ATOM     34  N5  UNL     1      76.598  65.006 105.189  0.00  0.00    +0.000 N 
ATOM     35  H41 UNL     1      76.038  65.738 105.673  0.00  0.00    +0.000 HD
BRANCH  34  36
ATOM     36  S1  UNL     1      77.937  65.551 104.233  0.00  0.00    +0.000 S 
ATOM     37  O8  UNL     1      77.770  65.053 102.823  0.00  0.00    +0.000 OA
ATOM     38  O9  UNL     1      77.977  67.055 104.237  0.00  0.00    +0.000 OA
BRANCH  36  39
ATOM     39  C33 UNL     1      79.449  64.929 104.963  0.00  0.00    +0.000 C 
ATOM     40  C34 UNL     1      80.405  65.991 105.479  0.00  0.00    +0.000 C 
ATOM     41  C35 UNL     1      80.709  65.256 104.178  0.00  0.00    +0.000 C 
ENDBRANCH  36  39
ENDBRANCH  34  36
ENDBRANCH  11  32
BRANCH  17  42
ATOM     42  O5  UNL     1      77.399  62.035 112.663  0.00  0.00    +0.000 OA
BRANCH  42  43
ATOM     43  C23 UNL     1      78.207  61.083 113.296  0.00  0.00    +0.000 C 
ATOM     44  O6  UNL     1      78.678  60.108 112.645  0.00  0.00    +0.000 OA
ATOM     45  N4  UNL     1      78.517  61.227 114.686  0.00  0.00    +0.000 N 
ATOM     46  C24 UNL     1      79.306  60.258 115.451  0.00  0.00    +0.000 C 
ATOM     47  C25 UNL     1      79.540  60.961 116.737  0.00  0.00    +0.000 A 
ATOM     48  C26 UNL     1      78.943  62.202 116.733  0.00  0.00    +0.000 A 
ATOM     49  C27 UNL     1      78.244  62.449 115.449  0.00  0.00    +0.000 C 
ATOM     50  C28 UNL     1      79.049  63.062 117.830  0.00  0.00    +0.000 A 
ATOM     51  C29 UNL     1      79.780  62.633 118.949  0.00  0.00    +0.000 A 
ATOM     52  C30 UNL     1      80.390  61.362 118.953  0.00  0.00    +0.000 A 
ATOM     53  C31 UNL     1      80.266  60.511 117.841  0.00  0.00    +0.000 A 
ATOM     54  F1  UNL     1      78.461  64.285 117.815  0.00  0.00    +0.000 F 
ENDBRANCH  42  43
ENDBRANCH  17  42
TORSDOF 8
ENDMDL
MODEL 18
REMARK VINA RESULT:      -7.8      5.884      8.373
REMARK  Name = ./S1183.pdb
REMARK  11 active torsions:
REMARK  status: ('A' for Active; 'I' for Inactive)
REMARK    1  A    between atoms: C1_1  and  C2_2
REMARK    2  A    between atoms: C2_2  and  C3_3
REMARK    3  A    between atoms: C2_2  and  C4_4
REMARK    4  A    between atoms: C2_2  and  O1_5
REMARK    5  A    between atoms: O1_5  and  C5_6
REMARK    6  A    between atoms: N1_8  and  C6_9
REMARK    7  A    between atoms: C16_19  and  C32_43
REMARK    8  A    between atoms: C20_25  and  O5_30
REMARK    9  A    between atoms: O5_30  and  C23_31
REMARK   10  A    between atoms: N5_45  and  S1_46
REMARK   11  A    between atoms: S1_46  and  C33_49
REMARK                            x       y       z     vdW  Elec       q    Type
REMARK                         _______ _______ _______ _____ _____    ______ ____
ROOT
ATOM      1  C6  UNL     1      76.217  62.817 110.043  0.00  0.00    +0.000 C 
ATOM      2  C7  UNL     1      77.329  61.938 110.683  0.00  0.00    +0.000 C 
ATOM      3  C8  UNL     1      78.222  62.626 111.738  0.00  0.00    +0.000 C 
ATOM      4  C9  UNL     1      77.504  63.056 113.026  0.00  0.00    +0.000 C 
ATOM      5  C10 UNL     1      77.087  61.875 113.918  0.00  0.00    +0.000 C 
ATOM      6  C11 UNL     1      76.587  62.377 115.284  0.00  0.00    +0.000 C 
ATOM      7  C12 UNL     1      75.874  61.308 116.074  0.00  0.00    +0.000 C 
ATOM      8  C13 UNL     1      74.599  60.936 115.858  0.00  0.00    +0.000 C 
ATOM      9  C14 UNL     1      73.789  61.445 114.697  0.00  0.00    +0.000 C 
ATOM     10  C15 UNL     1      72.270  61.454 114.889  0.00  0.00    +0.000 C 
ATOM     11  C16 UNL     1      73.039  62.778 114.829  0.00  0.00    +0.000 C 
ATOM     12  N2  UNL     1      72.899  63.490 113.549  0.00  0.00    +0.000 N 
ATOM     13  C17 UNL     1      73.844  64.491 113.129  0.00  0.00    +0.000 C 
ATOM     14  O3  UNL     1      74.652  64.985 113.959  0.00  0.00    +0.000 OA
ATOM     15  C18 UNL     1      73.869  65.004 111.710  0.00  0.00    +0.000 C 
ATOM     16  C19 UNL     1      72.578  65.737 111.335  0.00  0.00    +0.000 C 
ATOM     17  C20 UNL     1      72.199  65.263 109.924  0.00  0.00    +0.000 C 
ATOM     18  C21 UNL     1      73.104  64.065 109.607  0.00  0.00    +0.000 C 
ATOM     19  N3  UNL     1      74.005  63.933 110.734  0.00  0.00    +0.000 N 
ATOM     20  C22 UNL     1      74.932  62.841 110.841  0.00  0.00    +0.000 C 
ATOM     21  O4  UNL     1      74.565  61.803 111.447  0.00  0.00    +0.000 OA
ATOM     22  H27 UNL     1      72.176  63.170 112.863  0.00  0.00    +0.000 HD
ENDROOT
BRANCH   1  25
ATOM     23  C5  UNL     1      77.034  64.630 108.459  0.00  0.00    +0.000 C 
ATOM     24  O2  UNL     1      76.862  63.874 107.468  0.00  0.00    +0.000 OA
ATOM     25  N1  UNL     1      76.705  64.173 109.775  0.00  0.00    +0.000 N 
ATOM     26  H10 UNL     1      76.982  64.779 110.578  0.00  0.00    +0.000 HD
BRANCH  23  27
ATOM     27  O1  UNL     1      77.562  65.919 108.302  0.00  0.00    +0.000 OA
BRANCH  27  29
ATOM     28  C1  UNL     1      77.834  68.260 107.891  0.00  0.00    +0.000 C 
ATOM     29  C2  UNL     1      76.821  67.112 108.004  0.00  0.00    +0.000 C 
ATOM     30  C3  UNL     1      76.081  66.963 106.663  0.00  0.00    +0.000 C 
ATOM     31  C4  UNL     1      75.828  67.436 109.138  0.00  0.00    +0.000 C 
ENDBRANCH  27  29
ENDBRANCH  23  27
ENDBRANCH   1  25
BRANCH  11  32
ATOM     32  C32 UNL     1      72.957  63.618 116.098  0.00  0.00    +0.000 C 
ATOM     33  O7  UNL     1      71.918  63.528 116.809  0.00  0.00    +0.000 OA
ATOM     34  N5  UNL     1      74.028  64.471 116.539  0.00  0.00    +0.000 N 
ATOM     35  H41 UNL     1      74.967  64.454 116.090  0.00  0.00    +0.000 HD
BRANCH  34  36
ATOM     36  S1  UNL     1      73.822  65.553 117.877  0.00  0.00    +0.000 S 
ATOM     37  O8  UNL     1      72.400  66.044 117.898  0.00  0.00    +0.000 OA
ATOM     38  O9  UNL     1      74.126  64.829 119.160  0.00  0.00    +0.000 OA
BRANCH  36  39
ATOM     39  C33 UNL     1      74.972  66.913 117.692  0.00  0.00    +0.000 C 
ATOM     40  C34 UNL     1      74.452  68.098 116.896  0.00  0.00    +0.000 C 
ATOM     41  C35 UNL     1      75.457  67.139 116.269  0.00  0.00    +0.000 C 
ENDBRANCH  36  39
ENDBRANCH  34  36
ENDBRANCH  11  32
BRANCH  17  42
ATOM     42  O5  UNL     1      72.372  66.325 108.983  0.00  0.00    +0.000 OA
BRANCH  42  43
ATOM     43  C23 UNL     1      71.356  67.230 108.649  0.00  0.00    +0.000 C 
ATOM     44  O6  UNL     1      70.450  67.512 109.483  0.00  0.00    +0.000 OA
ATOM     45  N4  UNL     1      71.357  67.854 107.361  0.00  0.00    +0.000 N 
ATOM     46  C24 UNL     1      70.311  68.770 106.896  0.00  0.00    +0.000 C 
ATOM     47  C25 UNL     1      70.879  69.311 105.637  0.00  0.00    +0.000 A 
ATOM     48  C26 UNL     1      72.117  68.764 105.381  0.00  0.00    +0.000 A 
ATOM     49  C27 UNL     1      72.496  67.796 106.439  0.00  0.00    +0.000 C 
ATOM     50  C28 UNL     1      72.861  69.141 104.259  0.00  0.00    +0.000 A 
ATOM     51  C29 UNL     1      72.317  70.096 103.386  0.00  0.00    +0.000 A 
ATOM     52  C30 UNL     1      71.049  70.655 103.647  0.00  0.00    +0.000 A 
ATOM     53  C31 UNL     1      70.316  70.257 104.778  0.00  0.00    +0.000 A 
ATOM     54  F1  UNL     1      74.082  68.600 104.019  0.00  0.00    +0.000 F 
ENDBRANCH  42  43
ENDBRANCH  17  42
TORSDOF 8
ENDMDL
MODEL 19
REMARK VINA RESULT:      -7.7      3.414      9.053
REMARK  Name = ./S1183.pdb
REMARK  11 active torsions:
REMARK  status: ('A' for Active; 'I' for Inactive)
REMARK    1  A    between atoms: C1_1  and  C2_2
REMARK    2  A    between atoms: C2_2  and  C3_3
REMARK    3  A    between atoms: C2_2  and  C4_4
REMARK    4  A    between atoms: C2_2  and  O1_5
REMARK    5  A    between atoms: O1_5  and  C5_6
REMARK    6  A    between atoms: N1_8  and  C6_9
REMARK    7  A    between atoms: C16_19  and  C32_43
REMARK    8  A    between atoms: C20_25  and  O5_30
REMARK    9  A    between atoms: O5_30  and  C23_31
REMARK   10  A    between atoms: N5_45  and  S1_46
REMARK   11  A    between atoms: S1_46  and  C33_49
REMARK                            x       y       z     vdW  Elec       q    Type
REMARK                         _______ _______ _______ _____ _____    ______ ____
ROOT
ATOM      1  C6  UNL     1      74.799  61.946 107.552  0.00  0.00    +0.000 C 
ATOM      2  C7  UNL     1      74.647  60.469 108.016  0.00  0.00    +0.000 C 
ATOM      3  C8  UNL     1      73.304  59.783 107.684  0.00  0.00    +0.000 C 
ATOM      4  C9  UNL     1      73.023  59.580 106.188  0.00  0.00    +0.000 C 
ATOM      5  C10 UNL     1      73.913  58.509 105.538  0.00  0.00    +0.000 C 
ATOM      6  C11 UNL     1      73.429  58.193 104.111  0.00  0.00    +0.000 C 
ATOM      7  C12 UNL     1      74.434  57.398 103.315  0.00  0.00    +0.000 C 
ATOM      8  C13 UNL     1      75.516  57.933 102.720  0.00  0.00    +0.000 C 
ATOM      9  C14 UNL     1      75.924  59.368 102.913  0.00  0.00    +0.000 C 
ATOM     10  C15 UNL     1      76.740  59.993 101.779  0.00  0.00    +0.000 C 
ATOM     11  C16 UNL     1      75.300  60.455 102.027  0.00  0.00    +0.000 C 
ATOM     12  N2  UNL     1      75.201  61.759 102.699  0.00  0.00    +0.000 N 
ATOM     13  C17 UNL     1      74.008  62.167 103.395  0.00  0.00    +0.000 C 
ATOM     14  O3  UNL     1      72.928  61.547 103.214  0.00  0.00    +0.000 OA
ATOM     15  C18 UNL     1      74.006  63.359 104.320  0.00  0.00    +0.000 C 
ATOM     16  C19 UNL     1      74.297  64.668 103.581  0.00  0.00    +0.000 C 
ATOM     17  C20 UNL     1      75.281  65.457 104.457  0.00  0.00    +0.000 C 
ATOM     18  C21 UNL     1      75.765  64.493 105.549  0.00  0.00    +0.000 C 
ATOM     19  N3  UNL     1      75.025  63.263 105.355  0.00  0.00    +0.000 N 
ATOM     20  C22 UNL     1      75.295  62.084 106.130  0.00  0.00    +0.000 C 
ATOM     21  O4  UNL     1      76.128  61.255 105.686  0.00  0.00    +0.000 OA
ATOM     22  H27 UNL     1      76.058  62.352 102.793  0.00  0.00    +0.000 HD
ENDROOT
BRANCH   1  25
ATOM     23  C5  UNL     1      73.196  63.259 109.025  0.00  0.00    +0.000 C 
ATOM     24  O2  UNL     1      73.982  63.165 110.004  0.00  0.00    +0.000 OA
ATOM     25  N1  UNL     1      73.556  62.695 107.761  0.00  0.00    +0.000 N 
ATOM     26  H10 UNL     1      72.826  62.681 107.014  0.00  0.00    +0.000 HD
BRANCH  23  27
ATOM     27  O1  UNL     1      71.955  63.899 109.153  0.00  0.00    +0.000 OA
BRANCH  27  29
ATOM     28  C1  UNL     1      72.973  65.955 108.477  0.00  0.00    +0.000 C 
ATOM     29  C2  UNL     1      71.642  65.238 108.745  0.00  0.00    +0.000 C 
ATOM     30  C3  UNL     1      70.810  65.224 107.450  0.00  0.00    +0.000 C 
ATOM     31  C4  UNL     1      70.891  65.990 109.862  0.00  0.00    +0.000 C 
ENDBRANCH  27  29
ENDBRANCH  23  27
ENDBRANCH   1  25
BRANCH  11  32
ATOM     32  C32 UNL     1      74.343  60.200 100.868  0.00  0.00    +0.000 C 
ATOM     33  O7  UNL     1      74.778  60.337  99.692  0.00  0.00    +0.000 OA
ATOM     34  N5  UNL     1      72.984  59.771 101.059  0.00  0.00    +0.000 N 
ATOM     35  H41 UNL     1      72.624  59.479 101.992  0.00  0.00    +0.000 HD
BRANCH  34  36
ATOM     36  S1  UNL     1      71.875  59.681  99.731  0.00  0.00    +0.000 S 
ATOM     37  O8  UNL     1      72.449  58.780  98.671  0.00  0.00    +0.000 OA
ATOM     38  O9  UNL     1      70.562  59.126 100.210  0.00  0.00    +0.000 OA
BRANCH  36  39
ATOM     39  C33 UNL     1      71.609  61.335  99.098  0.00  0.00    +0.000 C 
ATOM     40  C34 UNL     1      70.617  61.439  97.951  0.00  0.00    +0.000 C 
ATOM     41  C35 UNL     1      72.113  61.556  97.681  0.00  0.00    +0.000 C 
ENDBRANCH  36  39
ENDBRANCH  34  36
ENDBRANCH  11  32
BRANCH  17  42
ATOM     42  O5  UNL     1      74.636  66.607 105.011  0.00  0.00    +0.000 OA
BRANCH  42  43
ATOM     43  C23 UNL     1      74.197  67.689 104.238  0.00  0.00    +0.000 C 
ATOM     44  O6  UNL     1      74.735  67.940 103.123  0.00  0.00    +0.000 OA
ATOM     45  N4  UNL     1      73.116  68.503 104.706  0.00  0.00    +0.000 N 
ATOM     46  C24 UNL     1      72.621  69.688 103.999  0.00  0.00    +0.000 C 
ATOM     47  C25 UNL     1      71.382  70.025 104.743  0.00  0.00    +0.000 A 
ATOM     48  C26 UNL     1      71.178  69.143 105.781  0.00  0.00    +0.000 A 
ATOM     49  C27 UNL     1      72.264  68.135 105.841  0.00  0.00    +0.000 C 
ATOM     50  C28 UNL     1      70.058  69.245 106.611  0.00  0.00    +0.000 A 
ATOM     51  C29 UNL     1      69.135  70.274 106.366  0.00  0.00    +0.000 A 
ATOM     52  C30 UNL     1      69.344  71.177 105.304  0.00  0.00    +0.000 A 
ATOM     53  C31 UNL     1      70.481  71.059 104.486  0.00  0.00    +0.000 A 
ATOM     54  F1  UNL     1      69.863  68.369 107.629  0.00  0.00    +0.000 F 
ENDBRANCH  42  43
ENDBRANCH  17  42
TORSDOF 8
ENDMDL
MODEL 20
REMARK VINA RESULT:      -7.7      4.403     10.874
REMARK  Name = ./S1183.pdb
REMARK  11 active torsions:
REMARK  status: ('A' for Active; 'I' for Inactive)
REMARK    1  A    between atoms: C1_1  and  C2_2
REMARK    2  A    between atoms: C2_2  and  C3_3
REMARK    3  A    between atoms: C2_2  and  C4_4
REMARK    4  A    between atoms: C2_2  and  O1_5
REMARK    5  A    between atoms: O1_5  and  C5_6
REMARK    6  A    between atoms: N1_8  and  C6_9
REMARK    7  A    between atoms: C16_19  and  C32_43
REMARK    8  A    between atoms: C20_25  and  O5_30
REMARK    9  A    between atoms: O5_30  and  C23_31
REMARK   10  A    between atoms: N5_45  and  S1_46
REMARK   11  A    between atoms: S1_46  and  C33_49
REMARK                            x       y       z     vdW  Elec       q    Type
REMARK                         _______ _______ _______ _____ _____    ______ ____
ROOT
ATOM      1  C6  UNL     1      72.074  64.623 108.530  0.00  0.00    +0.000 C 
ATOM      2  C7  UNL     1      71.053  64.744 107.363  0.00  0.00    +0.000 C 
ATOM      3  C8  UNL     1      71.586  65.357 106.049  0.00  0.00    +0.000 C 
ATOM      4  C9  UNL     1      72.658  64.528 105.327  0.00  0.00    +0.000 C 
ATOM      5  C10 UNL     1      72.111  63.240 104.691  0.00  0.00    +0.000 C 
ATOM      6  C11 UNL     1      73.177  62.581 103.796  0.00  0.00    +0.000 C 
ATOM      7  C12 UNL     1      72.819  61.169 103.403  0.00  0.00    +0.000 C 
ATOM      8  C13 UNL     1      72.979  60.102 104.206  0.00  0.00    +0.000 C 
ATOM      9  C14 UNL     1      73.395  60.221 105.647  0.00  0.00    +0.000 C 
ATOM     10  C15 UNL     1      74.109  59.007 106.244  0.00  0.00    +0.000 C 
ATOM     11  C16 UNL     1      74.888  60.303 105.996  0.00  0.00    +0.000 C 
ATOM     12  N2  UNL     1      75.152  61.081 107.216  0.00  0.00    +0.000 N 
ATOM     13  C17 UNL     1      75.469  62.485 107.168  0.00  0.00    +0.000 C 
ATOM     14  O3  UNL     1      75.803  63.021 106.080  0.00  0.00    +0.000 OA
ATOM     15  C18 UNL     1      75.451  63.338 108.413  0.00  0.00    +0.000 C 
ATOM     16  C19 UNL     1      76.507  62.901 109.432  0.00  0.00    +0.000 C 
ATOM     17  C20 UNL     1      75.826  62.929 110.808  0.00  0.00    +0.000 C 
ATOM     18  C21 UNL     1      74.324  63.109 110.549  0.00  0.00    +0.000 C 
ATOM     19  N3  UNL     1      74.180  63.269 109.117  0.00  0.00    +0.000 N 
ATOM     20  C22 UNL     1      72.890  63.351 108.488  0.00  0.00    +0.000 C 
ATOM     21  O4  UNL     1      72.354  62.289 108.083  0.00  0.00    +0.000 OA
ATOM     22  H27 UNL     1      74.975  60.643 108.150  0.00  0.00    +0.000 HD
ENDROOT
BRANCH   1  25
ATOM     23  C5  UNL     1      72.531  67.015 109.260  0.00  0.00    +0.000 C 
ATOM     24  O2  UNL     1      71.419  67.073 109.847  0.00  0.00    +0.000 OA
ATOM     25  N1  UNL     1      72.933  65.809 108.604  0.00  0.00    +0.000 N 
ATOM     26  H10 UNL     1      73.800  65.842 108.023  0.00  0.00    +0.000 HD
BRANCH  23  27
ATOM     27  O1  UNL     1      73.388  68.125 109.222  0.00  0.00    +0.000 OA
BRANCH  27  29
ATOM     28  C1  UNL     1      73.938  70.370 108.607  0.00  0.00    +0.000 C 
ATOM     29  C2  UNL     1      73.656  68.955 108.082  0.00  0.00    +0.000 C 
ATOM     30  C3  UNL     1      74.896  68.444 107.327  0.00  0.00    +0.000 C 
ATOM     31  C4  UNL     1      72.433  69.008 107.145  0.00  0.00    +0.000 C 
ENDBRANCH  27  29
ENDBRANCH  23  27
ENDBRANCH   1  25
BRANCH  11  32
ATOM     32  C32 UNL     1      76.031  60.176 104.996  0.00  0.00    +0.000 C 
ATOM     33  O7  UNL     1      76.699  59.105 104.985  0.00  0.00    +0.000 OA
ATOM     34  N5  UNL     1      76.352  61.204 104.043  0.00  0.00    +0.000 N 
ATOM     35  H41 UNL     1      75.734  62.028 103.893  0.00  0.00    +0.000 HD
BRANCH  34  36
ATOM     36  S1  UNL     1      77.775  61.104 103.059  0.00  0.00    +0.000 S 
ATOM     37  O8  UNL     1      78.071  62.462 102.483  0.00  0.00    +0.000 OA
ATOM     38  O9  UNL     1      78.935  60.646 103.899  0.00  0.00    +0.000 OA
BRANCH  36  39
ATOM     39  C33 UNL     1      77.488  59.901 101.762  0.00  0.00    +0.000 C 
ATOM     40  C34 UNL     1      77.060  60.480 100.424  0.00  0.00    +0.000 C 
ATOM     41  C35 UNL     1      76.039  59.787 101.319  0.00  0.00    +0.000 C 
ENDBRANCH  36  39
ENDBRANCH  34  36
ENDBRANCH  11  32
BRANCH  17  42
ATOM     42  O5  UNL     1      76.361  63.991 111.602  0.00  0.00    +0.000 OA
BRANCH  42  43
ATOM     43  C23 UNL     1      75.715  65.222 111.776  0.00  0.00    +0.000 C 
ATOM     44  O6  UNL     1      75.510  65.983 110.789  0.00  0.00    +0.000 OA
ATOM     45  N4  UNL     1      75.265  65.609 113.079  0.00  0.00    +0.000 N 
ATOM     46  C24 UNL     1      74.630  66.897 113.374  0.00  0.00    +0.000 C 
ATOM     47  C25 UNL     1      74.150  66.719 114.766  0.00  0.00    +0.000 A 
ATOM     48  C26 UNL     1      74.477  65.469 115.242  0.00  0.00    +0.000 A 
ATOM     49  C27 UNL     1      75.217  64.690 114.220  0.00  0.00    +0.000 C 
ATOM     50  C28 UNL     1      74.105  65.061 116.527  0.00  0.00    +0.000 A 
ATOM     51  C29 UNL     1      73.386  65.957 117.332  0.00  0.00    +0.000 A 
ATOM     52  C30 UNL     1      73.052  67.238 116.845  0.00  0.00    +0.000 A 
ATOM     53  C31 UNL     1      73.441  67.629 115.552  0.00  0.00    +0.000 A 
ATOM     54  F1  UNL     1      74.429  63.825 116.985  0.00  0.00    +0.000 F 
ENDBRANCH  42  43
ENDBRANCH  17  42
TORSDOF 8
ENDMDL
