MODEL 1
REMARK VINA RESULT:      -7.7      0.000      0.000
REMARK  Name = ./S1190.pdb
REMARK  9 active torsions:
REMARK  status: ('A' for Active; 'I' for Inactive)
REMARK    1  A    between atoms: C1_1  and  C2_2
REMARK    2  A    between atoms: C2_2  and  O1_3
REMARK    3  A    between atoms: C2_2  and  C3_4
REMARK    4  A    between atoms: C2_2  and  C10_15
REMARK    5  A    between atoms: C3_4  and  S1_5
REMARK    6  A    between atoms: S1_5  and  C4_8
REMARK    7  A    between atoms: N1_17  and  C11_18
REMARK    8  A    between atoms: C14_21  and  C15_22
REMARK    9  A    between atoms: C16_24  and  C18_26
REMARK                            x       y       z     vdW  Elec       q    Type
REMARK                         _______ _______ _______ _____ _____    ______ ____
ROOT
ATOM      1  C10 UNL     1      64.434  58.939 109.328  0.00  0.00    +0.000 C 
ATOM      2  O4  UNL     1      64.381  57.752 109.752  0.00  0.00    +0.000 OA
ATOM      3  N1  UNL     1      63.848  60.001 110.102  0.00  0.00    +0.000 N 
ATOM      4  H11 UNL     1      63.500  60.844 109.592  0.00  0.00    +0.000 HD
ENDROOT
BRANCH   3   5
ATOM      5  C11 UNL     1      63.647  59.953 111.526  0.00  0.00    +0.000 A 
ATOM      6  C12 UNL     1      62.363  59.854 112.084  0.00  0.00    +0.000 A 
ATOM      7  C13 UNL     1      62.198  59.769 113.467  0.00  0.00    +0.000 A 
ATOM      8  C14 UNL     1      63.311  59.770 114.317  0.00  0.00    +0.000 A 
ATOM      9  C16 UNL     1      64.615  59.849 113.774  0.00  0.00    +0.000 A 
ATOM     10  C17 UNL     1      64.764  59.934 112.375  0.00  0.00    +0.000 A 
BRANCH   9  11
ATOM     11  C18 UNL     1      65.835  59.838 114.675  0.00  0.00    +0.000 C 
ATOM     12  F2  UNL     1      66.982  59.839 113.902  0.00  0.00    +0.000 F 
ATOM     13  F3  UNL     1      65.863  58.720 115.492  0.00  0.00    +0.000 F 
ATOM     14  F4  UNL     1      65.827  60.964 115.479  0.00  0.00    +0.000 F 
ENDBRANCH   9  11
BRANCH   8  15
ATOM     15  C15 UNL     1      63.088  59.676 115.740  0.00  0.00    +0.000 C 
ATOM     16  N2  UNL     1      62.910  59.600 116.882  0.00  0.00    +0.000 NA
ENDBRANCH   8  15
ENDBRANCH   3   5
BRANCH   1  18
ATOM     17  C1  UNL     1      66.493  58.766 107.971  0.00  0.00    +0.000 C 
ATOM     18  C2  UNL     1      65.025  59.216 107.954  0.00  0.00    +0.000 C 
BRANCH  18  19
ATOM     19  O1  UNL     1      65.017  60.598 107.674  0.00  0.00    +0.000 OA
ATOM     20  H4  UNL     1      65.910  60.969 107.897  0.00  0.00    +0.000 HD
ENDBRANCH  18  19
BRANCH  18  21
ATOM     21  C3  UNL     1      64.278  58.447 106.830  0.00  0.00    +0.000 C 
BRANCH  21  22
ATOM     22  S1  UNL     1      62.602  59.014 106.507  0.00  0.00    +0.000 S 
ATOM     23  O2  UNL     1      62.382  60.333 107.194  0.00  0.00    +0.000 OA
ATOM     24  O3  UNL     1      61.569  58.043 107.005  0.00  0.00    +0.000 OA
BRANCH  22  25
ATOM     25  C4  UNL     1      62.402  59.208 104.769  0.00  0.00    +0.000 A 
ATOM     26  C5  UNL     1      63.095  60.214 104.080  0.00  0.00    +0.000 A 
ATOM     27  C6  UNL     1      62.945  60.348 102.696  0.00  0.00    +0.000 A 
ATOM     28  C7  UNL     1      62.107  59.475 101.995  0.00  0.00    +0.000 A 
ATOM     29  F1  UNL     1      61.964  59.605 100.653  0.00  0.00    +0.000 F 
ATOM     30  C8  UNL     1      61.421  58.466 102.677  0.00  0.00    +0.000 A 
ATOM     31  C9  UNL     1      61.569  58.330 104.060  0.00  0.00    +0.000 A 
ENDBRANCH  22  25
ENDBRANCH  21  22
ENDBRANCH  18  21
ENDBRANCH   1  18
TORSDOF 8
ENDMDL
MODEL 2
REMARK VINA RESULT:      -7.5      1.400      1.851
REMARK  Name = ./S1190.pdb
REMARK  9 active torsions:
REMARK  status: ('A' for Active; 'I' for Inactive)
REMARK    1  A    between atoms: C1_1  and  C2_2
REMARK    2  A    between atoms: C2_2  and  O1_3
REMARK    3  A    between atoms: C2_2  and  C3_4
REMARK    4  A    between atoms: C2_2  and  C10_15
REMARK    5  A    between atoms: C3_4  and  S1_5
REMARK    6  A    between atoms: S1_5  and  C4_8
REMARK    7  A    between atoms: N1_17  and  C11_18
REMARK    8  A    between atoms: C14_21  and  C15_22
REMARK    9  A    between atoms: C16_24  and  C18_26
REMARK                            x       y       z     vdW  Elec       q    Type
REMARK                         _______ _______ _______ _____ _____    ______ ____
ROOT
ATOM      1  C10 UNL     1      63.709  58.541 108.901  0.00  0.00    +0.000 C 
ATOM      2  O4  UNL     1      63.738  57.308 109.167  0.00  0.00    +0.000 OA
ATOM      3  N1  UNL     1      62.820  59.408 109.628  0.00  0.00    +0.000 N 
ATOM      4  H11 UNL     1      62.473  60.268 109.146  0.00  0.00    +0.000 HD
ENDROOT
BRANCH   3   5
ATOM      5  C11 UNL     1      62.322  59.136 110.950  0.00  0.00    +0.000 A 
ATOM      6  C12 UNL     1      61.106  58.464 111.153  0.00  0.00    +0.000 A 
ATOM      7  C13 UNL     1      60.665  58.178 112.446  0.00  0.00    +0.000 A 
ATOM      8  C14 UNL     1      61.432  58.548 113.557  0.00  0.00    +0.000 A 
ATOM      9  C16 UNL     1      62.669  59.209 113.373  0.00  0.00    +0.000 A 
ATOM     10  C17 UNL     1      63.101  59.490 112.062  0.00  0.00    +0.000 A 
BRANCH   9  11
ATOM     11  C18 UNL     1      63.522  59.607 114.562  0.00  0.00    +0.000 C 
ATOM     12  F2  UNL     1      64.717  60.144 114.116  0.00  0.00    +0.000 F 
ATOM     13  F3  UNL     1      63.810  58.525 115.377  0.00  0.00    +0.000 F 
ATOM     14  F4  UNL     1      62.853  60.553 115.317  0.00  0.00    +0.000 F 
ENDBRANCH   9  11
BRANCH   8  15
ATOM     15  C15 UNL     1      60.934  58.226 114.873  0.00  0.00    +0.000 C 
ATOM     16  N2  UNL     1      60.535  57.969 115.929  0.00  0.00    +0.000 NA
ENDBRANCH   8  15
ENDBRANCH   3   5
BRANCH   1  18
ATOM     17  C1  UNL     1      65.995  58.633 107.961  0.00  0.00    +0.000 C 
ATOM     18  C2  UNL     1      64.540  59.076 107.744  0.00  0.00    +0.000 C 
BRANCH  18  19
ATOM     19  O1  UNL     1      64.532  60.486 107.731  0.00  0.00    +0.000 OA
ATOM     20  H4  UNL     1      63.731  60.791 107.231  0.00  0.00    +0.000 HD
ENDBRANCH  18  19
BRANCH  18  21
ATOM     21  C3  UNL     1      64.051  58.534 106.373  0.00  0.00    +0.000 C 
BRANCH  21  22
ATOM     22  S1  UNL     1      62.406  59.076 105.886  0.00  0.00    +0.000 S 
ATOM     23  O2  UNL     1      62.101  60.391 106.546  0.00  0.00    +0.000 OA
ATOM     24  O3  UNL     1      61.344  58.089 106.280  0.00  0.00    +0.000 OA
BRANCH  22  25
ATOM     25  C4  UNL     1      62.377  59.267 104.136  0.00  0.00    +0.000 A 
ATOM     26  C5  UNL     1      61.559  58.449 103.343  0.00  0.00    +0.000 A 
ATOM     27  C6  UNL     1      61.528  58.621 101.955  0.00  0.00    +0.000 A 
ATOM     28  C7  UNL     1      62.308  59.616 101.356  0.00  0.00    +0.000 A 
ATOM     29  F1  UNL     1      62.275  59.784 100.011  0.00  0.00    +0.000 F 
ATOM     30  C8  UNL     1      63.118  60.439 102.144  0.00  0.00    +0.000 A 
ATOM     31  C9  UNL     1      63.151  60.268 103.531  0.00  0.00    +0.000 A 
ENDBRANCH  22  25
ENDBRANCH  21  22
ENDBRANCH  18  21
ENDBRANCH   1  18
TORSDOF 8
ENDMDL
MODEL 3
REMARK VINA RESULT:      -7.5      2.427      3.073
REMARK  Name = ./S1190.pdb
REMARK  9 active torsions:
REMARK  status: ('A' for Active; 'I' for Inactive)
REMARK    1  A    between atoms: C1_1  and  C2_2
REMARK    2  A    between atoms: C2_2  and  O1_3
REMARK    3  A    between atoms: C2_2  and  C3_4
REMARK    4  A    between atoms: C2_2  and  C10_15
REMARK    5  A    between atoms: C3_4  and  S1_5
REMARK    6  A    between atoms: S1_5  and  C4_8
REMARK    7  A    between atoms: N1_17  and  C11_18
REMARK    8  A    between atoms: C14_21  and  C15_22
REMARK    9  A    between atoms: C16_24  and  C18_26
REMARK                            x       y       z     vdW  Elec       q    Type
REMARK                         _______ _______ _______ _____ _____    ______ ____
ROOT
ATOM      1  C10 UNL     1      63.811  59.159 108.925  0.00  0.00    +0.000 C 
ATOM      2  O4  UNL     1      63.592  57.976 109.304  0.00  0.00    +0.000 OA
ATOM      3  N1  UNL     1      63.237  60.260 109.653  0.00  0.00    +0.000 N 
ATOM      4  H11 UNL     1      63.038  61.142 109.129  0.00  0.00    +0.000 HD
ENDROOT
BRANCH   3   5
ATOM      5  C11 UNL     1      62.855  60.206 111.039  0.00  0.00    +0.000 A 
ATOM      6  C12 UNL     1      63.734  59.730 112.025  0.00  0.00    +0.000 A 
ATOM      7  C13 UNL     1      63.353  59.726 113.367  0.00  0.00    +0.000 A 
ATOM      8  C14 UNL     1      62.095  60.206 113.751  0.00  0.00    +0.000 A 
ATOM      9  C16 UNL     1      61.202  60.707 112.776  0.00  0.00    +0.000 A 
ATOM     10  C17 UNL     1      61.602  60.705 111.424  0.00  0.00    +0.000 A 
BRANCH   9  11
ATOM     11  C18 UNL     1      59.840  61.244 113.171  0.00  0.00    +0.000 C 
ATOM     12  F2  UNL     1      59.176  61.697 112.045  0.00  0.00    +0.000 F 
ATOM     13  F3  UNL     1      59.938  62.294 114.068  0.00  0.00    +0.000 F 
ATOM     14  F4  UNL     1      59.098  60.236 113.761  0.00  0.00    +0.000 F 
ENDBRANCH   9  11
BRANCH   8  15
ATOM     15  C15 UNL     1      61.750  60.183 115.153  0.00  0.00    +0.000 C 
ATOM     16  N2  UNL     1      61.475  60.164 116.277  0.00  0.00    +0.000 NA
ENDBRANCH   8  15
ENDBRANCH   3   5
BRANCH   1  18
ATOM     17  C1  UNL     1      66.042  58.948 107.880  0.00  0.00    +0.000 C 
ATOM     18  C2  UNL     1      64.593  59.401 107.643  0.00  0.00    +0.000 C 
BRANCH  18  19
ATOM     19  O1  UNL     1      64.633  60.776 107.332  0.00  0.00    +0.000 OA
ATOM     20  H4  UNL     1      63.713  61.140 107.403  0.00  0.00    +0.000 HD
ENDBRANCH  18  19
BRANCH  18  21
ATOM     21  C3  UNL     1      64.010  58.606 106.443  0.00  0.00    +0.000 C 
BRANCH  21  22
ATOM     22  S1  UNL     1      62.363  59.112 105.926  0.00  0.00    +0.000 S 
ATOM     23  O2  UNL     1      62.020  60.425 106.574  0.00  0.00    +0.000 OA
ATOM     24  O3  UNL     1      61.314  58.106 106.309  0.00  0.00    +0.000 OA
BRANCH  22  25
ATOM     25  C4  UNL     1      62.358  59.294 104.176  0.00  0.00    +0.000 A 
ATOM     26  C5  UNL     1      61.557  58.468 103.375  0.00  0.00    +0.000 A 
ATOM     27  C6  UNL     1      61.546  58.633 101.986  0.00  0.00    +0.000 A 
ATOM     28  C7  UNL     1      62.329  59.628 101.393  0.00  0.00    +0.000 A 
ATOM     29  F1  UNL     1      62.315  59.789 100.046  0.00  0.00    +0.000 F 
ATOM     30  C8  UNL     1      63.123  60.460 102.188  0.00  0.00    +0.000 A 
ATOM     31  C9  UNL     1      63.136  60.296 103.576  0.00  0.00    +0.000 A 
ENDBRANCH  22  25
ENDBRANCH  21  22
ENDBRANCH  18  21
ENDBRANCH   1  18
TORSDOF 8
ENDMDL
MODEL 4
REMARK VINA RESULT:      -7.5      3.816      4.488
REMARK  Name = ./S1190.pdb
REMARK  9 active torsions:
REMARK  status: ('A' for Active; 'I' for Inactive)
REMARK    1  A    between atoms: C1_1  and  C2_2
REMARK    2  A    between atoms: C2_2  and  O1_3
REMARK    3  A    between atoms: C2_2  and  C3_4
REMARK    4  A    between atoms: C2_2  and  C10_15
REMARK    5  A    between atoms: C3_4  and  S1_5
REMARK    6  A    between atoms: S1_5  and  C4_8
REMARK    7  A    between atoms: N1_17  and  C11_18
REMARK    8  A    between atoms: C14_21  and  C15_22
REMARK    9  A    between atoms: C16_24  and  C18_26
REMARK                            x       y       z     vdW  Elec       q    Type
REMARK                         _______ _______ _______ _____ _____    ______ ____
ROOT
ATOM      1  C10 UNL     1      62.197  58.169 109.175  0.00  0.00    +0.000 C 
ATOM      2  O4  UNL     1      63.292  58.589 109.640  0.00  0.00    +0.000 OA
ATOM      3  N1  UNL     1      60.963  58.515 109.829  0.00  0.00    +0.000 N 
ATOM      4  H11 UNL     1      60.160  57.852 109.742  0.00  0.00    +0.000 HD
ENDROOT
BRANCH   3   5
ATOM      5  C11 UNL     1      60.779  59.682 110.651  0.00  0.00    +0.000 A 
ATOM      6  C12 UNL     1      61.041  59.657 112.030  0.00  0.00    +0.000 A 
ATOM      7  C13 UNL     1      60.893  60.813 112.797  0.00  0.00    +0.000 A 
ATOM      8  C14 UNL     1      60.491  62.015 112.202  0.00  0.00    +0.000 A 
ATOM      9  C16 UNL     1      60.240  62.066 110.811  0.00  0.00    +0.000 A 
ATOM     10  C17 UNL     1      60.395  60.890 110.050  0.00  0.00    +0.000 A 
BRANCH   9  11
ATOM     11  C18 UNL     1      59.817  63.360 110.144  0.00  0.00    +0.000 C 
ATOM     12  F2  UNL     1      59.607  63.138 108.794  0.00  0.00    +0.000 F 
ATOM     13  F3  UNL     1      60.777  64.348 110.277  0.00  0.00    +0.000 F 
ATOM     14  F4  UNL     1      58.643  63.814 110.717  0.00  0.00    +0.000 F 
ENDBRANCH   9  11
BRANCH   8  15
ATOM     15  C15 UNL     1      60.355  63.183 113.039  0.00  0.00    +0.000 C 
ATOM     16  N2  UNL     1      60.247  64.120 113.711  0.00  0.00    +0.000 NA
ENDBRANCH   8  15
ENDBRANCH   3   5
BRANCH   1  18
ATOM     17  C1  UNL     1      61.344  55.997 108.357  0.00  0.00    +0.000 C 
ATOM     18  C2  UNL     1      62.206  57.214 107.991  0.00  0.00    +0.000 C 
BRANCH  18  19
ATOM     19  O1  UNL     1      63.510  56.740 107.740  0.00  0.00    +0.000 OA
ATOM     20  H4  UNL     1      64.153  57.310 108.237  0.00  0.00    +0.000 HD
ENDBRANCH  18  19
BRANCH  18  21
ATOM     21  C3  UNL     1      61.628  57.870 106.707  0.00  0.00    +0.000 C 
BRANCH  21  22
ATOM     22  S1  UNL     1      62.557  59.281 106.090  0.00  0.00    +0.000 S 
ATOM     23  O2  UNL     1      64.010  59.108 106.435  0.00  0.00    +0.000 OA
ATOM     24  O3  UNL     1      62.080  60.577 106.682  0.00  0.00    +0.000 OA
BRANCH  22  25
ATOM     25  C4  UNL     1      62.366  59.355 104.342  0.00  0.00    +0.000 A 
ATOM     26  C5  UNL     1      63.133  60.247 103.578  0.00  0.00    +0.000 A 
ATOM     27  C6  UNL     1      62.987  60.286 102.188  0.00  0.00    +0.000 A 
ATOM     28  C7  UNL     1      62.081  59.429 101.555  0.00  0.00    +0.000 A 
ATOM     29  F1  UNL     1      61.943  59.465 100.206  0.00  0.00    +0.000 F 
ATOM     30  C8  UNL     1      61.321  58.532 102.312  0.00  0.00    +0.000 A 
ATOM     31  C9  UNL     1      61.464  58.493 103.701  0.00  0.00    +0.000 A 
ENDBRANCH  22  25
ENDBRANCH  21  22
ENDBRANCH  18  21
ENDBRANCH   1  18
TORSDOF 8
ENDMDL
MODEL 5
REMARK VINA RESULT:      -7.3      3.395      3.941
REMARK  Name = ./S1190.pdb
REMARK  9 active torsions:
REMARK  status: ('A' for Active; 'I' for Inactive)
REMARK    1  A    between atoms: C1_1  and  C2_2
REMARK    2  A    between atoms: C2_2  and  O1_3
REMARK    3  A    between atoms: C2_2  and  C3_4
REMARK    4  A    between atoms: C2_2  and  C10_15
REMARK    5  A    between atoms: C3_4  and  S1_5
REMARK    6  A    between atoms: S1_5  and  C4_8
REMARK    7  A    between atoms: N1_17  and  C11_18
REMARK    8  A    between atoms: C14_21  and  C15_22
REMARK    9  A    between atoms: C16_24  and  C18_26
REMARK                            x       y       z     vdW  Elec       q    Type
REMARK                         _______ _______ _______ _____ _____    ______ ____
ROOT
ATOM      1  C10 UNL     1      63.809  59.779 109.230  0.00  0.00    +0.000 C 
ATOM      2  O4  UNL     1      64.491  59.748 110.291  0.00  0.00    +0.000 OA
ATOM      3  N1  UNL     1      62.377  59.898 109.304  0.00  0.00    +0.000 N 
ATOM      4  H11 UNL     1      61.811  59.490 108.526  0.00  0.00    +0.000 HD
ENDROOT
BRANCH   3   5
ATOM      5  C11 UNL     1      61.667  60.484 110.410  0.00  0.00    +0.000 A 
ATOM      6  C12 UNL     1      61.403  59.755 111.581  0.00  0.00    +0.000 A 
ATOM      7  C13 UNL     1      60.747  60.359 112.655  0.00  0.00    +0.000 A 
ATOM      8  C14 UNL     1      60.354  61.700 112.584  0.00  0.00    +0.000 A 
ATOM      9  C16 UNL     1      60.627  62.457 111.421  0.00  0.00    +0.000 A 
ATOM     10  C17 UNL     1      61.291  61.834 110.346  0.00  0.00    +0.000 A 
BRANCH   9  11
ATOM     11  C18 UNL     1      60.222  63.916 111.328  0.00  0.00    +0.000 C 
ATOM     12  F2  UNL     1      60.754  64.472 110.179  0.00  0.00    +0.000 F 
ATOM     13  F3  UNL     1      60.673  64.647 112.414  0.00  0.00    +0.000 F 
ATOM     14  F4  UNL     1      58.843  64.011 111.283  0.00  0.00    +0.000 F 
ENDBRANCH   9  11
BRANCH   8  15
ATOM     15  C15 UNL     1      59.682  62.280 113.723  0.00  0.00    +0.000 C 
ATOM     16  N2  UNL     1      59.142  62.743 114.637  0.00  0.00    +0.000 NA
ENDBRANCH   8  15
ENDBRANCH   3   5
BRANCH   1  18
ATOM     17  C1  UNL     1      65.954  59.164 108.165  0.00  0.00    +0.000 C 
ATOM     18  C2  UNL     1      64.503  59.584 107.890  0.00  0.00    +0.000 C 
BRANCH  18  19
ATOM     19  O1  UNL     1      64.550  60.795 107.169  0.00  0.00    +0.000 OA
ATOM     20  H4  UNL     1      64.484  60.587 106.201  0.00  0.00    +0.000 HD
ENDBRANCH  18  19
BRANCH  18  21
ATOM     21  C3  UNL     1      63.818  58.486 107.030  0.00  0.00    +0.000 C 
BRANCH  21  22
ATOM     22  S1  UNL     1      62.450  59.061 106.014  0.00  0.00    +0.000 S 
ATOM     23  O2  UNL     1      62.000  60.410 106.503  0.00  0.00    +0.000 OA
ATOM     24  O3  UNL     1      61.276  58.124 106.061  0.00  0.00    +0.000 OA
BRANCH  22  25
ATOM     25  C4  UNL     1      63.005  59.187 104.349  0.00  0.00    +0.000 A 
ATOM     26  C5  UNL     1      63.600  58.088 103.710  0.00  0.00    +0.000 A 
ATOM     27  C6  UNL     1      64.021  58.193 102.381  0.00  0.00    +0.000 A 
ATOM     28  C7  UNL     1      63.844  59.391 101.682  0.00  0.00    +0.000 A 
ATOM     29  F1  UNL     1      64.250  59.490 100.392  0.00  0.00    +0.000 F 
ATOM     30  C8  UNL     1      63.244  60.486 102.312  0.00  0.00    +0.000 A 
ATOM     31  C9  UNL     1      62.823  60.384 103.641  0.00  0.00    +0.000 A 
ENDBRANCH  22  25
ENDBRANCH  21  22
ENDBRANCH  18  21
ENDBRANCH   1  18
TORSDOF 8
ENDMDL
MODEL 6
REMARK VINA RESULT:      -7.2      3.703      4.427
REMARK  Name = ./S1190.pdb
REMARK  9 active torsions:
REMARK  status: ('A' for Active; 'I' for Inactive)
REMARK    1  A    between atoms: C1_1  and  C2_2
REMARK    2  A    between atoms: C2_2  and  O1_3
REMARK    3  A    between atoms: C2_2  and  C3_4
REMARK    4  A    between atoms: C2_2  and  C10_15
REMARK    5  A    between atoms: C3_4  and  S1_5
REMARK    6  A    between atoms: S1_5  and  C4_8
REMARK    7  A    between atoms: N1_17  and  C11_18
REMARK    8  A    between atoms: C14_21  and  C15_22
REMARK    9  A    between atoms: C16_24  and  C18_26
REMARK                            x       y       z     vdW  Elec       q    Type
REMARK                         _______ _______ _______ _____ _____    ______ ____
ROOT
ATOM      1  C10 UNL     1      62.240  59.243 107.749  0.00  0.00    +0.000 C 
ATOM      2  O4  UNL     1      61.413  58.366 108.119  0.00  0.00    +0.000 OA
ATOM      3  N1  UNL     1      62.237  60.539 108.375  0.00  0.00    +0.000 N 
ATOM      4  H11 UNL     1      62.569  61.355 107.813  0.00  0.00    +0.000 HD
ENDROOT
BRANCH   3   5
ATOM      5  C11 UNL     1      61.743  60.798 109.701  0.00  0.00    +0.000 A 
ATOM      6  C12 UNL     1      62.318  60.193 110.830  0.00  0.00    +0.000 A 
ATOM      7  C13 UNL     1      61.846  60.493 112.109  0.00  0.00    +0.000 A 
ATOM      8  C14 UNL     1      60.802  61.408 112.285  0.00  0.00    +0.000 A 
ATOM      9  C16 UNL     1      60.221  62.042 111.162  0.00  0.00    +0.000 A 
ATOM     10  C17 UNL     1      60.709  61.730 109.877  0.00  0.00    +0.000 A 
BRANCH   9  11
ATOM     11  C18 UNL     1      59.097  63.047 111.330  0.00  0.00    +0.000 C 
ATOM     12  F2  UNL     1      59.569  64.162 111.999  0.00  0.00    +0.000 F 
ATOM     13  F3  UNL     1      58.039  62.522 112.054  0.00  0.00    +0.000 F 
ATOM     14  F4  UNL     1      58.627  63.428 110.087  0.00  0.00    +0.000 F 
ENDBRANCH   9  11
BRANCH   8  15
ATOM     15  C15 UNL     1      60.352  61.686 113.628  0.00  0.00    +0.000 C 
ATOM     16  N2  UNL     1      59.992  61.911 114.705  0.00  0.00    +0.000 NA
ENDBRANCH   8  15
ENDBRANCH   3   5
BRANCH   1  18
ATOM     17  C1  UNL     1      64.266  58.002 107.061  0.00  0.00    +0.000 C 
ATOM     18  C2  UNL     1      63.162  58.952 106.574  0.00  0.00    +0.000 C 
BRANCH  18  19
ATOM     19  O1  UNL     1      63.794  60.132 106.129  0.00  0.00    +0.000 OA
ATOM     20  H4  UNL     1      64.736  59.916 105.900  0.00  0.00    +0.000 HD
ENDBRANCH  18  19
BRANCH  18  21
ATOM     21  C3  UNL     1      62.409  58.281 105.392  0.00  0.00    +0.000 C 
BRANCH  21  22
ATOM     22  S1  UNL     1      61.861  59.409 104.102  0.00  0.00    +0.000 S 
ATOM     23  O2  UNL     1      61.775  60.801 104.663  0.00  0.00    +0.000 OA
ATOM     24  O3  UNL     1      60.512  59.034 103.557  0.00  0.00    +0.000 OA
BRANCH  22  25
ATOM     25  C4  UNL     1      63.032  59.368 102.789  0.00  0.00    +0.000 A 
ATOM     26  C5  UNL     1      63.176  60.466 101.928  0.00  0.00    +0.000 A 
ATOM     27  C6  UNL     1      64.123  60.431 100.899  0.00  0.00    +0.000 A 
ATOM     28  C7  UNL     1      64.933  59.304 100.731  0.00  0.00    +0.000 A 
ATOM     29  F1  UNL     1      65.853  59.272  99.735  0.00  0.00    +0.000 F 
ATOM     30  C8  UNL     1      64.798  58.211 101.592  0.00  0.00    +0.000 A 
ATOM     31  C9  UNL     1      63.852  58.243 102.620  0.00  0.00    +0.000 A 
ENDBRANCH  22  25
ENDBRANCH  21  22
ENDBRANCH  18  21
ENDBRANCH   1  18
TORSDOF 8
ENDMDL
MODEL 7
REMARK VINA RESULT:      -7.1      3.375      4.380
REMARK  Name = ./S1190.pdb
REMARK  9 active torsions:
REMARK  status: ('A' for Active; 'I' for Inactive)
REMARK    1  A    between atoms: C1_1  and  C2_2
REMARK    2  A    between atoms: C2_2  and  O1_3
REMARK    3  A    between atoms: C2_2  and  C3_4
REMARK    4  A    between atoms: C2_2  and  C10_15
REMARK    5  A    between atoms: C3_4  and  S1_5
REMARK    6  A    between atoms: S1_5  and  C4_8
REMARK    7  A    between atoms: N1_17  and  C11_18
REMARK    8  A    between atoms: C14_21  and  C15_22
REMARK    9  A    between atoms: C16_24  and  C18_26
REMARK                            x       y       z     vdW  Elec       q    Type
REMARK                         _______ _______ _______ _____ _____    ______ ____
ROOT
ATOM      1  C10 UNL     1      64.707  58.945 109.640  0.00  0.00    +0.000 C 
ATOM      2  O4  UNL     1      64.549  57.758 110.036  0.00  0.00    +0.000 OA
ATOM      3  N1  UNL     1      64.588  60.032 110.576  0.00  0.00    +0.000 N 
ATOM      4  H11 UNL     1      64.279  60.961 110.211  0.00  0.00    +0.000 HD
ENDROOT
BRANCH   3   5
ATOM      5  C11 UNL     1      64.802  59.910 111.993  0.00  0.00    +0.000 A 
ATOM      6  C12 UNL     1      66.091  59.959 112.549  0.00  0.00    +0.000 A 
ATOM      7  C13 UNL     1      66.268  59.878 113.930  0.00  0.00    +0.000 A 
ATOM      8  C14 UNL     1      65.164  59.758 114.782  0.00  0.00    +0.000 A 
ATOM      9  C16 UNL     1      63.856  59.725 114.245  0.00  0.00    +0.000 A 
ATOM     10  C17 UNL     1      63.694  59.809 112.848  0.00  0.00    +0.000 A 
BRANCH   9  11
ATOM     11  C18 UNL     1      62.645  59.608 115.150  0.00  0.00    +0.000 C 
ATOM     12  F2  UNL     1      62.579  60.713 115.981  0.00  0.00    +0.000 F 
ATOM     13  F3  UNL     1      62.699  58.473 115.941  0.00  0.00    +0.000 F 
ATOM     14  F4  UNL     1      61.497  59.549 114.382  0.00  0.00    +0.000 F 
ENDBRANCH   9  11
BRANCH   8  15
ATOM     15  C15 UNL     1      65.400  59.681 116.205  0.00  0.00    +0.000 C 
ATOM     16  N2  UNL     1      65.589  59.621 117.345  0.00  0.00    +0.000 NA
ENDBRANCH   8  15
ENDBRANCH   3   5
BRANCH   1  18
ATOM     17  C1  UNL     1      66.365  58.843 107.809  0.00  0.00    +0.000 C 
ATOM     18  C2  UNL     1      64.917  59.218 108.158  0.00  0.00    +0.000 C 
BRANCH  18  19
ATOM     19  O1  UNL     1      64.763  60.590 107.874  0.00  0.00    +0.000 OA
ATOM     20  H4  UNL     1      64.007  60.697 107.241  0.00  0.00    +0.000 HD
ENDBRANCH  18  19
BRANCH  18  21
ATOM     21  C3  UNL     1      63.955  58.384 107.268  0.00  0.00    +0.000 C 
BRANCH  21  22
ATOM     22  S1  UNL     1      62.331  59.115 107.014  0.00  0.00    +0.000 S 
ATOM     23  O2  UNL     1      61.463  58.147 106.259  0.00  0.00    +0.000 OA
ATOM     24  O3  UNL     1      62.401  60.397 106.234  0.00  0.00    +0.000 OA
BRANCH  22  25
ATOM     25  C4  UNL     1      61.617  59.450 108.588  0.00  0.00    +0.000 A 
ATOM     26  C5  UNL     1      61.518  60.767 109.060  0.00  0.00    +0.000 A 
ATOM     27  C6  UNL     1      60.932  61.025 110.304  0.00  0.00    +0.000 A 
ATOM     28  C7  UNL     1      60.438  59.969 111.077  0.00  0.00    +0.000 A 
ATOM     29  F1  UNL     1      59.867  60.221 112.281  0.00  0.00    +0.000 F 
ATOM     30  C8  UNL     1      60.527  58.656 110.606  0.00  0.00    +0.000 A 
ATOM     31  C9  UNL     1      61.113  58.396 109.364  0.00  0.00    +0.000 A 
ENDBRANCH  22  25
ENDBRANCH  21  22
ENDBRANCH  18  21
ENDBRANCH   1  18
TORSDOF 8
ENDMDL
MODEL 8
REMARK VINA RESULT:      -7.1      2.410      3.056
REMARK  Name = ./S1190.pdb
REMARK  9 active torsions:
REMARK  status: ('A' for Active; 'I' for Inactive)
REMARK    1  A    between atoms: C1_1  and  C2_2
REMARK    2  A    between atoms: C2_2  and  O1_3
REMARK    3  A    between atoms: C2_2  and  C3_4
REMARK    4  A    between atoms: C2_2  and  C10_15
REMARK    5  A    between atoms: C3_4  and  S1_5
REMARK    6  A    between atoms: S1_5  and  C4_8
REMARK    7  A    between atoms: N1_17  and  C11_18
REMARK    8  A    between atoms: C14_21  and  C15_22
REMARK    9  A    between atoms: C16_24  and  C18_26
REMARK                            x       y       z     vdW  Elec       q    Type
REMARK                         _______ _______ _______ _____ _____    ______ ____
ROOT
ATOM      1  C10 UNL     1      64.496  58.974 109.450  0.00  0.00    +0.000 C 
ATOM      2  O4  UNL     1      64.489  57.781 109.860  0.00  0.00    +0.000 OA
ATOM      3  N1  UNL     1      63.941  60.016 110.272  0.00  0.00    +0.000 N 
ATOM      4  H11 UNL     1      63.548  60.859 109.795  0.00  0.00    +0.000 HD
ENDROOT
BRANCH   3   5
ATOM      5  C11 UNL     1      63.827  59.946 111.705  0.00  0.00    +0.000 A 
ATOM      6  C12 UNL     1      62.580  59.833 112.339  0.00  0.00    +0.000 A 
ATOM      7  C13 UNL     1      62.500  59.727 113.728  0.00  0.00    +0.000 A 
ATOM      8  C14 UNL     1      63.663  59.722 114.508  0.00  0.00    +0.000 A 
ATOM      9  C16 UNL     1      64.931  59.816 113.888  0.00  0.00    +0.000 A 
ATOM     10  C17 UNL     1      64.994  59.921 112.484  0.00  0.00    +0.000 A 
BRANCH   9  11
ATOM     11  C18 UNL     1      66.203  59.799 114.712  0.00  0.00    +0.000 C 
ATOM     12  F2  UNL     1      66.230  58.661 115.499  0.00  0.00    +0.000 F 
ATOM     13  F3  UNL     1      66.297  60.903 115.542  0.00  0.00    +0.000 F 
ATOM     14  F4  UNL     1      67.301  59.794 113.870  0.00  0.00    +0.000 F 
ENDBRANCH   9  11
BRANCH   8  15
ATOM     15  C15 UNL     1      63.528  59.607 115.940  0.00  0.00    +0.000 C 
ATOM     16  N2  UNL     1      63.421  59.515 117.090  0.00  0.00    +0.000 NA
ENDBRANCH   8  15
ENDBRANCH   3   5
BRANCH   1  18
ATOM     17  C1  UNL     1      66.474  58.859 107.969  0.00  0.00    +0.000 C 
ATOM     18  C2  UNL     1      64.998  59.279 108.046  0.00  0.00    +0.000 C 
BRANCH  18  19
ATOM     19  O1  UNL     1      64.945  60.663 107.785  0.00  0.00    +0.000 OA
ATOM     20  H4  UNL     1      64.398  61.096 108.490  0.00  0.00    +0.000 HD
ENDBRANCH  18  19
BRANCH  18  21
ATOM     21  C3  UNL     1      64.200  58.507 106.959  0.00  0.00    +0.000 C 
BRANCH  21  22
ATOM     22  S1  UNL     1      62.463  58.956 106.830  0.00  0.00    +0.000 S 
ATOM     23  O2  UNL     1      62.231  59.674 105.530  0.00  0.00    +0.000 OA
ATOM     24  O3  UNL     1      62.025  59.854 107.952  0.00  0.00    +0.000 OA
BRANCH  22  25
ATOM     25  C4  UNL     1      61.500  57.484 106.877  0.00  0.00    +0.000 A 
ATOM     26  C5  UNL     1      61.463  56.693 108.034  0.00  0.00    +0.000 A 
ATOM     27  C6  UNL     1      60.680  55.534 108.068  0.00  0.00    +0.000 A 
ATOM     28  C7  UNL     1      59.927  55.166 106.949  0.00  0.00    +0.000 A 
ATOM     29  F1  UNL     1      59.165  54.044 106.983  0.00  0.00    +0.000 F 
ATOM     30  C8  UNL     1      59.954  55.956 105.796  0.00  0.00    +0.000 A 
ATOM     31  C9  UNL     1      60.737  57.114 105.760  0.00  0.00    +0.000 A 
ENDBRANCH  22  25
ENDBRANCH  21  22
ENDBRANCH  18  21
ENDBRANCH   1  18
TORSDOF 8
ENDMDL
MODEL 9
REMARK VINA RESULT:      -7.0      4.557      8.928
REMARK  Name = ./S1190.pdb
REMARK  9 active torsions:
REMARK  status: ('A' for Active; 'I' for Inactive)
REMARK    1  A    between atoms: C1_1  and  C2_2
REMARK    2  A    between atoms: C2_2  and  O1_3
REMARK    3  A    between atoms: C2_2  and  C3_4
REMARK    4  A    between atoms: C2_2  and  C10_15
REMARK    5  A    between atoms: C3_4  and  S1_5
REMARK    6  A    between atoms: S1_5  and  C4_8
REMARK    7  A    between atoms: N1_17  and  C11_18
REMARK    8  A    between atoms: C14_21  and  C15_22
REMARK    9  A    between atoms: C16_24  and  C18_26
REMARK                            x       y       z     vdW  Elec       q    Type
REMARK                         _______ _______ _______ _____ _____    ______ ____
ROOT
ATOM      1  C10 UNL     1      64.648  58.309 107.679  0.00  0.00    +0.000 C 
ATOM      2  O4  UNL     1      65.732  57.992 107.116  0.00  0.00    +0.000 OA
ATOM      3  N1  UNL     1      63.507  58.671 106.880  0.00  0.00    +0.000 N 
ATOM      4  H11 UNL     1      62.809  59.328 107.293  0.00  0.00    +0.000 HD
ENDROOT
BRANCH   3   5
ATOM      5  C11 UNL     1      63.297  58.240 105.523  0.00  0.00    +0.000 A 
ATOM      6  C12 UNL     1      62.996  56.904 105.214  0.00  0.00    +0.000 A 
ATOM      7  C13 UNL     1      62.758  56.521 103.894  0.00  0.00    +0.000 A 
ATOM      8  C14 UNL     1      62.804  57.464 102.861  0.00  0.00    +0.000 A 
ATOM      9  C16 UNL     1      63.087  58.819 103.152  0.00  0.00    +0.000 A 
ATOM     10  C17 UNL     1      63.325  59.190 104.490  0.00  0.00    +0.000 A 
BRANCH   9  11
ATOM     11  C18 UNL     1      63.129  59.859 102.050  0.00  0.00    +0.000 C 
ATOM     12  F2  UNL     1      64.211  59.616 101.223  0.00  0.00    +0.000 F 
ATOM     13  F3  UNL     1      63.249  61.143 102.555  0.00  0.00    +0.000 F 
ATOM     14  F4  UNL     1      61.965  59.793 101.306  0.00  0.00    +0.000 F 
ENDBRANCH   9  11
BRANCH   8  15
ATOM     15  C15 UNL     1      62.547  57.018 101.512  0.00  0.00    +0.000 C 
ATOM     16  N2  UNL     1      62.339  56.661 100.430  0.00  0.00    +0.000 NA
ENDBRANCH   8  15
ENDBRANCH   3   5
BRANCH   1  18
ATOM     17  C1  UNL     1      66.002  58.756 109.698  0.00  0.00    +0.000 C 
ATOM     18  C2  UNL     1      64.594  58.406 109.196  0.00  0.00    +0.000 C 
BRANCH  18  19
ATOM     19  O1  UNL     1      64.246  57.163 109.765  0.00  0.00    +0.000 OA
ATOM     20  H4  UNL     1      63.704  57.331 110.579  0.00  0.00    +0.000 HD
ENDBRANCH  18  19
BRANCH  18  21
ATOM     21  C3  UNL     1      63.603  59.501 109.678  0.00  0.00    +0.000 C 
BRANCH  21  22
ATOM     22  S1  UNL     1      62.002  58.889 110.225  0.00  0.00    +0.000 S 
ATOM     23  O2  UNL     1      62.140  58.298 111.600  0.00  0.00    +0.000 OA
ATOM     24  O3  UNL     1      61.455  57.832 109.307  0.00  0.00    +0.000 OA
BRANCH  22  25
ATOM     25  C4  UNL     1      60.873  60.238 110.268  0.00  0.00    +0.000 A 
ATOM     26  C5  UNL     1      61.265  61.510 109.826  0.00  0.00    +0.000 A 
ATOM     27  C6  UNL     1      60.354  62.572 109.847  0.00  0.00    +0.000 A 
ATOM     28  C7  UNL     1      59.049  62.366 110.303  0.00  0.00    +0.000 A 
ATOM     29  F1  UNL     1      58.166  63.395 110.321  0.00  0.00    +0.000 F 
ATOM     30  C8  UNL     1      58.652  61.097 110.737  0.00  0.00    +0.000 A 
ATOM     31  C9  UNL     1      59.560  60.035 110.718  0.00  0.00    +0.000 A 
ENDBRANCH  22  25
ENDBRANCH  21  22
ENDBRANCH  18  21
ENDBRANCH   1  18
TORSDOF 8
ENDMDL
MODEL 10
REMARK VINA RESULT:      -7.0      6.780     12.353
REMARK  Name = ./S1190.pdb
REMARK  9 active torsions:
REMARK  status: ('A' for Active; 'I' for Inactive)
REMARK    1  A    between atoms: C1_1  and  C2_2
REMARK    2  A    between atoms: C2_2  and  O1_3
REMARK    3  A    between atoms: C2_2  and  C3_4
REMARK    4  A    between atoms: C2_2  and  C10_15
REMARK    5  A    between atoms: C3_4  and  S1_5
REMARK    6  A    between atoms: S1_5  and  C4_8
REMARK    7  A    between atoms: N1_17  and  C11_18
REMARK    8  A    between atoms: C14_21  and  C15_22
REMARK    9  A    between atoms: C16_24  and  C18_26
REMARK                            x       y       z     vdW  Elec       q    Type
REMARK                         _______ _______ _______ _____ _____    ______ ____
ROOT
ATOM      1  C10 UNL     1      65.998  58.790 100.674  0.00  0.00    +0.000 C 
ATOM      2  O4  UNL     1      66.941  58.006 100.972  0.00  0.00    +0.000 OA
ATOM      3  N1  UNL     1      66.292  60.134 100.254  0.00  0.00    +0.000 N 
ATOM      4  H11 UNL     1      65.576  60.873 100.438  0.00  0.00    +0.000 HD
ENDROOT
BRANCH   3   5
ATOM      5  C11 UNL     1      67.535  60.545  99.656  0.00  0.00    +0.000 A 
ATOM      6  C12 UNL     1      68.630  60.945 100.438  0.00  0.00    +0.000 A 
ATOM      7  C13 UNL     1      69.836  61.301  99.834  0.00  0.00    +0.000 A 
ATOM      8  C14 UNL     1      69.976  61.253  98.443  0.00  0.00    +0.000 A 
ATOM      9  C16 UNL     1      68.891  60.834  97.637  0.00  0.00    +0.000 A 
ATOM     10  C17 UNL     1      67.680  60.477  98.262  0.00  0.00    +0.000 A 
BRANCH   9  11
ATOM     11  C18 UNL     1      69.025  60.762  96.128  0.00  0.00    +0.000 C 
ATOM     12  F2  UNL     1      69.806  59.673  95.784  0.00  0.00    +0.000 F 
ATOM     13  F3  UNL     1      69.615  61.900  95.606  0.00  0.00    +0.000 F 
ATOM     14  F4  UNL     1      67.772  60.621  95.559  0.00  0.00    +0.000 F 
ENDBRANCH   9  11
BRANCH   8  15
ATOM     15  C15 UNL     1      71.246  61.627  97.867  0.00  0.00    +0.000 C 
ATOM     16  N2  UNL     1      72.264  61.926  97.403  0.00  0.00    +0.000 NA
ENDBRANCH   8  15
ENDBRANCH   3   5
BRANCH   1  18
ATOM     17  C1  UNL     1      64.415  56.944 100.227  0.00  0.00    +0.000 C 
ATOM     18  C2  UNL     1      64.559  58.334 100.864  0.00  0.00    +0.000 C 
BRANCH  18  19
ATOM     19  O1  UNL     1      63.668  59.195 100.190  0.00  0.00    +0.000 OA
ATOM     20  H4  UNL     1      63.011  58.641  99.694  0.00  0.00    +0.000 HD
ENDBRANCH  18  19
BRANCH  18  21
ATOM     21  C3  UNL     1      64.168  58.241 102.364  0.00  0.00    +0.000 C 
BRANCH  21  22
ATOM     22  S1  UNL     1      62.755  59.245 102.844  0.00  0.00    +0.000 S 
ATOM     23  O2  UNL     1      61.559  58.843 102.026  0.00  0.00    +0.000 OA
ATOM     24  O3  UNL     1      63.003  60.712 102.633  0.00  0.00    +0.000 OA
BRANCH  22  25
ATOM     25  C4  UNL     1      62.427  58.969 104.551  0.00  0.00    +0.000 A 
ATOM     26  C5  UNL     1      61.672  57.860 104.962  0.00  0.00    +0.000 A 
ATOM     27  C6  UNL     1      61.433  57.639 106.322  0.00  0.00    +0.000 A 
ATOM     28  C7  UNL     1      61.952  58.519 107.277  0.00  0.00    +0.000 A 
ATOM     29  F1  UNL     1      61.721  58.302 108.595  0.00  0.00    +0.000 F 
ATOM     30  C8  UNL     1      62.712  59.621 106.872  0.00  0.00    +0.000 A 
ATOM     31  C9  UNL     1      62.951  59.845 105.513  0.00  0.00    +0.000 A 
ENDBRANCH  22  25
ENDBRANCH  21  22
ENDBRANCH  18  21
ENDBRANCH   1  18
TORSDOF 8
ENDMDL
MODEL 11
REMARK VINA RESULT:      -7.0      3.807      5.448
REMARK  Name = ./S1190.pdb
REMARK  9 active torsions:
REMARK  status: ('A' for Active; 'I' for Inactive)
REMARK    1  A    between atoms: C1_1  and  C2_2
REMARK    2  A    between atoms: C2_2  and  O1_3
REMARK    3  A    between atoms: C2_2  and  C3_4
REMARK    4  A    between atoms: C2_2  and  C10_15
REMARK    5  A    between atoms: C3_4  and  S1_5
REMARK    6  A    between atoms: S1_5  and  C4_8
REMARK    7  A    between atoms: N1_17  and  C11_18
REMARK    8  A    between atoms: C14_21  and  C15_22
REMARK    9  A    between atoms: C16_24  and  C18_26
REMARK                            x       y       z     vdW  Elec       q    Type
REMARK                         _______ _______ _______ _____ _____    ______ ____
ROOT
ATOM      1  C10 UNL     1      60.829  56.540 106.136  0.00  0.00    +0.000 C 
ATOM      2  O4  UNL     1      60.836  55.746 107.117  0.00  0.00    +0.000 OA
ATOM      3  N1  UNL     1      61.273  57.897 106.314  0.00  0.00    +0.000 N 
ATOM      4  H11 UNL     1      60.870  58.630 105.687  0.00  0.00    +0.000 HD
ENDROOT
BRANCH   3   5
ATOM      5  C11 UNL     1      62.186  58.326 107.341  0.00  0.00    +0.000 A 
ATOM      6  C12 UNL     1      61.730  58.937 108.520  0.00  0.00    +0.000 A 
ATOM      7  C13 UNL     1      62.633  59.307 109.517  0.00  0.00    +0.000 A 
ATOM      8  C14 UNL     1      64.003  59.065 109.361  0.00  0.00    +0.000 A 
ATOM      9  C16 UNL     1      64.481  58.433 108.189  0.00  0.00    +0.000 A 
ATOM     10  C17 UNL     1      63.556  58.064 107.192  0.00  0.00    +0.000 A 
BRANCH   9  11
ATOM     11  C18 UNL     1      65.959  58.149 108.005  0.00  0.00    +0.000 C 
ATOM     12  F2  UNL     1      66.143  57.354 106.888  0.00  0.00    +0.000 F 
ATOM     13  F3  UNL     1      66.499  57.493 109.098  0.00  0.00    +0.000 F 
ATOM     14  F4  UNL     1      66.641  59.340 107.833  0.00  0.00    +0.000 F 
ENDBRANCH   9  11
BRANCH   8  15
ATOM     15  C15 UNL     1      64.896  59.463 110.423  0.00  0.00    +0.000 C 
ATOM     16  N2  UNL     1      65.612  59.784 111.275  0.00  0.00    +0.000 NA
ENDBRANCH   8  15
ENDBRANCH   3   5
BRANCH   1  18
ATOM     17  C1  UNL     1      59.379  54.845 105.070  0.00  0.00    +0.000 C 
ATOM     18  C2  UNL     1      60.254  56.080 104.806  0.00  0.00    +0.000 C 
BRANCH  18  19
ATOM     19  O1  UNL     1      61.282  55.681 103.926  0.00  0.00    +0.000 OA
ATOM     20  H4  UNL     1      61.850  56.470 103.729  0.00  0.00    +0.000 HD
ENDBRANCH  18  19
BRANCH  18  21
ATOM     21  C3  UNL     1      59.383  57.177 104.134  0.00  0.00    +0.000 C 
BRANCH  21  22
ATOM     22  S1  UNL     1      59.558  57.298 102.348  0.00  0.00    +0.000 S 
ATOM     23  O2  UNL     1      58.285  57.840 101.760  0.00  0.00    +0.000 OA
ATOM     24  O3  UNL     1      59.843  55.966 101.715  0.00  0.00    +0.000 OA
BRANCH  22  25
ATOM     25  C4  UNL     1      60.890  58.391 101.990  0.00  0.00    +0.000 A 
ATOM     26  C5  UNL     1      61.508  59.122 103.016  0.00  0.00    +0.000 A 
ATOM     27  C6  UNL     1      62.579  59.973 102.724  0.00  0.00    +0.000 A 
ATOM     28  C7  UNL     1      63.040  60.093 101.409  0.00  0.00    +0.000 A 
ATOM     29  F1  UNL     1      64.080  60.917 101.128  0.00  0.00    +0.000 F 
ATOM     30  C8  UNL     1      62.433  59.359 100.385  0.00  0.00    +0.000 A 
ATOM     31  C9  UNL     1      61.362  58.509 100.675  0.00  0.00    +0.000 A 
ENDBRANCH  22  25
ENDBRANCH  21  22
ENDBRANCH  18  21
ENDBRANCH   1  18
TORSDOF 8
ENDMDL
MODEL 12
REMARK VINA RESULT:      -7.0      3.519      4.080
REMARK  Name = ./S1190.pdb
REMARK  9 active torsions:
REMARK  status: ('A' for Active; 'I' for Inactive)
REMARK    1  A    between atoms: C1_1  and  C2_2
REMARK    2  A    between atoms: C2_2  and  O1_3
REMARK    3  A    between atoms: C2_2  and  C3_4
REMARK    4  A    between atoms: C2_2  and  C10_15
REMARK    5  A    between atoms: C3_4  and  S1_5
REMARK    6  A    between atoms: S1_5  and  C4_8
REMARK    7  A    between atoms: N1_17  and  C11_18
REMARK    8  A    between atoms: C14_21  and  C15_22
REMARK    9  A    between atoms: C16_24  and  C18_26
REMARK                            x       y       z     vdW  Elec       q    Type
REMARK                         _______ _______ _______ _____ _____    ______ ____
ROOT
ATOM      1  C10 UNL     1      62.125  58.441 109.231  0.00  0.00    +0.000 C 
ATOM      2  O4  UNL     1      63.214  58.786 109.767  0.00  0.00    +0.000 OA
ATOM      3  N1  UNL     1      60.887  58.998 109.707  0.00  0.00    +0.000 N 
ATOM      4  H11 UNL     1      60.020  58.425 109.602  0.00  0.00    +0.000 HD
ENDROOT
BRANCH   3   5
ATOM      5  C11 UNL     1      60.772  60.265 110.380  0.00  0.00    +0.000 A 
ATOM      6  C12 UNL     1      60.929  61.479 109.693  0.00  0.00    +0.000 A 
ATOM      7  C13 UNL     1      60.773  62.694 110.361  0.00  0.00    +0.000 A 
ATOM      8  C14 UNL     1      60.448  62.720 111.722  0.00  0.00    +0.000 A 
ATOM      9  C16 UNL     1      60.267  61.508 112.429  0.00  0.00    +0.000 A 
ATOM     10  C17 UNL     1      60.427  60.290 111.740  0.00  0.00    +0.000 A 
BRANCH   9  11
ATOM     11  C18 UNL     1      59.901  61.513 113.901  0.00  0.00    +0.000 C 
ATOM     12  F2  UNL     1      59.757  60.212 114.347  0.00  0.00    +0.000 F 
ATOM     13  F3  UNL     1      58.714  62.186 114.136  0.00  0.00    +0.000 F 
ATOM     14  F4  UNL     1      60.903  62.134 114.625  0.00  0.00    +0.000 F 
ENDBRANCH   9  11
BRANCH   8  15
ATOM     15  C15 UNL     1      60.294  64.003 112.367  0.00  0.00    +0.000 C 
ATOM     16  N2  UNL     1      60.170  65.031 112.884  0.00  0.00    +0.000 NA
ENDBRANCH   8  15
ENDBRANCH   3   5
BRANCH   1  18
ATOM     17  C1  UNL     1      61.179  56.242 108.611  0.00  0.00    +0.000 C 
ATOM     18  C2  UNL     1      62.128  57.362 108.159  0.00  0.00    +0.000 C 
BRANCH  18  19
ATOM     19  O1  UNL     1      63.411  56.791 108.027  0.00  0.00    +0.000 OA
ATOM     20  H4  UNL     1      63.710  56.904 107.087  0.00  0.00    +0.000 HD
ENDBRANCH  18  19
BRANCH  18  21
ATOM     21  C3  UNL     1      61.648  57.902 106.784  0.00  0.00    +0.000 C 
BRANCH  21  22
ATOM     22  S1  UNL     1      62.607  59.275 106.130  0.00  0.00    +0.000 S 
ATOM     23  O2  UNL     1      64.060  59.069 106.459  0.00  0.00    +0.000 OA
ATOM     24  O3  UNL     1      62.174  60.594 106.705  0.00  0.00    +0.000 OA
BRANCH  22  25
ATOM     25  C4  UNL     1      62.395  59.324 104.384  0.00  0.00    +0.000 A 
ATOM     26  C5  UNL     1      63.079  60.272 103.608  0.00  0.00    +0.000 A 
ATOM     27  C6  UNL     1      62.918  60.291 102.219  0.00  0.00    +0.000 A 
ATOM     28  C7  UNL     1      62.080  59.359 101.599  0.00  0.00    +0.000 A 
ATOM     29  F1  UNL     1      61.927  59.376 100.251  0.00  0.00    +0.000 F 
ATOM     30  C8  UNL     1      61.403  58.407 102.367  0.00  0.00    +0.000 A 
ATOM     31  C9  UNL     1      61.561  58.387 103.755  0.00  0.00    +0.000 A 
ENDBRANCH  22  25
ENDBRANCH  21  22
ENDBRANCH  18  21
ENDBRANCH   1  18
TORSDOF 8
ENDMDL
MODEL 13
REMARK VINA RESULT:      -6.9      4.506      9.363
REMARK  Name = ./S1190.pdb
REMARK  9 active torsions:
REMARK  status: ('A' for Active; 'I' for Inactive)
REMARK    1  A    between atoms: C1_1  and  C2_2
REMARK    2  A    between atoms: C2_2  and  O1_3
REMARK    3  A    between atoms: C2_2  and  C3_4
REMARK    4  A    between atoms: C2_2  and  C10_15
REMARK    5  A    between atoms: C3_4  and  S1_5
REMARK    6  A    between atoms: S1_5  and  C4_8
REMARK    7  A    between atoms: N1_17  and  C11_18
REMARK    8  A    between atoms: C14_21  and  C15_22
REMARK    9  A    between atoms: C16_24  and  C18_26
REMARK                            x       y       z     vdW  Elec       q    Type
REMARK                         _______ _______ _______ _____ _____    ______ ____
ROOT
ATOM      1  C10 UNL     1      62.367  57.639 107.623  0.00  0.00    +0.000 C 
ATOM      2  O4  UNL     1      61.250  57.441 107.069  0.00  0.00    +0.000 OA
ATOM      3  N1  UNL     1      63.580  57.402 106.888  0.00  0.00    +0.000 N 
ATOM      4  H11 UNL     1      64.435  57.134 107.426  0.00  0.00    +0.000 HD
ENDROOT
BRANCH   3   5
ATOM      5  C11 UNL     1      63.682  57.445 105.453  0.00  0.00    +0.000 A 
ATOM      6  C12 UNL     1      64.015  56.304 104.706  0.00  0.00    +0.000 A 
ATOM      7  C13 UNL     1      64.068  56.363 103.312  0.00  0.00    +0.000 A 
ATOM      8  C14 UNL     1      63.781  57.557 102.640  0.00  0.00    +0.000 A 
ATOM      9  C16 UNL     1      63.425  58.713 103.373  0.00  0.00    +0.000 A 
ATOM     10  C17 UNL     1      63.375  58.637 104.779  0.00  0.00    +0.000 A 
BRANCH   9  11
ATOM     11  C18 UNL     1      63.097  60.013 102.665  0.00  0.00    +0.000 C 
ATOM     12  F2  UNL     1      62.943  61.023 103.597  0.00  0.00    +0.000 F 
ATOM     13  F3  UNL     1      61.929  59.920 101.929  0.00  0.00    +0.000 F 
ATOM     14  F4  UNL     1      64.128  60.344 101.804  0.00  0.00    +0.000 F 
ENDBRANCH   9  11
BRANCH   8  15
ATOM     15  C15 UNL     1      63.846  57.565 101.198  0.00  0.00    +0.000 C 
ATOM     16  N2  UNL     1      63.898  57.574 100.041  0.00  0.00    +0.000 NA
ENDBRANCH   8  15
ENDBRANCH   3   5
BRANCH   1  18
ATOM     17  C1  UNL     1      63.871  57.915 109.566  0.00  0.00    +0.000 C 
ATOM     18  C2  UNL     1      62.414  58.024 109.094  0.00  0.00    +0.000 C 
BRANCH  18  19
ATOM     19  O1  UNL     1      61.656  57.125 109.872  0.00  0.00    +0.000 OA
ATOM     20  H4  UNL     1      61.270  56.436 109.270  0.00  0.00    +0.000 HD
ENDBRANCH  18  19
BRANCH  18  21
ATOM     21  C3  UNL     1      61.916  59.476 109.334  0.00  0.00    +0.000 C 
BRANCH  21  22
ATOM     22  S1  UNL     1      60.826  59.681 110.750  0.00  0.00    +0.000 S 
ATOM     23  O2  UNL     1      61.419  58.977 111.940  0.00  0.00    +0.000 OA
ATOM     24  O3  UNL     1      59.457  59.114 110.498  0.00  0.00    +0.000 OA
BRANCH  22  25
ATOM     25  C4  UNL     1      60.671  61.400 111.093  0.00  0.00    +0.000 A 
ATOM     26  C5  UNL     1      60.841  62.348 110.074  0.00  0.00    +0.000 A 
ATOM     27  C6  UNL     1      60.697  63.712 110.352  0.00  0.00    +0.000 A 
ATOM     28  C7  UNL     1      60.378  64.132 111.647  0.00  0.00    +0.000 A 
ATOM     29  F1  UNL     1      60.236  65.453 111.915  0.00  0.00    +0.000 F 
ATOM     30  C8  UNL     1      60.199  63.189 112.664  0.00  0.00    +0.000 A 
ATOM     31  C9  UNL     1      60.343  61.826 112.388  0.00  0.00    +0.000 A 
ENDBRANCH  22  25
ENDBRANCH  21  22
ENDBRANCH  18  21
ENDBRANCH   1  18
TORSDOF 8
ENDMDL
MODEL 14
REMARK VINA RESULT:      -6.9      5.508     11.575
REMARK  Name = ./S1190.pdb
REMARK  9 active torsions:
REMARK  status: ('A' for Active; 'I' for Inactive)
REMARK    1  A    between atoms: C1_1  and  C2_2
REMARK    2  A    between atoms: C2_2  and  O1_3
REMARK    3  A    between atoms: C2_2  and  C3_4
REMARK    4  A    between atoms: C2_2  and  C10_15
REMARK    5  A    between atoms: C3_4  and  S1_5
REMARK    6  A    between atoms: S1_5  and  C4_8
REMARK    7  A    between atoms: N1_17  and  C11_18
REMARK    8  A    between atoms: C14_21  and  C15_22
REMARK    9  A    between atoms: C16_24  and  C18_26
REMARK                            x       y       z     vdW  Elec       q    Type
REMARK                         _______ _______ _______ _____ _____    ______ ____
ROOT
ATOM      1  C10 UNL     1      63.554  58.899 101.268  0.00  0.00    +0.000 C 
ATOM      2  O4  UNL     1      62.970  58.981 100.153  0.00  0.00    +0.000 OA
ATOM      3  N1  UNL     1      64.873  58.330 101.344  0.00  0.00    +0.000 N 
ATOM      4  H11 UNL     1      65.155  57.866 102.237  0.00  0.00    +0.000 HD
ENDROOT
BRANCH   3   5
ATOM      5  C11 UNL     1      65.808  58.297 100.250  0.00  0.00    +0.000 A 
ATOM      6  C12 UNL     1      65.905  57.183  99.401  0.00  0.00    +0.000 A 
ATOM      7  C13 UNL     1      66.792  57.193  98.324  0.00  0.00    +0.000 A 
ATOM      8  C14 UNL     1      67.588  58.315  98.068  0.00  0.00    +0.000 A 
ATOM      9  C16 UNL     1      67.492  59.455  98.901  0.00  0.00    +0.000 A 
ATOM     10  C17 UNL     1      66.591  59.430  99.984  0.00  0.00    +0.000 A 
BRANCH   9  11
ATOM     11  C18 UNL     1      68.335  60.687  98.634  0.00  0.00    +0.000 C 
ATOM     12  F2  UNL     1      67.913  61.293  97.465  0.00  0.00    +0.000 F 
ATOM     13  F3  UNL     1      69.678  60.375  98.502  0.00  0.00    +0.000 F 
ATOM     14  F4  UNL     1      68.197  61.578  99.683  0.00  0.00    +0.000 F 
ENDBRANCH   9  11
BRANCH   8  15
ATOM     15  C15 UNL     1      68.487  58.277  96.939  0.00  0.00    +0.000 C 
ATOM     16  N2  UNL     1      69.208  58.247  96.033  0.00  0.00    +0.000 NA
ENDBRANCH   8  15
ENDBRANCH   3   5
BRANCH   1  18
ATOM     17  C1  UNL     1      61.331  58.945 102.349  0.00  0.00    +0.000 C 
ATOM     18  C2  UNL     1      62.812  59.308 102.532  0.00  0.00    +0.000 C 
BRANCH  18  19
ATOM     19  O1  UNL     1      62.878  60.704 102.722  0.00  0.00    +0.000 OA
ATOM     20  H4  UNL     1      63.832  60.975 102.730  0.00  0.00    +0.000 HD
ENDBRANCH  18  19
BRANCH  18  21
ATOM     21  C3  UNL     1      63.355  58.579 103.791  0.00  0.00    +0.000 C 
BRANCH  21  22
ATOM     22  S1  UNL     1      62.625  59.107 105.348  0.00  0.00    +0.000 S 
ATOM     23  O2  UNL     1      61.455  58.221 105.674  0.00  0.00    +0.000 OA
ATOM     24  O3  UNL     1      62.144  60.529 105.295  0.00  0.00    +0.000 OA
BRANCH  22  25
ATOM     25  C4  UNL     1      63.843  58.970 106.611  0.00  0.00    +0.000 A 
ATOM     26  C5  UNL     1      64.686  57.850 106.671  0.00  0.00    +0.000 A 
ATOM     27  C6  UNL     1      65.663  57.760 107.668  0.00  0.00    +0.000 A 
ATOM     28  C7  UNL     1      65.807  58.789 108.603  0.00  0.00    +0.000 A 
ATOM     29  F1  UNL     1      66.757  58.701 109.567  0.00  0.00    +0.000 F 
ATOM     30  C8  UNL     1      64.975  59.911 108.542  0.00  0.00    +0.000 A 
ATOM     31  C9  UNL     1      63.997  60.003 107.548  0.00  0.00    +0.000 A 
ENDBRANCH  22  25
ENDBRANCH  21  22
ENDBRANCH  18  21
ENDBRANCH   1  18
TORSDOF 8
ENDMDL
MODEL 15
REMARK VINA RESULT:      -6.9      4.360      9.810
REMARK  Name = ./S1190.pdb
REMARK  9 active torsions:
REMARK  status: ('A' for Active; 'I' for Inactive)
REMARK    1  A    between atoms: C1_1  and  C2_2
REMARK    2  A    between atoms: C2_2  and  O1_3
REMARK    3  A    between atoms: C2_2  and  C3_4
REMARK    4  A    between atoms: C2_2  and  C10_15
REMARK    5  A    between atoms: C3_4  and  S1_5
REMARK    6  A    between atoms: S1_5  and  C4_8
REMARK    7  A    between atoms: N1_17  and  C11_18
REMARK    8  A    between atoms: C14_21  and  C15_22
REMARK    9  A    between atoms: C16_24  and  C18_26
REMARK                            x       y       z     vdW  Elec       q    Type
REMARK                         _______ _______ _______ _____ _____    ______ ____
ROOT
ATOM      1  C10 UNL     1      63.213  58.695 106.966  0.00  0.00    +0.000 C 
ATOM      2  O4  UNL     1      64.146  58.027 106.444  0.00  0.00    +0.000 OA
ATOM      3  N1  UNL     1      62.439  59.596 106.154  0.00  0.00    +0.000 N 
ATOM      4  H11 UNL     1      62.011  60.429 106.619  0.00  0.00    +0.000 HD
ENDROOT
BRANCH   3   5
ATOM      5  C11 UNL     1      62.268  59.465 104.732  0.00  0.00    +0.000 A 
ATOM      6  C12 UNL     1      62.965  60.285 103.830  0.00  0.00    +0.000 A 
ATOM      7  C13 UNL     1      62.812  60.110 102.454  0.00  0.00    +0.000 A 
ATOM      8  C14 UNL     1      61.971  59.108 101.954  0.00  0.00    +0.000 A 
ATOM      9  C16 UNL     1      61.275  58.259 102.845  0.00  0.00    +0.000 A 
ATOM     10  C17 UNL     1      61.441  58.448 104.232  0.00  0.00    +0.000 A 
BRANCH   9  11
ATOM     11  C18 UNL     1      60.369  57.159 102.325  0.00  0.00    +0.000 C 
ATOM     12  F2  UNL     1      61.114  56.255 101.590  0.00  0.00    +0.000 F 
ATOM     13  F3  UNL     1      59.366  57.657 101.512  0.00  0.00    +0.000 F 
ATOM     14  F4  UNL     1      59.780  56.503 103.390  0.00  0.00    +0.000 F 
ENDBRANCH   9  11
BRANCH   8  15
ATOM     15  C15 UNL     1      61.849  58.966 100.522  0.00  0.00    +0.000 C 
ATOM     16  N2  UNL     1      61.753  58.850  99.374  0.00  0.00    +0.000 NA
ENDBRANCH   8  15
ENDBRANCH   3   5
BRANCH   1  18
ATOM     17  C1  UNL     1      64.335  58.302 109.134  0.00  0.00    +0.000 C 
ATOM     18  C2  UNL     1      62.987  58.617 108.469  0.00  0.00    +0.000 C 
BRANCH  18  19
ATOM     19  O1  UNL     1      62.108  57.562 108.789  0.00  0.00    +0.000 OA
ATOM     20  H4  UNL     1      61.943  57.030 107.968  0.00  0.00    +0.000 HD
ENDBRANCH  18  19
BRANCH  18  21
ATOM     21  C3  UNL     1      62.441  59.951 109.049  0.00  0.00    +0.000 C 
BRANCH  21  22
ATOM     22  S1  UNL     1      61.307  59.769 110.433  0.00  0.00    +0.000 S 
ATOM     23  O2  UNL     1      61.971  58.968 111.518  0.00  0.00    +0.000 OA
ATOM     24  O3  UNL     1      60.037  59.070 110.037  0.00  0.00    +0.000 OA
BRANCH  22  25
ATOM     25  C4  UNL     1      60.903  61.372 111.039  0.00  0.00    +0.000 A 
ATOM     26  C5  UNL     1      60.572  61.561 112.389  0.00  0.00    +0.000 A 
ATOM     27  C6  UNL     1      60.271  62.841 112.865  0.00  0.00    +0.000 A 
ATOM     28  C7  UNL     1      60.307  63.937 111.997  0.00  0.00    +0.000 A 
ATOM     29  F1  UNL     1      60.018  65.178 112.460  0.00  0.00    +0.000 F 
ATOM     30  C8  UNL     1      60.645  63.754 110.652  0.00  0.00    +0.000 A 
ATOM     31  C9  UNL     1      60.945  62.476 110.174  0.00  0.00    +0.000 A 
ENDBRANCH  22  25
ENDBRANCH  21  22
ENDBRANCH  18  21
ENDBRANCH   1  18
TORSDOF 8
ENDMDL
MODEL 16
REMARK VINA RESULT:      -6.8     11.552     14.383
REMARK  Name = ./S1190.pdb
REMARK  9 active torsions:
REMARK  status: ('A' for Active; 'I' for Inactive)
REMARK    1  A    between atoms: C1_1  and  C2_2
REMARK    2  A    between atoms: C2_2  and  O1_3
REMARK    3  A    between atoms: C2_2  and  C3_4
REMARK    4  A    between atoms: C2_2  and  C10_15
REMARK    5  A    between atoms: C3_4  and  S1_5
REMARK    6  A    between atoms: S1_5  and  C4_8
REMARK    7  A    between atoms: N1_17  and  C11_18
REMARK    8  A    between atoms: C14_21  and  C15_22
REMARK    9  A    between atoms: C16_24  and  C18_26
REMARK                            x       y       z     vdW  Elec       q    Type
REMARK                         _______ _______ _______ _____ _____    ______ ____
ROOT
ATOM      1  C10 UNL     1      70.593  62.377 101.657  0.00  0.00    +0.000 C 
ATOM      2  O4  UNL     1      70.573  63.427 100.957  0.00  0.00    +0.000 OA
ATOM      3  N1  UNL     1      69.776  61.254 101.284  0.00  0.00    +0.000 N 
ATOM      4  H11 UNL     1      69.453  60.610 102.041  0.00  0.00    +0.000 HD
ENDROOT
BRANCH   3   5
ATOM      5  C11 UNL     1      69.318  60.992  99.945  0.00  0.00    +0.000 A 
ATOM      6  C12 UNL     1      68.019  60.522  99.692  0.00  0.00    +0.000 A 
ATOM      7  C13 UNL     1      67.587  60.314  98.382  0.00  0.00    +0.000 A 
ATOM      8  C14 UNL     1      68.436  60.582  97.302  0.00  0.00    +0.000 A 
ATOM      9  C16 UNL     1      69.742  61.075  97.534  0.00  0.00    +0.000 A 
ATOM     10  C17 UNL     1      70.163  61.280  98.863  0.00  0.00    +0.000 A 
BRANCH   9  11
ATOM     11  C18 UNL     1      70.673  61.384  96.378  0.00  0.00    +0.000 C 
ATOM     12  F2  UNL     1      71.793  62.046  96.850  0.00  0.00    +0.000 F 
ATOM     13  F3  UNL     1      70.067  62.184  95.425  0.00  0.00    +0.000 F 
ATOM     14  F4  UNL     1      71.065  60.205  95.771  0.00  0.00    +0.000 F 
ENDBRANCH   9  11
BRANCH   8  15
ATOM     15  C15 UNL     1      67.940  60.354  95.965  0.00  0.00    +0.000 C 
ATOM     16  N2  UNL     1      67.541  60.173  94.893  0.00  0.00    +0.000 NA
ENDBRANCH   8  15
ENDBRANCH   3   5
BRANCH   1  18
ATOM     17  C1  UNL     1      70.422  62.209 104.118  0.00  0.00    +0.000 C 
ATOM     18  C2  UNL     1      71.403  62.354 102.945  0.00  0.00    +0.000 C 
BRANCH  18  19
ATOM     19  O1  UNL     1      72.091  63.571 103.126  0.00  0.00    +0.000 OA
ATOM     20  H4  UNL     1      72.253  63.699 104.097  0.00  0.00    +0.000 HD
ENDBRANCH  18  19
BRANCH  18  21
ATOM     21  C3  UNL     1      72.408  61.170 102.983  0.00  0.00    +0.000 C 
BRANCH  21  22
ATOM     22  S1  UNL     1      73.730  61.257 101.767  0.00  0.00    +0.000 S 
ATOM     23  O2  UNL     1      75.016  60.796 102.397  0.00  0.00    +0.000 OA
ATOM     24  O3  UNL     1      73.932  62.653 101.248  0.00  0.00    +0.000 OA
BRANCH  22  25
ATOM     25  C4  UNL     1      73.319  60.206 100.417  0.00  0.00    +0.000 A 
ATOM     26  C5  UNL     1      73.817  60.468  99.132  0.00  0.00    +0.000 A 
ATOM     27  C6  UNL     1      73.500  59.615  98.069  0.00  0.00    +0.000 A 
ATOM     28  C7  UNL     1      72.691  58.496  98.287  0.00  0.00    +0.000 A 
ATOM     29  F1  UNL     1      72.386  57.669  97.257  0.00  0.00    +0.000 F 
ATOM     30  C8  UNL     1      72.199  58.226  99.568  0.00  0.00    +0.000 A 
ATOM     31  C9  UNL     1      72.514  59.077 100.632  0.00  0.00    +0.000 A 
ENDBRANCH  22  25
ENDBRANCH  21  22
ENDBRANCH  18  21
ENDBRANCH   1  18
TORSDOF 8
ENDMDL
MODEL 17
REMARK VINA RESULT:      -6.8      3.342      9.611
REMARK  Name = ./S1190.pdb
REMARK  9 active torsions:
REMARK  status: ('A' for Active; 'I' for Inactive)
REMARK    1  A    between atoms: C1_1  and  C2_2
REMARK    2  A    between atoms: C2_2  and  O1_3
REMARK    3  A    between atoms: C2_2  and  C3_4
REMARK    4  A    between atoms: C2_2  and  C10_15
REMARK    5  A    between atoms: C3_4  and  S1_5
REMARK    6  A    between atoms: S1_5  and  C4_8
REMARK    7  A    between atoms: N1_17  and  C11_18
REMARK    8  A    between atoms: C14_21  and  C15_22
REMARK    9  A    between atoms: C16_24  and  C18_26
REMARK                            x       y       z     vdW  Elec       q    Type
REMARK                         _______ _______ _______ _____ _____    ______ ____
ROOT
ATOM      1  C10 UNL     1      61.801  56.179 105.899  0.00  0.00    +0.000 C 
ATOM      2  O4  UNL     1      61.331  55.452 104.981  0.00  0.00    +0.000 OA
ATOM      3  N1  UNL     1      63.067  56.836 105.713  0.00  0.00    +0.000 N 
ATOM      4  H11 UNL     1      63.641  57.042 106.561  0.00  0.00    +0.000 HD
ENDROOT
BRANCH   3   5
ATOM      5  C11 UNL     1      63.629  57.168 104.431  0.00  0.00    +0.000 A 
ATOM      6  C12 UNL     1      64.515  56.302 103.770  0.00  0.00    +0.000 A 
ATOM      7  C13 UNL     1      65.015  56.631 102.509  0.00  0.00    +0.000 A 
ATOM      8  C14 UNL     1      64.632  57.822 101.881  0.00  0.00    +0.000 A 
ATOM      9  C16 UNL     1      63.725  58.699 102.521  0.00  0.00    +0.000 A 
ATOM     10  C17 UNL     1      63.229  58.353 103.794  0.00  0.00    +0.000 A 
BRANCH   9  11
ATOM     11  C18 UNL     1      63.286  59.988 101.853  0.00  0.00    +0.000 C 
ATOM     12  F2  UNL     1      62.328  59.710 100.895  0.00  0.00    +0.000 F 
ATOM     13  F3  UNL     1      64.342  60.636 101.236  0.00  0.00    +0.000 F 
ATOM     14  F4  UNL     1      62.747  60.840 102.800  0.00  0.00    +0.000 F 
ENDBRANCH   9  11
BRANCH   8  15
ATOM     15  C15 UNL     1      65.174  58.115 100.575  0.00  0.00    +0.000 C 
ATOM     16  N2  UNL     1      65.607  58.351  99.528  0.00  0.00    +0.000 NA
ENDBRANCH   8  15
ENDBRANCH   3   5
BRANCH   1  18
ATOM     17  C1  UNL     1      60.573  54.857 107.590  0.00  0.00    +0.000 C 
ATOM     18  C2  UNL     1      61.070  56.265 107.230  0.00  0.00    +0.000 C 
BRANCH  18  19
ATOM     19  O1  UNL     1      59.934  57.093 107.125  0.00  0.00    +0.000 OA
ATOM     20  H4  UNL     1      59.902  57.468 106.207  0.00  0.00    +0.000 HD
ENDBRANCH  18  19
BRANCH  18  21
ATOM     21  C3  UNL     1      61.992  56.779 108.371  0.00  0.00    +0.000 C 
BRANCH  21  22
ATOM     22  S1  UNL     1      61.852  58.536 108.727  0.00  0.00    +0.000 S 
ATOM     23  O2  UNL     1      60.584  58.789 109.495  0.00  0.00    +0.000 OA
ATOM     24  O3  UNL     1      61.822  59.368 107.476  0.00  0.00    +0.000 OA
BRANCH  22  25
ATOM     25  C4  UNL     1      63.239  59.023 109.695  0.00  0.00    +0.000 A 
ATOM     26  C5  UNL     1      64.533  58.985 109.156  0.00  0.00    +0.000 A 
ATOM     27  C6  UNL     1      65.627  59.391 109.927  0.00  0.00    +0.000 A 
ATOM     28  C7  UNL     1      65.432  59.843 111.236  0.00  0.00    +0.000 A 
ATOM     29  F1  UNL     1      66.493  60.239 111.982  0.00  0.00    +0.000 F 
ATOM     30  C8  UNL     1      64.142  59.890 111.774  0.00  0.00    +0.000 A 
ATOM     31  C9  UNL     1      63.048  59.483 111.006  0.00  0.00    +0.000 A 
ENDBRANCH  22  25
ENDBRANCH  21  22
ENDBRANCH  18  21
ENDBRANCH   1  18
TORSDOF 8
ENDMDL
MODEL 18
REMARK VINA RESULT:      -6.8     11.727     15.036
REMARK  Name = ./S1190.pdb
REMARK  9 active torsions:
REMARK  status: ('A' for Active; 'I' for Inactive)
REMARK    1  A    between atoms: C1_1  and  C2_2
REMARK    2  A    between atoms: C2_2  and  O1_3
REMARK    3  A    between atoms: C2_2  and  C3_4
REMARK    4  A    between atoms: C2_2  and  C10_15
REMARK    5  A    between atoms: C3_4  and  S1_5
REMARK    6  A    between atoms: S1_5  and  C4_8
REMARK    7  A    between atoms: N1_17  and  C11_18
REMARK    8  A    between atoms: C14_21  and  C15_22
REMARK    9  A    between atoms: C16_24  and  C18_26
REMARK                            x       y       z     vdW  Elec       q    Type
REMARK                         _______ _______ _______ _____ _____    ______ ____
ROOT
ATOM      1  C10 UNL     1      71.122  67.826 108.132  0.00  0.00    +0.000 C 
ATOM      2  O4  UNL     1      72.076  68.604 108.410  0.00  0.00    +0.000 OA
ATOM      3  N1  UNL     1      70.091  68.256 107.226  0.00  0.00    +0.000 N 
ATOM      4  H11 UNL     1      69.137  67.843 107.339  0.00  0.00    +0.000 HD
ENDROOT
BRANCH   3   5
ATOM      5  C11 UNL     1      70.265  69.267 106.217  0.00  0.00    +0.000 A 
ATOM      6  C12 UNL     1      71.354  69.239 105.330  0.00  0.00    +0.000 A 
ATOM      7  C13 UNL     1      71.478  70.209 104.335  0.00  0.00    +0.000 A 
ATOM      8  C14 UNL     1      70.516  71.216 104.200  0.00  0.00    +0.000 A 
ATOM      9  C16 UNL     1      69.401  71.251 105.071  0.00  0.00    +0.000 A 
ATOM     10  C17 UNL     1      69.290  70.264 106.070  0.00  0.00    +0.000 A 
BRANCH   9  11
ATOM     11  C18 UNL     1      68.340  72.325 104.933  0.00  0.00    +0.000 C 
ATOM     12  F2  UNL     1      67.667  72.162 103.735  0.00  0.00    +0.000 F 
ATOM     13  F3  UNL     1      68.886  73.597 104.954  0.00  0.00    +0.000 F 
ATOM     14  F4  UNL     1      67.439  72.222 105.978  0.00  0.00    +0.000 F 
ENDBRANCH   9  11
BRANCH   8  15
ATOM     15  C15 UNL     1      70.688  72.194 103.152  0.00  0.00    +0.000 C 
ATOM     16  N2  UNL     1      70.826  72.980 102.313  0.00  0.00    +0.000 NA
ENDBRANCH   8  15
ENDBRANCH   3   5
BRANCH   1  18
ATOM     17  C1  UNL     1      70.209  65.535 107.945  0.00  0.00    +0.000 C 
ATOM     18  C2  UNL     1      71.023  66.483 108.840  0.00  0.00    +0.000 C 
BRANCH  18  19
ATOM     19  O1  UNL     1      70.323  66.609 110.057  0.00  0.00    +0.000 OA
ATOM     20  H4  UNL     1      70.821  67.236 110.643  0.00  0.00    +0.000 HD
ENDBRANCH  18  19
BRANCH  18  21
ATOM     21  C3  UNL     1      72.419  65.853 109.098  0.00  0.00    +0.000 C 
BRANCH  21  22
ATOM     22  S1  UNL     1      72.519  64.800 110.553  0.00  0.00    +0.000 S 
ATOM     23  O2  UNL     1      73.345  63.585 110.232  0.00  0.00    +0.000 OA
ATOM     24  O3  UNL     1      71.165  64.343 111.017  0.00  0.00    +0.000 OA
BRANCH  22  25
ATOM     25  C4  UNL     1      73.282  65.711 111.851  0.00  0.00    +0.000 A 
ATOM     26  C5  UNL     1      74.372  66.554 111.585  0.00  0.00    +0.000 A 
ATOM     27  C6  UNL     1      74.959  67.288 112.621  0.00  0.00    +0.000 A 
ATOM     28  C7  UNL     1      74.458  67.189 113.922  0.00  0.00    +0.000 A 
ATOM     29  F1  UNL     1      75.027  67.904 114.924  0.00  0.00    +0.000 F 
ATOM     30  C8  UNL     1      73.367  66.356 114.190  0.00  0.00    +0.000 A 
ATOM     31  C9  UNL     1      72.779  65.621 113.157  0.00  0.00    +0.000 A 
ENDBRANCH  22  25
ENDBRANCH  21  22
ENDBRANCH  18  21
ENDBRANCH   1  18
TORSDOF 8
ENDMDL
MODEL 19
REMARK VINA RESULT:      -6.7      2.362      2.875
REMARK  Name = ./S1190.pdb
REMARK  9 active torsions:
REMARK  status: ('A' for Active; 'I' for Inactive)
REMARK    1  A    between atoms: C1_1  and  C2_2
REMARK    2  A    between atoms: C2_2  and  O1_3
REMARK    3  A    between atoms: C2_2  and  C3_4
REMARK    4  A    between atoms: C2_2  and  C10_15
REMARK    5  A    between atoms: C3_4  and  S1_5
REMARK    6  A    between atoms: S1_5  and  C4_8
REMARK    7  A    between atoms: N1_17  and  C11_18
REMARK    8  A    between atoms: C14_21  and  C15_22
REMARK    9  A    between atoms: C16_24  and  C18_26
REMARK                            x       y       z     vdW  Elec       q    Type
REMARK                         _______ _______ _______ _____ _____    ______ ____
ROOT
ATOM      1  C10 UNL     1      64.101  59.599 109.202  0.00  0.00    +0.000 C 
ATOM      2  O4  UNL     1      64.896  59.573 110.181  0.00  0.00    +0.000 OA
ATOM      3  N1  UNL     1      62.682  59.536 109.433  0.00  0.00    +0.000 N 
ATOM      4  H11 UNL     1      62.083  59.120 108.684  0.00  0.00    +0.000 HD
ENDROOT
BRANCH   3   5
ATOM      5  C11 UNL     1      62.038  59.946 110.653  0.00  0.00    +0.000 A 
ATOM      6  C12 UNL     1      61.463  61.219 110.787  0.00  0.00    +0.000 A 
ATOM      7  C13 UNL     1      60.810  61.577 111.967  0.00  0.00    +0.000 A 
ATOM      8  C14 UNL     1      60.710  60.670 113.028  0.00  0.00    +0.000 A 
ATOM      9  C16 UNL     1      61.266  59.375 112.906  0.00  0.00    +0.000 A 
ATOM     10  C17 UNL     1      61.922  59.028 111.707  0.00  0.00    +0.000 A 
BRANCH   9  11
ATOM     11  C18 UNL     1      61.158  58.371 114.037  0.00  0.00    +0.000 C 
ATOM     12  F2  UNL     1      59.825  58.101 114.291  0.00  0.00    +0.000 F 
ATOM     13  F3  UNL     1      61.734  58.843 115.204  0.00  0.00    +0.000 F 
ATOM     14  F4  UNL     1      61.798  57.199 113.679  0.00  0.00    +0.000 F 
ENDBRANCH   9  11
BRANCH   8  15
ATOM     15  C15 UNL     1      60.021  61.087 114.226  0.00  0.00    +0.000 C 
ATOM     16  N2  UNL     1      59.469  61.423 115.187  0.00  0.00    +0.000 NA
ENDBRANCH   8  15
ENDBRANCH   3   5
BRANCH   1  18
ATOM     17  C1  UNL     1      66.135  59.177 107.862  0.00  0.00    +0.000 C 
ATOM     18  C2  UNL     1      64.658  59.590 107.787  0.00  0.00    +0.000 C 
BRANCH  18  19
ATOM     19  O1  UNL     1      64.616  60.883 107.224  0.00  0.00    +0.000 OA
ATOM     20  H4  UNL     1      65.533  61.262 107.239  0.00  0.00    +0.000 HD
ENDBRANCH  18  19
BRANCH  18  21
ATOM     21  C3  UNL     1      63.904  58.591 106.867  0.00  0.00    +0.000 C 
BRANCH  21  22
ATOM     22  S1  UNL     1      62.288  59.147 106.305  0.00  0.00    +0.000 S 
ATOM     23  O2  UNL     1      61.991  60.495 106.902  0.00  0.00    +0.000 OA
ATOM     24  O3  UNL     1      61.192  58.200 106.704  0.00  0.00    +0.000 OA
BRANCH  22  25
ATOM     25  C4  UNL     1      62.319  59.268 104.550  0.00  0.00    +0.000 A 
ATOM     26  C5  UNL     1      61.576  58.378 103.760  0.00  0.00    +0.000 A 
ATOM     27  C6  UNL     1      61.592  58.494 102.366  0.00  0.00    +0.000 A 
ATOM     28  C7  UNL     1      62.343  59.504 101.757  0.00  0.00    +0.000 A 
ATOM     29  F1  UNL     1      62.355  59.618 100.405  0.00  0.00    +0.000 F 
ATOM     30  C8  UNL     1      63.078  60.399 102.540  0.00  0.00    +0.000 A 
ATOM     31  C9  UNL     1      63.064  60.284 103.933  0.00  0.00    +0.000 A 
ENDBRANCH  22  25
ENDBRANCH  21  22
ENDBRANCH  18  21
ENDBRANCH   1  18
TORSDOF 8
ENDMDL
MODEL 20
REMARK VINA RESULT:      -6.7      3.086      9.607
REMARK  Name = ./S1190.pdb
REMARK  9 active torsions:
REMARK  status: ('A' for Active; 'I' for Inactive)
REMARK    1  A    between atoms: C1_1  and  C2_2
REMARK    2  A    between atoms: C2_2  and  O1_3
REMARK    3  A    between atoms: C2_2  and  C3_4
REMARK    4  A    between atoms: C2_2  and  C10_15
REMARK    5  A    between atoms: C3_4  and  S1_5
REMARK    6  A    between atoms: S1_5  and  C4_8
REMARK    7  A    between atoms: N1_17  and  C11_18
REMARK    8  A    between atoms: C14_21  and  C15_22
REMARK    9  A    between atoms: C16_24  and  C18_26
REMARK                            x       y       z     vdW  Elec       q    Type
REMARK                         _______ _______ _______ _____ _____    ______ ____
ROOT
ATOM      1  C10 UNL     1      64.707  57.901 107.312  0.00  0.00    +0.000 C 
ATOM      2  O4  UNL     1      65.554  57.116 106.803  0.00  0.00    +0.000 OA
ATOM      3  N1  UNL     1      63.795  58.617 106.461  0.00  0.00    +0.000 N 
ATOM      4  H11 UNL     1      63.435  59.539 106.795  0.00  0.00    +0.000 HD
ENDROOT
BRANCH   3   5
ATOM      5  C11 UNL     1      63.395  58.180 105.150  0.00  0.00    +0.000 A 
ATOM      6  C12 UNL     1      62.911  56.881 104.924  0.00  0.00    +0.000 A 
ATOM      7  C13 UNL     1      62.493  56.496 103.650  0.00  0.00    +0.000 A 
ATOM      8  C14 UNL     1      62.539  57.400 102.582  0.00  0.00    +0.000 A 
ATOM      9  C16 UNL     1      63.006  58.719 102.792  0.00  0.00    +0.000 A 
ATOM     10  C17 UNL     1      63.424  59.093 104.085  0.00  0.00    +0.000 A 
BRANCH   9  11
ATOM     11  C18 UNL     1      63.052  59.719 101.653  0.00  0.00    +0.000 C 
ATOM     12  F2  UNL     1      64.045  59.358 100.760  0.00  0.00    +0.000 F 
ATOM     13  F3  UNL     1      63.317  61.001 102.101  0.00  0.00    +0.000 F 
ATOM     14  F4  UNL     1      61.834  59.730 100.998  0.00  0.00    +0.000 F 
ENDBRANCH   9  11
BRANCH   8  15
ATOM     15  C15 UNL     1      62.092  56.953 101.284  0.00  0.00    +0.000 C 
ATOM     16  N2  UNL     1      61.733  56.594 100.244  0.00  0.00    +0.000 NA
ENDBRANCH   8  15
ENDBRANCH   3   5
BRANCH   1  18
ATOM     17  C1  UNL     1      66.203  58.217 109.256  0.00  0.00    +0.000 C 
ATOM     18  C2  UNL     1      64.734  58.158 108.811  0.00  0.00    +0.000 C 
BRANCH  18  19
ATOM     19  O1  UNL     1      64.129  57.095 109.513  0.00  0.00    +0.000 OA
ATOM     20  H4  UNL     1      63.491  56.639 108.904  0.00  0.00    +0.000 HD
ENDBRANCH  18  19
BRANCH  18  21
ATOM     21  C3  UNL     1      64.042  59.497 109.188  0.00  0.00    +0.000 C 
BRANCH  21  22
ATOM     22  S1  UNL     1      62.283  59.371 109.542  0.00  0.00    +0.000 S 
ATOM     23  O2  UNL     1      61.700  58.228 108.758  0.00  0.00    +0.000 OA
ATOM     24  O3  UNL     1      61.540  60.624 109.177  0.00  0.00    +0.000 OA
BRANCH  22  25
ATOM     25  C4  UNL     1      62.080  59.074 111.264  0.00  0.00    +0.000 A 
ATOM     26  C5  UNL     1      63.004  59.583 112.189  0.00  0.00    +0.000 A 
ATOM     27  C6  UNL     1      62.823  59.358 113.558  0.00  0.00    +0.000 A 
ATOM     28  C7  UNL     1      61.716  58.631 114.008  0.00  0.00    +0.000 A 
ATOM     29  F1  UNL     1      61.541  58.415 115.335  0.00  0.00    +0.000 F 
ATOM     30  C8  UNL     1      60.789  58.129 113.090  0.00  0.00    +0.000 A 
ATOM     31  C9  UNL     1      60.968  58.352 111.722  0.00  0.00    +0.000 A 
ENDBRANCH  22  25
ENDBRANCH  21  22
ENDBRANCH  18  21
ENDBRANCH   1  18
TORSDOF 8
ENDMDL
