MODEL 1
REMARK VINA RESULT:      -9.3      0.000      0.000
REMARK  Name = ./S1202.pdb
REMARK  6 active torsions:
REMARK  status: ('A' for Active; 'I' for Inactive)
REMARK    1  A    between atoms: C1_1  and  C2_2
REMARK    2  A    between atoms: C13_15  and  C14_16
REMARK    3  A    between atoms: C18_20  and  C19_21
REMARK    4  A    between atoms: N2_23  and  C20_24
REMARK    5  A    between atoms: C22_26  and  C27_34
REMARK    6  A    between atoms: C25_29  and  C26_30
REMARK                            x       y       z     vdW  Elec       q    Type
REMARK                         _______ _______ _______ _____ _____    ______ ____
ROOT
ATOM      1  C1  UNL     1      62.088  59.296 108.165  0.00  0.00    +0.000 C 
ATOM      2  C2  UNL     1      63.451  59.110 107.439  0.00  0.00    +0.000 C 
ATOM      3  C3  UNL     1      63.516  60.025 106.153  0.00  0.00    +0.000 C 
ATOM      4  C4  UNL     1      63.273  59.308 104.802  0.00  0.00    +0.000 C 
ATOM      5  C5  UNL     1      62.259  58.162 104.962  0.00  0.00    +0.000 C 
ATOM      6  C6  UNL     1      62.891  57.049 105.867  0.00  0.00    +0.000 C 
ATOM      7  C7  UNL     1      63.690  55.969 105.073  0.00  0.00    +0.000 C 
ATOM      8  C8  UNL     1      62.973  55.456 103.827  0.00  0.00    +0.000 C 
ATOM      9  C9  UNL     1      62.604  56.641 102.928  0.00  0.00    +0.000 C 
ATOM     10  N1  UNL     1      62.055  56.199 101.644  0.00  0.00    +0.000 N 
ATOM     11  C10 UNL     1      61.451  57.177 100.793  0.00  0.00    +0.000 C 
ATOM     12  O1  UNL     1      61.192  56.905  99.592  0.00  0.00    +0.000 OA
ATOM     13  C11 UNL     1      61.123  58.500 101.348  0.00  0.00    +0.000 C 
ATOM     14  C12 UNL     1      61.241  58.726 102.664  0.00  0.00    +0.000 C 
ATOM     15  C13 UNL     1      61.614  57.608 103.637  0.00  0.00    +0.000 C 
ATOM     16  C14 UNL     1      60.275  56.893 103.981  0.00  0.00    +0.000 C 
ATOM     17  C15 UNL     1      63.726  57.630 107.078  0.00  0.00    +0.000 C 
ATOM     18  C16 UNL     1      65.264  57.576 106.951  0.00  0.00    +0.000 C 
ATOM     19  C17 UNL     1      65.830  58.637 107.890  0.00  0.00    +0.000 C 
ATOM     20  C18 UNL     1      64.640  59.467 108.390  0.00  0.00    +0.000 C 
ATOM     21  H15 UNL     1      62.144  55.208 101.325  0.00  0.00    +0.000 HD
ENDROOT
BRANCH  20  22
ATOM     22  C19 UNL     1      64.387  59.177 109.862  0.00  0.00    +0.000 C 
ATOM     23  O2  UNL     1      64.350  57.985 110.274  0.00  0.00    +0.000 OA
ATOM     24  N2  UNL     1      64.198  60.257 110.786  0.00  0.00    +0.000 N 
ATOM     25  H27 UNL     1      64.264  61.243 110.443  0.00  0.00    +0.000 HD
BRANCH  24  26
ATOM     26  C20 UNL     1      64.220  60.042 112.202  0.00  0.00    +0.000 A 
ATOM     27  C21 UNL     1      65.460  59.988 112.851  0.00  0.00    +0.000 A 
ATOM     28  C22 UNL     1      65.542  59.732 114.229  0.00  0.00    +0.000 A 
ATOM     29  C23 UNL     1      64.356  59.575 114.961  0.00  0.00    +0.000 A 
ATOM     30  C24 UNL     1      63.114  59.642 114.326  0.00  0.00    +0.000 A 
ATOM     31  C25 UNL     1      63.024  59.899 112.946  0.00  0.00    +0.000 A 
BRANCH  31  32
ATOM     32  C26 UNL     1      61.667  59.964 112.279  0.00  0.00    +0.000 C 
ATOM     33  F1  UNL     1      61.548  61.099 111.495  0.00  0.00    +0.000 F 
ATOM     34  F2  UNL     1      61.474  58.865 111.461  0.00  0.00    +0.000 F 
ATOM     35  F3  UNL     1      60.681  59.992 113.247  0.00  0.00    +0.000 F 
ENDBRANCH  31  32
BRANCH  28  36
ATOM     36  C27 UNL     1      66.877  59.716 114.928  0.00  0.00    +0.000 C 
ATOM     37  F4  UNL     1      67.052  60.871 115.671  0.00  0.00    +0.000 F 
ATOM     38  F5  UNL     1      67.884  59.630 113.985  0.00  0.00    +0.000 F 
ATOM     39  F6  UNL     1      66.969  58.633 115.787  0.00  0.00    +0.000 F 
ENDBRANCH  28  36
ENDBRANCH  24  26
ENDBRANCH  20  22
TORSDOF 4
ENDMDL
MODEL 2
REMARK VINA RESULT:      -8.7      5.106     10.139
REMARK  Name = ./S1202.pdb
REMARK  6 active torsions:
REMARK  status: ('A' for Active; 'I' for Inactive)
REMARK    1  A    between atoms: C1_1  and  C2_2
REMARK    2  A    between atoms: C13_15  and  C14_16
REMARK    3  A    between atoms: C18_20  and  C19_21
REMARK    4  A    between atoms: N2_23  and  C20_24
REMARK    5  A    between atoms: C22_26  and  C27_34
REMARK    6  A    between atoms: C25_29  and  C26_30
REMARK                            x       y       z     vdW  Elec       q    Type
REMARK                         _______ _______ _______ _____ _____    ______ ____
ROOT
ATOM      1  C1  UNL     1      61.759  56.938 107.809  0.00  0.00    +0.000 C 
ATOM      2  C2  UNL     1      62.839  58.017 108.108  0.00  0.00    +0.000 C 
ATOM      3  C3  UNL     1      63.627  57.651 109.427  0.00  0.00    +0.000 C 
ATOM      4  C4  UNL     1      63.217  58.436 110.698  0.00  0.00    +0.000 C 
ATOM      5  C5  UNL     1      61.711  58.755 110.685  0.00  0.00    +0.000 C 
ATOM      6  C6  UNL     1      61.416  59.757 109.515  0.00  0.00    +0.000 C 
ATOM      7  C7  UNL     1      61.532  61.257 109.927  0.00  0.00    +0.000 C 
ATOM      8  C8  UNL     1      60.850  61.594 111.251  0.00  0.00    +0.000 C 
ATOM      9  C9  UNL     1      61.395  60.677 112.352  0.00  0.00    +0.000 C 
ATOM     10  N1  UNL     1      60.895  61.057 113.674  0.00  0.00    +0.000 N 
ATOM     11  C10 UNL     1      61.124  60.165 114.767  0.00  0.00    +0.000 C 
ATOM     12  O1  UNL     1      60.941  60.547 115.953  0.00  0.00    +0.000 OA
ATOM     13  C11 UNL     1      61.562  58.788 114.486  0.00  0.00    +0.000 C 
ATOM     14  C12 UNL     1      61.589  58.336 113.223  0.00  0.00    +0.000 C 
ATOM     15  C13 UNL     1      61.075  59.183 112.060  0.00  0.00    +0.000 C 
ATOM     16  C14 UNL     1      59.539  58.934 112.011  0.00  0.00    +0.000 C 
ATOM     17  C15 UNL     1      62.237  59.440 108.201  0.00  0.00    +0.000 C 
ATOM     18  C16 UNL     1      63.442  60.356 107.897  0.00  0.00    +0.000 C 
ATOM     19  C17 UNL     1      64.375  59.579 106.972  0.00  0.00    +0.000 C 
ATOM     20  C18 UNL     1      63.847  58.138 106.919  0.00  0.00    +0.000 C 
ATOM     21  H15 UNL     1      60.428  61.978 113.837  0.00  0.00    +0.000 HD
ENDROOT
BRANCH  20  22
ATOM     22  C19 UNL     1      63.251  57.856 105.548  0.00  0.00    +0.000 C 
ATOM     23  O2  UNL     1      63.528  56.781 104.947  0.00  0.00    +0.000 OA
ATOM     24  N2  UNL     1      62.368  58.806 104.938  0.00  0.00    +0.000 N 
ATOM     25  H27 UNL     1      62.116  59.678 105.456  0.00  0.00    +0.000 HD
BRANCH  24  26
ATOM     26  C20 UNL     1      61.588  58.468 103.785  0.00  0.00    +0.000 A 
ATOM     27  C21 UNL     1      60.494  57.608 103.945  0.00  0.00    +0.000 A 
ATOM     28  C22 UNL     1      59.725  57.207 102.841  0.00  0.00    +0.000 A 
ATOM     29  C23 UNL     1      60.039  57.717 101.574  0.00  0.00    +0.000 A 
ATOM     30  C24 UNL     1      61.119  58.588 101.406  0.00  0.00    +0.000 A 
ATOM     31  C25 UNL     1      61.894  58.994 102.507  0.00  0.00    +0.000 A 
BRANCH  31  32
ATOM     32  C26 UNL     1      63.061  59.936 102.299  0.00  0.00    +0.000 C 
ATOM     33  F1  UNL     1      63.024  60.509 101.040  0.00  0.00    +0.000 F 
ATOM     34  F2  UNL     1      63.031  60.960 103.229  0.00  0.00    +0.000 F 
ATOM     35  F3  UNL     1      64.245  59.235 102.430  0.00  0.00    +0.000 F 
ENDBRANCH  31  32
BRANCH  28  36
ATOM     36  C27 UNL     1      58.525  56.314 103.027  0.00  0.00    +0.000 C 
ATOM     37  F4  UNL     1      58.337  55.512 101.913  0.00  0.00    +0.000 F 
ATOM     38  F5  UNL     1      57.400  57.096 103.213  0.00  0.00    +0.000 F 
ATOM     39  F6  UNL     1      58.690  55.491 104.128  0.00  0.00    +0.000 F 
ENDBRANCH  28  36
ENDBRANCH  24  26
ENDBRANCH  20  22
TORSDOF 4
ENDMDL
MODEL 3
REMARK VINA RESULT:      -8.7     10.771     13.225
REMARK  Name = ./S1202.pdb
REMARK  6 active torsions:
REMARK  status: ('A' for Active; 'I' for Inactive)
REMARK    1  A    between atoms: C1_1  and  C2_2
REMARK    2  A    between atoms: C13_15  and  C14_16
REMARK    3  A    between atoms: C18_20  and  C19_21
REMARK    4  A    between atoms: N2_23  and  C20_24
REMARK    5  A    between atoms: C22_26  and  C27_34
REMARK    6  A    between atoms: C25_29  and  C26_30
REMARK                            x       y       z     vdW  Elec       q    Type
REMARK                         _______ _______ _______ _____ _____    ______ ____
ROOT
ATOM      1  C1  UNL     1      70.721  66.081 108.626  0.00  0.00    +0.000 C 
ATOM      2  C2  UNL     1      72.130  66.591 108.207  0.00  0.00    +0.000 C 
ATOM      3  C3  UNL     1      72.482  67.922 108.979  0.00  0.00    +0.000 C 
ATOM      4  C4  UNL     1      72.323  69.234 108.170  0.00  0.00    +0.000 C 
ATOM      5  C5  UNL     1      71.153  69.128 107.176  0.00  0.00    +0.000 C 
ATOM      6  C6  UNL     1      71.509  68.058 106.087  0.00  0.00    +0.000 C 
ATOM      7  C7  UNL     1      72.253  68.644 104.847  0.00  0.00    +0.000 C 
ATOM      8  C8  UNL     1      71.642  69.934 104.307  0.00  0.00    +0.000 C 
ATOM      9  C9  UNL     1      71.553  70.967 105.435  0.00  0.00    +0.000 C 
ATOM     10  N1  UNL     1      71.120  72.276 104.942  0.00  0.00    +0.000 N 
ATOM     11  C10 UNL     1      70.768  73.278 105.900  0.00  0.00    +0.000 C 
ATOM     12  O1  UNL     1      70.632  74.479 105.546  0.00  0.00    +0.000 OA
ATOM     13  C11 UNL     1      70.549  72.882 107.300  0.00  0.00    +0.000 C 
ATOM     14  C12 UNL     1      70.525  71.584 107.635  0.00  0.00    +0.000 C 
ATOM     15  C13 UNL     1      70.617  70.483 106.580  0.00  0.00    +0.000 C 
ATOM     16  C14 UNL     1      69.161  70.275 106.068  0.00  0.00    +0.000 C 
ATOM     17  C15 UNL     1      72.250  66.791 106.677  0.00  0.00    +0.000 C 
ATOM     18  C16 UNL     1      73.770  66.697 106.425  0.00  0.00    +0.000 C 
ATOM     19  C17 UNL     1      74.346  65.773 107.495  0.00  0.00    +0.000 C 
ATOM     20  C18 UNL     1      73.222  65.513 108.508  0.00  0.00    +0.000 C 
ATOM     21  H15 UNL     1      71.118  72.501 103.921  0.00  0.00    +0.000 HD
ENDROOT
BRANCH  20  22
ATOM     22  C19 UNL     1      72.745  64.073 108.393  0.00  0.00    +0.000 C 
ATOM     23  O2  UNL     1      72.146  63.527 109.360  0.00  0.00    +0.000 OA
ATOM     24  N2  UNL     1      72.968  63.335 107.184  0.00  0.00    +0.000 N 
ATOM     25  H27 UNL     1      73.435  63.806 106.375  0.00  0.00    +0.000 HD
BRANCH  24  26
ATOM     26  C20 UNL     1      72.314  62.085 106.940  0.00  0.00    +0.000 A 
ATOM     27  C21 UNL     1      72.814  60.935 107.564  0.00  0.00    +0.000 A 
ATOM     28  C22 UNL     1      72.240  59.677 107.323  0.00  0.00    +0.000 A 
ATOM     29  C23 UNL     1      71.123  59.591 106.480  0.00  0.00    +0.000 A 
ATOM     30  C24 UNL     1      70.607  60.734 105.864  0.00  0.00    +0.000 A 
ATOM     31  C25 UNL     1      71.177  61.998 106.101  0.00  0.00    +0.000 A 
BRANCH  31  32
ATOM     32  C26 UNL     1      70.602  63.222 105.421  0.00  0.00    +0.000 C 
ATOM     33  F1  UNL     1      71.600  63.988 104.843  0.00  0.00    +0.000 F 
ATOM     34  F2  UNL     1      69.721  62.854 104.420  0.00  0.00    +0.000 F 
ATOM     35  F3  UNL     1      69.937  63.996 106.353  0.00  0.00    +0.000 F 
ENDBRANCH  31  32
BRANCH  28  36
ATOM     36  C27 UNL     1      72.757  58.449 108.030  0.00  0.00    +0.000 C 
ATOM     37  F4  UNL     1      74.110  58.280 107.786  0.00  0.00    +0.000 F 
ATOM     38  F5  UNL     1      72.074  57.338 107.571  0.00  0.00    +0.000 F 
ATOM     39  F6  UNL     1      72.575  58.557 109.398  0.00  0.00    +0.000 F 
ENDBRANCH  28  36
ENDBRANCH  24  26
ENDBRANCH  20  22
TORSDOF 4
ENDMDL
MODEL 4
REMARK VINA RESULT:      -8.2     12.528     15.590
REMARK  Name = ./S1202.pdb
REMARK  6 active torsions:
REMARK  status: ('A' for Active; 'I' for Inactive)
REMARK    1  A    between atoms: C1_1  and  C2_2
REMARK    2  A    between atoms: C13_15  and  C14_16
REMARK    3  A    between atoms: C18_20  and  C19_21
REMARK    4  A    between atoms: N2_23  and  C20_24
REMARK    5  A    between atoms: C22_26  and  C27_34
REMARK    6  A    between atoms: C25_29  and  C26_30
REMARK                            x       y       z     vdW  Elec       q    Type
REMARK                         _______ _______ _______ _____ _____    ______ ____
ROOT
ATOM      1  C1  UNL     1      74.733  61.702 114.047  0.00  0.00    +0.000 C 
ATOM      2  C2  UNL     1      74.542  63.094 114.714  0.00  0.00    +0.000 C 
ATOM      3  C3  UNL     1      73.024  63.523 114.662  0.00  0.00    +0.000 C 
ATOM      4  C4  UNL     1      72.652  64.558 113.571  0.00  0.00    +0.000 C 
ATOM      5  C5  UNL     1      73.507  64.356 112.307  0.00  0.00    +0.000 C 
ATOM      6  C6  UNL     1      75.000  64.693 112.649  0.00  0.00    +0.000 C 
ATOM      7  C7  UNL     1      75.374  66.191 112.427  0.00  0.00    +0.000 C 
ATOM      8  C8  UNL     1      74.868  66.771 111.108  0.00  0.00    +0.000 C 
ATOM      9  C9  UNL     1      73.354  66.560 111.007  0.00  0.00    +0.000 C 
ATOM     10  N1  UNL     1      72.787  67.234 109.837  0.00  0.00    +0.000 N 
ATOM     11  C10 UNL     1      71.434  66.943 109.478  0.00  0.00    +0.000 C 
ATOM     12  O1  UNL     1      70.825  67.667 108.647  0.00  0.00    +0.000 OA
ATOM     13  C11 UNL     1      70.770  65.776 110.080  0.00  0.00    +0.000 C 
ATOM     14  C12 UNL     1      71.475  64.914 110.827  0.00  0.00    +0.000 C 
ATOM     15  C13 UNL     1      72.987  65.049 110.993  0.00  0.00    +0.000 C 
ATOM     16  C14 UNL     1      73.606  64.330 109.758  0.00  0.00    +0.000 C 
ATOM     17  C15 UNL     1      75.445  64.178 114.077  0.00  0.00    +0.000 C 
ATOM     18  C16 UNL     1      75.565  65.240 115.191  0.00  0.00    +0.000 C 
ATOM     19  C17 UNL     1      75.444  64.507 116.524  0.00  0.00    +0.000 C 
ATOM     20  C18 UNL     1      75.023  63.067 116.202  0.00  0.00    +0.000 C 
ATOM     21  H15 UNL     1      73.330  67.951 109.305  0.00  0.00    +0.000 HD
ENDROOT
BRANCH  20  22
ATOM     22  C19 UNL     1      76.175  62.115 116.482  0.00  0.00    +0.000 C 
ATOM     23  O2  UNL     1      75.974  61.050 117.129  0.00  0.00    +0.000 OA
ATOM     24  N2  UNL     1      77.493  62.420 116.005  0.00  0.00    +0.000 N 
ATOM     25  H27 UNL     1      77.645  63.287 115.440  0.00  0.00    +0.000 HD
BRANCH  24  26
ATOM     26  C20 UNL     1      78.538  61.441 116.017  0.00  0.00    +0.000 A 
ATOM     27  C21 UNL     1      78.535  60.447 115.029  0.00  0.00    +0.000 A 
ATOM     28  C22 UNL     1      79.508  59.435 115.022  0.00  0.00    +0.000 A 
ATOM     29  C23 UNL     1      80.517  59.457 115.995  0.00  0.00    +0.000 A 
ATOM     30  C24 UNL     1      80.537  60.452 116.976  0.00  0.00    +0.000 A 
ATOM     31  C25 UNL     1      79.566  61.469 116.989  0.00  0.00    +0.000 A 
BRANCH  31  32
ATOM     32  C26 UNL     1      79.607  62.535 118.063  0.00  0.00    +0.000 C 
ATOM     33  F1  UNL     1      78.454  62.518 118.830  0.00  0.00    +0.000 F 
ATOM     34  F2  UNL     1      80.680  62.329 118.912  0.00  0.00    +0.000 F 
ATOM     35  F3  UNL     1      79.724  63.779 117.472  0.00  0.00    +0.000 F 
ENDBRANCH  31  32
BRANCH  28  36
ATOM     36  C27 UNL     1      79.523  58.393 113.932  0.00  0.00    +0.000 C 
ATOM     37  F4  UNL     1      80.798  57.879 113.767  0.00  0.00    +0.000 F 
ATOM     38  F5  UNL     1      79.114  58.971 112.744  0.00  0.00    +0.000 F 
ATOM     39  F6  UNL     1      78.672  57.346 114.241  0.00  0.00    +0.000 F 
ENDBRANCH  28  36
ENDBRANCH  24  26
ENDBRANCH  20  22
TORSDOF 4
ENDMDL
MODEL 5
REMARK VINA RESULT:      -8.1      2.355      4.426
REMARK  Name = ./S1202.pdb
REMARK  6 active torsions:
REMARK  status: ('A' for Active; 'I' for Inactive)
REMARK    1  A    between atoms: C1_1  and  C2_2
REMARK    2  A    between atoms: C13_15  and  C14_16
REMARK    3  A    between atoms: C18_20  and  C19_21
REMARK    4  A    between atoms: N2_23  and  C20_24
REMARK    5  A    between atoms: C22_26  and  C27_34
REMARK    6  A    between atoms: C25_29  and  C26_30
REMARK                            x       y       z     vdW  Elec       q    Type
REMARK                         _______ _______ _______ _____ _____    ______ ____
ROOT
ATOM      1  C1  UNL     1      62.578  59.955 107.209  0.00  0.00    +0.000 C 
ATOM      2  C2  UNL     1      62.674  58.415 107.411  0.00  0.00    +0.000 C 
ATOM      3  C3  UNL     1      64.040  57.872 106.833  0.00  0.00    +0.000 C 
ATOM      4  C4  UNL     1      63.959  57.176 105.451  0.00  0.00    +0.000 C 
ATOM      5  C5  UNL     1      62.879  57.828 104.570  0.00  0.00    +0.000 C 
ATOM      6  C6  UNL     1      61.473  57.556 105.209  0.00  0.00    +0.000 C 
ATOM      7  C7  UNL     1      60.801  56.237 104.716  0.00  0.00    +0.000 C 
ATOM      8  C8  UNL     1      60.874  56.028 103.206  0.00  0.00    +0.000 C 
ATOM      9  C9  UNL     1      62.335  56.107 102.751  0.00  0.00    +0.000 C 
ATOM     10  N1  UNL     1      62.485  55.758 101.336  0.00  0.00    +0.000 N 
ATOM     11  C10 UNL     1      63.745  56.006 100.707  0.00  0.00    +0.000 C 
ATOM     12  O1  UNL     1      64.005  55.504  99.582  0.00  0.00    +0.000 OA
ATOM     13  C11 UNL     1      64.724  56.869 101.386  0.00  0.00    +0.000 C 
ATOM     14  C12 UNL     1      64.377  57.536 102.496  0.00  0.00    +0.000 C 
ATOM     15  C13 UNL     1      62.946  57.510 103.030  0.00  0.00    +0.000 C 
ATOM     16  C14 UNL     1      62.189  58.621 102.246  0.00  0.00    +0.000 C 
ATOM     17  C15 UNL     1      61.473  57.665 106.787  0.00  0.00    +0.000 C 
ATOM     18  C16 UNL     1      61.435  56.338 107.575  0.00  0.00    +0.000 C 
ATOM     19  C17 UNL     1      61.991  56.626 108.966  0.00  0.00    +0.000 C 
ATOM     20  C18 UNL     1      62.570  58.047 108.928  0.00  0.00    +0.000 C 
ATOM     21  H15 UNL     1      61.715  55.290 100.806  0.00  0.00    +0.000 HD
ENDROOT
BRANCH  20  22
ATOM     22  C19 UNL     1      61.699  58.983 109.752  0.00  0.00    +0.000 C 
ATOM     23  O2  UNL     1      60.454  58.793 109.819  0.00  0.00    +0.000 OA
ATOM     24  N2  UNL     1      62.293  60.080 110.460  0.00  0.00    +0.000 N 
ATOM     25  H27 UNL     1      63.329  60.211 110.427  0.00  0.00    +0.000 HD
BRANCH  24  26
ATOM     26  C20 UNL     1      61.559  60.817 111.445  0.00  0.00    +0.000 A 
ATOM     27  C21 UNL     1      60.745  61.875 111.020  0.00  0.00    +0.000 A 
ATOM     28  C22 UNL     1      60.042  62.661 111.947  0.00  0.00    +0.000 A 
ATOM     29  C23 UNL     1      60.128  62.342 113.310  0.00  0.00    +0.000 A 
ATOM     30  C24 UNL     1      60.925  61.280 113.742  0.00  0.00    +0.000 A 
ATOM     31  C25 UNL     1      61.632  60.489 112.820  0.00  0.00    +0.000 A 
BRANCH  31  32
ATOM     32  C26 UNL     1      62.492  59.344 113.313  0.00  0.00    +0.000 C 
ATOM     33  F1  UNL     1      63.793  59.463 112.857  0.00  0.00    +0.000 F 
ATOM     34  F2  UNL     1      62.530  59.325 114.695  0.00  0.00    +0.000 F 
ATOM     35  F3  UNL     1      61.971  58.149 112.854  0.00  0.00    +0.000 F 
ENDBRANCH  31  32
BRANCH  28  36
ATOM     36  C27 UNL     1      59.136  63.772 111.479  0.00  0.00    +0.000 C 
ATOM     37  F4  UNL     1      58.705  63.538 110.184  0.00  0.00    +0.000 F 
ATOM     38  F5  UNL     1      59.827  64.968 111.514  0.00  0.00    +0.000 F 
ATOM     39  F6  UNL     1      58.021  63.871 112.294  0.00  0.00    +0.000 F 
ENDBRANCH  28  36
ENDBRANCH  24  26
ENDBRANCH  20  22
TORSDOF 4
ENDMDL
MODEL 6
REMARK VINA RESULT:      -8.1      5.071     10.076
REMARK  Name = ./S1202.pdb
REMARK  6 active torsions:
REMARK  status: ('A' for Active; 'I' for Inactive)
REMARK    1  A    between atoms: C1_1  and  C2_2
REMARK    2  A    between atoms: C13_15  and  C14_16
REMARK    3  A    between atoms: C18_20  and  C19_21
REMARK    4  A    between atoms: N2_23  and  C20_24
REMARK    5  A    between atoms: C22_26  and  C27_34
REMARK    6  A    between atoms: C25_29  and  C26_30
REMARK                            x       y       z     vdW  Elec       q    Type
REMARK                         _______ _______ _______ _____ _____    ______ ____
ROOT
ATOM      1  C1  UNL     1      62.058  56.565 108.577  0.00  0.00    +0.000 C 
ATOM      2  C2  UNL     1      62.795  57.934 108.517  0.00  0.00    +0.000 C 
ATOM      3  C3  UNL     1      63.836  58.046 109.698  0.00  0.00    +0.000 C 
ATOM      4  C4  UNL     1      63.395  58.910 110.907  0.00  0.00    +0.000 C 
ATOM      5  C5  UNL     1      61.878  58.797 111.138  0.00  0.00    +0.000 C 
ATOM      6  C6  UNL     1      61.132  59.447 109.922  0.00  0.00    +0.000 C 
ATOM      7  C7  UNL     1      60.848  60.971 110.098  0.00  0.00    +0.000 C 
ATOM      8  C8  UNL     1      60.294  61.347 111.470  0.00  0.00    +0.000 C 
ATOM      9  C9  UNL     1      61.241  60.833 112.560  0.00  0.00    +0.000 C 
ATOM     10  N1  UNL     1      60.844  61.299 113.890  0.00  0.00    +0.000 N 
ATOM     11  C10 UNL     1      61.485  60.721 115.030  0.00  0.00    +0.000 C 
ATOM     12  O1  UNL     1      61.367  61.251 116.166  0.00  0.00    +0.000 OA
ATOM     13  C11 UNL     1      62.271  59.489 114.858  0.00  0.00    +0.000 C 
ATOM     14  C12 UNL     1      62.252  58.837 113.686  0.00  0.00    +0.000 C 
ATOM     15  C13 UNL     1      61.346  59.281 112.539  0.00  0.00    +0.000 C 
ATOM     16  C14 UNL     1      59.966  58.618 112.817  0.00  0.00    +0.000 C 
ATOM     17  C15 UNL     1      61.812  59.129 108.530  0.00  0.00    +0.000 C 
ATOM     18  C16 UNL     1      62.630  60.267 107.882  0.00  0.00    +0.000 C 
ATOM     19  C17 UNL     1      63.611  59.618 106.909  0.00  0.00    +0.000 C 
ATOM     20  C18 UNL     1      63.538  58.103 107.152  0.00  0.00    +0.000 C 
ATOM     21  H15 UNL     1      60.151  62.072 114.013  0.00  0.00    +0.000 HD
ENDROOT
BRANCH  20  22
ATOM     22  C19 UNL     1      62.865  57.421 105.971  0.00  0.00    +0.000 C 
ATOM     23  O2  UNL     1      63.391  56.401 105.446  0.00  0.00    +0.000 OA
ATOM     24  N2  UNL     1      61.628  57.932 105.454  0.00  0.00    +0.000 N 
ATOM     25  H27 UNL     1      61.182  58.757 105.916  0.00  0.00    +0.000 HD
BRANCH  24  26
ATOM     26  C20 UNL     1      60.838  57.177 104.528  0.00  0.00    +0.000 A 
ATOM     27  C21 UNL     1      60.099  56.089 105.011  0.00  0.00    +0.000 A 
ATOM     28  C22 UNL     1      59.345  55.287 104.139  0.00  0.00    +0.000 A 
ATOM     29  C23 UNL     1      59.303  55.619 102.777  0.00  0.00    +0.000 A 
ATOM     30  C24 UNL     1      60.024  56.711 102.289  0.00  0.00    +0.000 A 
ATOM     31  C25 UNL     1      60.782  57.519 103.156  0.00  0.00    +0.000 A 
BRANCH  31  32
ATOM     32  C26 UNL     1      61.557  58.695 102.603  0.00  0.00    +0.000 C 
ATOM     33  F1  UNL     1      61.260  59.859 103.291  0.00  0.00    +0.000 F 
ATOM     34  F2  UNL     1      62.919  58.476 102.715  0.00  0.00    +0.000 F 
ATOM     35  F3  UNL     1      61.232  58.875 101.272  0.00  0.00    +0.000 F 
ENDBRANCH  31  32
BRANCH  28  36
ATOM     36  C27 UNL     1      58.519  54.143 104.671  0.00  0.00    +0.000 C 
ATOM     37  F4  UNL     1      57.205  54.251 104.247  0.00  0.00    +0.000 F 
ATOM     38  F5  UNL     1      58.549  54.164 106.053  0.00  0.00    +0.000 F 
ATOM     39  F6  UNL     1      59.018  52.930 104.227  0.00  0.00    +0.000 F 
ENDBRANCH  28  36
ENDBRANCH  24  26
ENDBRANCH  20  22
TORSDOF 4
ENDMDL
MODEL 7
REMARK VINA RESULT:      -8.0      2.987      3.705
REMARK  Name = ./S1202.pdb
REMARK  6 active torsions:
REMARK  status: ('A' for Active; 'I' for Inactive)
REMARK    1  A    between atoms: C1_1  and  C2_2
REMARK    2  A    between atoms: C13_15  and  C14_16
REMARK    3  A    between atoms: C18_20  and  C19_21
REMARK    4  A    between atoms: N2_23  and  C20_24
REMARK    5  A    between atoms: C22_26  and  C27_34
REMARK    6  A    between atoms: C25_29  and  C26_30
REMARK                            x       y       z     vdW  Elec       q    Type
REMARK                         _______ _______ _______ _____ _____    ______ ____
ROOT
ATOM      1  C1  UNL     1      61.771  60.599 108.732  0.00  0.00    +0.000 C 
ATOM      2  C2  UNL     1      62.927  59.579 108.517  0.00  0.00    +0.000 C 
ATOM      3  C3  UNL     1      64.005  60.175 107.530  0.00  0.00    +0.000 C 
ATOM      4  C4  UNL     1      63.950  59.649 106.073  0.00  0.00    +0.000 C 
ATOM      5  C5  UNL     1      62.500  59.357 105.650  0.00  0.00    +0.000 C 
ATOM      6  C6  UNL     1      61.956  58.157 106.501  0.00  0.00    +0.000 C 
ATOM      7  C7  UNL     1      62.219  56.759 105.860  0.00  0.00    +0.000 C 
ATOM      8  C8  UNL     1      61.900  56.688 104.369  0.00  0.00    +0.000 C 
ATOM      9  C9  UNL     1      62.670  57.788 103.630  0.00  0.00    +0.000 C 
ATOM     10  N1  UNL     1      62.527  57.671 102.177  0.00  0.00    +0.000 N 
ATOM     11  C10 UNL     1      62.992  58.749 101.362  0.00  0.00    +0.000 C 
ATOM     12  O1  UNL     1      63.122  58.599 100.118  0.00  0.00    +0.000 OA
ATOM     13  C11 UNL     1      63.300  60.041 101.995  0.00  0.00    +0.000 C 
ATOM     14  C12 UNL     1      62.998  60.247 103.285  0.00  0.00    +0.000 C 
ATOM     15  C13 UNL     1      62.239  59.205 104.105  0.00  0.00    +0.000 C 
ATOM     16  C14 UNL     1      60.732  59.463 103.813  0.00  0.00    +0.000 C 
ATOM     17  C15 UNL     1      62.413  58.209 108.014  0.00  0.00    +0.000 C 
ATOM     18  C16 UNL     1      63.535  57.234 108.434  0.00  0.00    +0.000 C 
ATOM     19  C17 UNL     1      64.182  57.809 109.691  0.00  0.00    +0.000 C 
ATOM     20  C18 UNL     1      63.610  59.221 109.878  0.00  0.00    +0.000 C 
ATOM     21  H15 UNL     1      62.146  56.803 101.735  0.00  0.00    +0.000 HD
ENDROOT
BRANCH  20  22
ATOM     22  C19 UNL     1      62.684  59.250 111.083  0.00  0.00    +0.000 C 
ATOM     23  O2  UNL     1      62.657  60.262 111.837  0.00  0.00    +0.000 OA
ATOM     24  N2  UNL     1      61.833  58.130 111.364  0.00  0.00    +0.000 N 
ATOM     25  H27 UNL     1      61.836  57.309 110.716  0.00  0.00    +0.000 HD
BRANCH  24  26
ATOM     26  C20 UNL     1      60.771  58.219 112.320  0.00  0.00    +0.000 A 
ATOM     27  C21 UNL     1      61.013  57.788 113.631  0.00  0.00    +0.000 A 
ATOM     28  C22 UNL     1      59.994  57.809 114.597  0.00  0.00    +0.000 A 
ATOM     29  C23 UNL     1      58.735  58.315 114.243  0.00  0.00    +0.000 A 
ATOM     30  C24 UNL     1      58.488  58.761 112.942  0.00  0.00    +0.000 A 
ATOM     31  C25 UNL     1      59.504  58.743 111.970  0.00  0.00    +0.000 A 
BRANCH  31  32
ATOM     32  C26 UNL     1      59.211  59.229 110.567  0.00  0.00    +0.000 C 
ATOM     33  F1  UNL     1      59.747  60.487 110.351  0.00  0.00    +0.000 F 
ATOM     34  F2  UNL     1      59.761  58.372 109.631  0.00  0.00    +0.000 F 
ATOM     35  F3  UNL     1      57.843  59.294 110.379  0.00  0.00    +0.000 F 
ENDBRANCH  31  32
BRANCH  28  36
ATOM     36  C27 UNL     1      60.273  57.382 116.015  0.00  0.00    +0.000 C 
ATOM     37  F4  UNL     1      60.329  58.483 116.854  0.00  0.00    +0.000 F 
ATOM     38  F5  UNL     1      61.485  56.719 116.062  0.00  0.00    +0.000 F 
ATOM     39  F6  UNL     1      59.278  56.538 116.479  0.00  0.00    +0.000 F 
ENDBRANCH  28  36
ENDBRANCH  24  26
ENDBRANCH  20  22
TORSDOF 4
ENDMDL
MODEL 8
REMARK VINA RESULT:      -7.9     11.243     15.865
REMARK  Name = ./S1202.pdb
REMARK  6 active torsions:
REMARK  status: ('A' for Active; 'I' for Inactive)
REMARK    1  A    between atoms: C1_1  and  C2_2
REMARK    2  A    between atoms: C13_15  and  C14_16
REMARK    3  A    between atoms: C18_20  and  C19_21
REMARK    4  A    between atoms: N2_23  and  C20_24
REMARK    5  A    between atoms: C22_26  and  C27_34
REMARK    6  A    between atoms: C25_29  and  C26_30
REMARK                            x       y       z     vdW  Elec       q    Type
REMARK                         _______ _______ _______ _____ _____    ______ ____
ROOT
ATOM      1  C1  UNL     1      75.519  61.797 111.017  0.00  0.00    +0.000 C 
ATOM      2  C2  UNL     1      75.937  62.955 111.968  0.00  0.00    +0.000 C 
ATOM      3  C3  UNL     1      77.499  62.938 112.198  0.00  0.00    +0.000 C 
ATOM      4  C4  UNL     1      77.976  62.338 113.545  0.00  0.00    +0.000 C 
ATOM      5  C5  UNL     1      77.052  61.192 113.994  0.00  0.00    +0.000 C 
ATOM      6  C6  UNL     1      75.638  61.784 114.328  0.00  0.00    +0.000 C 
ATOM      7  C7  UNL     1      75.479  62.235 115.813  0.00  0.00    +0.000 C 
ATOM      8  C8  UNL     1      76.013  61.228 116.829  0.00  0.00    +0.000 C 
ATOM      9  C9  UNL     1      77.475  60.904 116.506  0.00  0.00    +0.000 C 
ATOM     10  N1  UNL     1      78.088  60.066 117.538  0.00  0.00    +0.000 N 
ATOM     11  C10 UNL     1      79.369  59.490 117.269  0.00  0.00    +0.000 C 
ATOM     12  O1  UNL     1      80.045  58.975 118.199  0.00  0.00    +0.000 OA
ATOM     13  C11 UNL     1      79.878  59.492 115.888  0.00  0.00    +0.000 C 
ATOM     14  C12 UNL     1      79.085  59.883 114.881  0.00  0.00    +0.000 C 
ATOM     15  C13 UNL     1      77.615  60.235 115.109  0.00  0.00    +0.000 C 
ATOM     16  C14 UNL     1      76.851  58.880 115.053  0.00  0.00    +0.000 C 
ATOM     17  C15 UNL     1      75.179  62.910 113.316  0.00  0.00    +0.000 C 
ATOM     18  C16 UNL     1      75.259  64.368 113.817  0.00  0.00    +0.000 C 
ATOM     19  C17 UNL     1      75.323  65.264 112.584  0.00  0.00    +0.000 C 
ATOM     20  C18 UNL     1      75.516  64.340 111.374  0.00  0.00    +0.000 C 
ATOM     21  H15 UNL     1      77.635  59.930 118.470  0.00  0.00    +0.000 HD
ENDROOT
BRANCH  20  22
ATOM     22  C19 UNL     1      74.248  64.313 110.534  0.00  0.00    +0.000 C 
ATOM     23  O2  UNL     1      73.129  64.121 111.084  0.00  0.00    +0.000 OA
ATOM     24  N2  UNL     1      74.320  64.514 109.116  0.00  0.00    +0.000 N 
ATOM     25  H27 UNL     1      75.247  64.707 108.672  0.00  0.00    +0.000 HD
BRANCH  24  26
ATOM     26  C20 UNL     1      73.144  64.757 108.335  0.00  0.00    +0.000 A 
ATOM     27  C21 UNL     1      72.589  66.043 108.343  0.00  0.00    +0.000 A 
ATOM     28  C22 UNL     1      71.411  66.324 107.634  0.00  0.00    +0.000 A 
ATOM     29  C23 UNL     1      70.817  65.305 106.874  0.00  0.00    +0.000 A 
ATOM     30  C24 UNL     1      71.371  64.024 106.848  0.00  0.00    +0.000 A 
ATOM     31  C25 UNL     1      72.552  63.735 107.555  0.00  0.00    +0.000 A 
BRANCH  31  32
ATOM     32  C26 UNL     1      73.132  62.337 107.513  0.00  0.00    +0.000 C 
ATOM     33  F1  UNL     1      74.444  62.353 107.071  0.00  0.00    +0.000 F 
ATOM     34  F2  UNL     1      73.119  61.767 108.774  0.00  0.00    +0.000 F 
ATOM     35  F3  UNL     1      72.386  61.556 106.651  0.00  0.00    +0.000 F 
ENDBRANCH  31  32
BRANCH  28  36
ATOM     36  C27 UNL     1      70.842  67.720 107.614  0.00  0.00    +0.000 C 
ATOM     37  F4  UNL     1      71.817  68.649 107.936  0.00  0.00    +0.000 F 
ATOM     38  F5  UNL     1      69.816  67.806 108.536  0.00  0.00    +0.000 F 
ATOM     39  F6  UNL     1      70.347  68.031 106.358  0.00  0.00    +0.000 F 
ENDBRANCH  28  36
ENDBRANCH  24  26
ENDBRANCH  20  22
TORSDOF 4
ENDMDL
MODEL 9
REMARK VINA RESULT:      -7.9     10.490     15.793
REMARK  Name = ./S1202.pdb
REMARK  6 active torsions:
REMARK  status: ('A' for Active; 'I' for Inactive)
REMARK    1  A    between atoms: C1_1  and  C2_2
REMARK    2  A    between atoms: C13_15  and  C14_16
REMARK    3  A    between atoms: C18_20  and  C19_21
REMARK    4  A    between atoms: N2_23  and  C20_24
REMARK    5  A    between atoms: C22_26  and  C27_34
REMARK    6  A    between atoms: C25_29  and  C26_30
REMARK                            x       y       z     vdW  Elec       q    Type
REMARK                         _______ _______ _______ _____ _____    ______ ____
ROOT
ATOM      1  C1  UNL     1      75.459  61.819 111.014  0.00  0.00    +0.000 C 
ATOM      2  C2  UNL     1      75.812  62.991 111.975  0.00  0.00    +0.000 C 
ATOM      3  C3  UNL     1      77.371  63.049 112.215  0.00  0.00    +0.000 C 
ATOM      4  C4  UNL     1      77.869  62.465 113.561  0.00  0.00    +0.000 C 
ATOM      5  C5  UNL     1      77.000  61.272 113.997  0.00  0.00    +0.000 C 
ATOM      6  C6  UNL     1      75.557  61.790 114.325  0.00  0.00    +0.000 C 
ATOM      7  C7  UNL     1      75.365  62.222 115.812  0.00  0.00    +0.000 C 
ATOM      8  C8  UNL     1      75.942  61.237 116.826  0.00  0.00    +0.000 C 
ATOM      9  C9  UNL     1      77.421  60.989 116.510  0.00  0.00    +0.000 C 
ATOM     10  N1  UNL     1      78.069  60.175 117.540  0.00  0.00    +0.000 N 
ATOM     11  C10 UNL     1      79.378  59.665 117.277  0.00  0.00    +0.000 C 
ATOM     12  O1  UNL     1      80.073  59.179 118.208  0.00  0.00    +0.000 OA
ATOM     13  C11 UNL     1      79.895  59.702 115.900  0.00  0.00    +0.000 C 
ATOM     14  C12 UNL     1      79.090  60.060 114.889  0.00  0.00    +0.000 C 
ATOM     15  C13 UNL     1      77.604  60.336 115.110  0.00  0.00    +0.000 C 
ATOM     16  C14 UNL     1      76.908  58.946 115.040  0.00  0.00    +0.000 C 
ATOM     17  C15 UNL     1      75.048  62.899 113.317  0.00  0.00    +0.000 C 
ATOM     18  C16 UNL     1      75.052  64.355 113.828  0.00  0.00    +0.000 C 
ATOM     19  C17 UNL     1      75.079  65.262 112.601  0.00  0.00    +0.000 C 
ATOM     20  C18 UNL     1      75.326  64.356 111.386  0.00  0.00    +0.000 C 
ATOM     21  H15 UNL     1      77.617  60.010 118.469  0.00  0.00    +0.000 HD
ENDROOT
BRANCH  20  22
ATOM     22  C19 UNL     1      74.067  64.272 110.538  0.00  0.00    +0.000 C 
ATOM     23  O2  UNL     1      72.974  63.920 111.061  0.00  0.00    +0.000 OA
ATOM     24  N2  UNL     1      74.117  64.599 109.142  0.00  0.00    +0.000 N 
ATOM     25  H27 UNL     1      75.018  64.923 108.723  0.00  0.00    +0.000 HD
BRANCH  24  26
ATOM     26  C20 UNL     1      72.921  64.786 108.376  0.00  0.00    +0.000 A 
ATOM     27  C21 UNL     1      72.436  63.710 107.621  0.00  0.00    +0.000 A 
ATOM     28  C22 UNL     1      71.295  63.853 106.815  0.00  0.00    +0.000 A 
ATOM     29  C23 UNL     1      70.616  65.080 106.810  0.00  0.00    +0.000 A 
ATOM     30  C24 UNL     1      71.084  66.154 107.571  0.00  0.00    +0.000 A 
ATOM     31  C25 UNL     1      72.226  66.019 108.381  0.00  0.00    +0.000 A 
BRANCH  31  32
ATOM     32  C26 UNL     1      72.715  67.198 109.194  0.00  0.00    +0.000 C 
ATOM     33  F1  UNL     1      72.464  67.014 110.543  0.00  0.00    +0.000 F 
ATOM     34  F2  UNL     1      74.080  67.363 109.039  0.00  0.00    +0.000 F 
ATOM     35  F3  UNL     1      72.066  68.344 108.777  0.00  0.00    +0.000 F 
ENDBRANCH  31  32
BRANCH  28  36
ATOM     36  C27 UNL     1      70.754  62.680 106.037  0.00  0.00    +0.000 C 
ATOM     37  F4  UNL     1      69.373  62.628 106.130  0.00  0.00    +0.000 F 
ATOM     38  F5  UNL     1      71.284  61.510 106.550  0.00  0.00    +0.000 F 
ATOM     39  F6  UNL     1      71.093  62.779 104.698  0.00  0.00    +0.000 F 
ENDBRANCH  28  36
ENDBRANCH  24  26
ENDBRANCH  20  22
TORSDOF 4
ENDMDL
MODEL 10
REMARK VINA RESULT:      -7.8     12.006     13.572
REMARK  Name = ./S1202.pdb
REMARK  6 active torsions:
REMARK  status: ('A' for Active; 'I' for Inactive)
REMARK    1  A    between atoms: C1_1  and  C2_2
REMARK    2  A    between atoms: C13_15  and  C14_16
REMARK    3  A    between atoms: C18_20  and  C19_21
REMARK    4  A    between atoms: N2_23  and  C20_24
REMARK    5  A    between atoms: C22_26  and  C27_34
REMARK    6  A    between atoms: C25_29  and  C26_30
REMARK                            x       y       z     vdW  Elec       q    Type
REMARK                         _______ _______ _______ _____ _____    ______ ____
ROOT
ATOM      1  C1  UNL     1      75.931  65.815 108.910  0.00  0.00    +0.000 C 
ATOM      2  C2  UNL     1      74.781  64.919 108.368  0.00  0.00    +0.000 C 
ATOM      3  C3  UNL     1      74.564  65.181 106.826  0.00  0.00    +0.000 C 
ATOM      4  C4  UNL     1      73.356  66.078 106.457  0.00  0.00    +0.000 C 
ATOM      5  C5  UNL     1      73.126  67.158 107.529  0.00  0.00    +0.000 C 
ATOM      6  C6  UNL     1      72.682  66.462 108.862  0.00  0.00    +0.000 C 
ATOM      7  C7  UNL     1      71.138  66.280 108.993  0.00  0.00    +0.000 C 
ATOM      8  C8  UNL     1      70.331  67.519 108.613  0.00  0.00    +0.000 C 
ATOM      9  C9  UNL     1      70.715  67.963 107.198  0.00  0.00    +0.000 C 
ATOM     10  N1  UNL     1      69.862  69.051 106.718  0.00  0.00    +0.000 N 
ATOM     11  C10 UNL     1      70.238  69.728 105.516  0.00  0.00    +0.000 C 
ATOM     12  O1  UNL     1      69.424  70.490 104.931  0.00  0.00    +0.000 OA
ATOM     13  C11 UNL     1      71.596  69.533 104.983  0.00  0.00    +0.000 C 
ATOM     14  C12 UNL     1      72.509  68.861 105.698  0.00  0.00    +0.000 C 
ATOM     15  C13 UNL     1      72.214  68.372 107.115  0.00  0.00    +0.000 C 
ATOM     16  C14 UNL     1      72.520  69.582 108.045  0.00  0.00    +0.000 C 
ATOM     17  C15 UNL     1      73.462  65.117 109.153  0.00  0.00    +0.000 C 
ATOM     18  C16 UNL     1      72.696  63.801 108.898  0.00  0.00    +0.000 C 
ATOM     19  C17 UNL     1      73.740  62.706 108.695  0.00  0.00    +0.000 C 
ATOM     20  C18 UNL     1      75.103  63.405 108.596  0.00  0.00    +0.000 C 
ATOM     21  H15 UNL     1      68.970  69.300 107.204  0.00  0.00    +0.000 HD
ENDROOT
BRANCH  20  22
ATOM     22  C19 UNL     1      75.928  63.110 109.839  0.00  0.00    +0.000 C 
ATOM     23  O2  UNL     1      77.173  63.316 109.836  0.00  0.00    +0.000 OA
ATOM     24  N2  UNL     1      75.292  62.605 111.021  0.00  0.00    +0.000 N 
ATOM     25  H27 UNL     1      74.256  62.469 111.028  0.00  0.00    +0.000 HD
BRANCH  24  26
ATOM     26  C20 UNL     1      75.978  62.563 112.278  0.00  0.00    +0.000 A 
ATOM     27  C21 UNL     1      76.803  61.465 112.555  0.00  0.00    +0.000 A 
ATOM     28  C22 UNL     1      77.460  61.351 113.790  0.00  0.00    +0.000 A 
ATOM     29  C23 UNL     1      77.317  62.379 114.733  0.00  0.00    +0.000 A 
ATOM     30  C24 UNL     1      76.508  63.485 114.461  0.00  0.00    +0.000 A 
ATOM     31  C25 UNL     1      75.847  63.607 113.226  0.00  0.00    +0.000 A 
BRANCH  31  32
ATOM     32  C26 UNL     1      74.974  64.813 112.955  0.00  0.00    +0.000 C 
ATOM     33  F1  UNL     1      75.532  65.628 111.985  0.00  0.00    +0.000 F 
ATOM     34  F2  UNL     1      73.726  64.420 112.507  0.00  0.00    +0.000 F 
ATOM     35  F3  UNL     1      74.831  65.547 114.118  0.00  0.00    +0.000 F 
ENDBRANCH  31  32
BRANCH  28  36
ATOM     36  C27 UNL     1      78.379  60.187 114.065  0.00  0.00    +0.000 C 
ATOM     37  F4  UNL     1      78.987  59.759 112.897  0.00  0.00    +0.000 F 
ATOM     38  F5  UNL     1      77.645  59.144 114.598  0.00  0.00    +0.000 F 
ATOM     39  F6  UNL     1      79.370  60.546 114.962  0.00  0.00    +0.000 F 
ENDBRANCH  28  36
ENDBRANCH  24  26
ENDBRANCH  20  22
TORSDOF 4
ENDMDL
MODEL 11
REMARK VINA RESULT:      -7.8      9.694     11.873
REMARK  Name = ./S1202.pdb
REMARK  6 active torsions:
REMARK  status: ('A' for Active; 'I' for Inactive)
REMARK    1  A    between atoms: C1_1  and  C2_2
REMARK    2  A    between atoms: C13_15  and  C14_16
REMARK    3  A    between atoms: C18_20  and  C19_21
REMARK    4  A    between atoms: N2_23  and  C20_24
REMARK    5  A    between atoms: C22_26  and  C27_34
REMARK    6  A    between atoms: C25_29  and  C26_30
REMARK                            x       y       z     vdW  Elec       q    Type
REMARK                         _______ _______ _______ _____ _____    ______ ____
ROOT
ATOM      1  C1  UNL     1      71.353  64.923 109.507  0.00  0.00    +0.000 C 
ATOM      2  C2  UNL     1      72.422  65.399 108.481  0.00  0.00    +0.000 C 
ATOM      3  C3  UNL     1      71.724  65.890 107.152  0.00  0.00    +0.000 C 
ATOM      4  C4  UNL     1      71.760  64.896 105.964  0.00  0.00    +0.000 C 
ATOM      5  C5  UNL     1      71.682  63.442 106.462  0.00  0.00    +0.000 C 
ATOM      6  C6  UNL     1      72.987  63.112 107.266  0.00  0.00    +0.000 C 
ATOM      7  C7  UNL     1      74.143  62.543 106.385  0.00  0.00    +0.000 C 
ATOM      8  C8  UNL     1      73.701  61.462 105.401  0.00  0.00    +0.000 C 
ATOM      9  C9  UNL     1      72.559  62.001 104.532  0.00  0.00    +0.000 C 
ATOM     10  N1  UNL     1      72.200  61.066 103.464  0.00  0.00    +0.000 N 
ATOM     11  C10 UNL     1      71.007  61.317 102.716  0.00  0.00    +0.000 C 
ATOM     12  O1  UNL     1      70.785  60.698 101.642  0.00  0.00    +0.000 OA
ATOM     13  C11 UNL     1      70.036  62.297 103.230  0.00  0.00    +0.000 C 
ATOM     14  C12 UNL     1      70.194  62.822 104.453  0.00  0.00    +0.000 C 
ATOM     15  C13 UNL     1      71.309  62.354 105.387  0.00  0.00    +0.000 C 
ATOM     16  C14 UNL     1      70.745  61.095 106.109  0.00  0.00    +0.000 C 
ATOM     17  C15 UNL     1      73.475  64.306 108.181  0.00  0.00    +0.000 C 
ATOM     18  C16 UNL     1      74.691  65.113 107.679  0.00  0.00    +0.000 C 
ATOM     19  C17 UNL     1      74.638  66.477 108.361  0.00  0.00    +0.000 C 
ATOM     20  C18 UNL     1      73.281  66.563 109.075  0.00  0.00    +0.000 C 
ATOM     21  H15 UNL     1      72.819  60.263 103.211  0.00  0.00    +0.000 HD
ENDROOT
BRANCH  20  22
ATOM     22  C19 UNL     1      73.484  66.500 110.581  0.00  0.00    +0.000 C 
ATOM     23  O2  UNL     1      72.503  66.658 111.359  0.00  0.00    +0.000 OA
ATOM     24  N2  UNL     1      74.789  66.254 111.122  0.00  0.00    +0.000 N 
ATOM     25  H27 UNL     1      75.591  66.091 110.472  0.00  0.00    +0.000 HD
BRANCH  24  26
ATOM     26  C20 UNL     1      74.976  65.930 112.504  0.00  0.00    +0.000 A 
ATOM     27  C21 UNL     1      74.915  66.963 113.448  0.00  0.00    +0.000 A 
ATOM     28  C22 UNL     1      75.139  66.709 114.811  0.00  0.00    +0.000 A 
ATOM     29  C23 UNL     1      75.379  65.390 115.224  0.00  0.00    +0.000 A 
ATOM     30  C24 UNL     1      75.427  64.351 114.293  0.00  0.00    +0.000 A 
ATOM     31  C25 UNL     1      75.204  64.598 112.926  0.00  0.00    +0.000 A 
BRANCH  31  32
ATOM     32  C26 UNL     1      75.264  63.456 111.935  0.00  0.00    +0.000 C 
ATOM     33  F1  UNL     1      74.067  63.323 111.252  0.00  0.00    +0.000 F 
ATOM     34  F2  UNL     1      76.260  63.674 111.001  0.00  0.00    +0.000 F 
ATOM     35  F3  UNL     1      75.520  62.276 112.609  0.00  0.00    +0.000 F 
ENDBRANCH  31  32
BRANCH  28  36
ATOM     36  C27 UNL     1      75.031  67.818 115.826  0.00  0.00    +0.000 C 
ATOM     37  F4  UNL     1      73.769  68.387 115.795  0.00  0.00    +0.000 F 
ATOM     38  F5  UNL     1      75.970  68.791 115.538  0.00  0.00    +0.000 F 
ATOM     39  F6  UNL     1      75.257  67.337 117.105  0.00  0.00    +0.000 F 
ENDBRANCH  28  36
ENDBRANCH  24  26
ENDBRANCH  20  22
TORSDOF 4
ENDMDL
MODEL 12
REMARK VINA RESULT:      -7.8     10.881     13.432
REMARK  Name = ./S1202.pdb
REMARK  6 active torsions:
REMARK  status: ('A' for Active; 'I' for Inactive)
REMARK    1  A    between atoms: C1_1  and  C2_2
REMARK    2  A    between atoms: C13_15  and  C14_16
REMARK    3  A    between atoms: C18_20  and  C19_21
REMARK    4  A    between atoms: N2_23  and  C20_24
REMARK    5  A    between atoms: C22_26  and  C27_34
REMARK    6  A    between atoms: C25_29  and  C26_30
REMARK                            x       y       z     vdW  Elec       q    Type
REMARK                         _______ _______ _______ _____ _____    ______ ____
ROOT
ATOM      1  C1  UNL     1      70.078  66.257 108.124  0.00  0.00    +0.000 C 
ATOM      2  C2  UNL     1      71.341  67.148 108.296  0.00  0.00    +0.000 C 
ATOM      3  C3  UNL     1      70.949  68.537 108.938  0.00  0.00    +0.000 C 
ATOM      4  C4  UNL     1      70.860  69.732 107.957  0.00  0.00    +0.000 C 
ATOM      5  C5  UNL     1      70.352  69.276 106.578  0.00  0.00    +0.000 C 
ATOM      6  C6  UNL     1      71.428  68.338 105.928  0.00  0.00    +0.000 C 
ATOM      7  C7  UNL     1      72.488  69.095 105.070  0.00  0.00    +0.000 C 
ATOM      8  C8  UNL     1      71.896  70.144 104.132  0.00  0.00    +0.000 C 
ATOM      9  C9  UNL     1      71.038  71.124 104.939  0.00  0.00    +0.000 C 
ATOM     10  N1  UNL     1      70.571  72.243 104.119  0.00  0.00    +0.000 N 
ATOM     11  C10 UNL     1      69.577  73.114 104.664  0.00  0.00    +0.000 C 
ATOM     12  O1  UNL     1      69.325  74.218 104.113  0.00  0.00    +0.000 OA
ATOM     13  C11 UNL     1      68.842  72.693 105.867  0.00  0.00    +0.000 C 
ATOM     14  C12 UNL     1      68.991  71.450 106.346  0.00  0.00    +0.000 C 
ATOM     15  C13 UNL     1      69.834  70.407 105.614  0.00  0.00    +0.000 C 
ATOM     16  C14 UNL     1      68.886  69.777 104.552  0.00  0.00    +0.000 C 
ATOM     17  C15 UNL     1      72.102  67.351 106.964  0.00  0.00    +0.000 C 
ATOM     18  C16 UNL     1      73.535  67.698 107.422  0.00  0.00    +0.000 C 
ATOM     19  C17 UNL     1      73.760  66.999 108.760  0.00  0.00    +0.000 C 
ATOM     20  C18 UNL     1      72.401  66.439 109.202  0.00  0.00    +0.000 C 
ATOM     21  H15 UNL     1      70.986  72.441 103.180  0.00  0.00    +0.000 HD
ENDROOT
BRANCH  20  22
ATOM     22  C19 UNL     1      72.409  64.921 109.104  0.00  0.00    +0.000 C 
ATOM     23  O2  UNL     1      71.712  64.232 109.899  0.00  0.00    +0.000 OA
ATOM     24  N2  UNL     1      73.202  64.269 108.103  0.00  0.00    +0.000 N 
ATOM     25  H27 UNL     1      73.750  64.848 107.426  0.00  0.00    +0.000 HD
BRANCH  24  26
ATOM     26  C20 UNL     1      73.037  62.877 107.809  0.00  0.00    +0.000 A 
ATOM     27  C21 UNL     1      72.000  62.493 106.949  0.00  0.00    +0.000 A 
ATOM     28  C22 UNL     1      71.764  61.139 106.665  0.00  0.00    +0.000 A 
ATOM     29  C23 UNL     1      72.614  60.171 107.218  0.00  0.00    +0.000 A 
ATOM     30  C24 UNL     1      73.661  60.545 108.065  0.00  0.00    +0.000 A 
ATOM     31  C25 UNL     1      73.903  61.900 108.354  0.00  0.00    +0.000 A 
BRANCH  31  32
ATOM     32  C26 UNL     1      75.042  62.280 109.276  0.00  0.00    +0.000 C 
ATOM     33  F1  UNL     1      74.569  62.819 110.460  0.00  0.00    +0.000 F 
ATOM     34  F2  UNL     1      75.803  61.169 109.593  0.00  0.00    +0.000 F 
ATOM     35  F3  UNL     1      75.842  63.219 108.654  0.00  0.00    +0.000 F 
ENDBRANCH  31  32
BRANCH  28  36
ATOM     36  C27 UNL     1      70.672  60.735 105.707  0.00  0.00    +0.000 C 
ATOM     37  F4  UNL     1      70.060  59.567 106.129  0.00  0.00    +0.000 F 
ATOM     38  F5  UNL     1      71.218  60.530 104.454  0.00  0.00    +0.000 F 
ATOM     39  F6  UNL     1      69.704  61.722 105.621  0.00  0.00    +0.000 F 
ENDBRANCH  28  36
ENDBRANCH  24  26
ENDBRANCH  20  22
TORSDOF 4
ENDMDL
MODEL 13
REMARK VINA RESULT:      -7.7     10.302     15.234
REMARK  Name = ./S1202.pdb
REMARK  6 active torsions:
REMARK  status: ('A' for Active; 'I' for Inactive)
REMARK    1  A    between atoms: C1_1  and  C2_2
REMARK    2  A    between atoms: C13_15  and  C14_16
REMARK    3  A    between atoms: C18_20  and  C19_21
REMARK    4  A    between atoms: N2_23  and  C20_24
REMARK    5  A    between atoms: C22_26  and  C27_34
REMARK    6  A    between atoms: C25_29  and  C26_30
REMARK                            x       y       z     vdW  Elec       q    Type
REMARK                         _______ _______ _______ _____ _____    ______ ____
ROOT
ATOM      1  C1  UNL     1      75.484  61.789 109.486  0.00  0.00    +0.000 C 
ATOM      2  C2  UNL     1      76.057  63.152 109.972  0.00  0.00    +0.000 C 
ATOM      3  C3  UNL     1      77.556  62.982 110.436  0.00  0.00    +0.000 C 
ATOM      4  C4  UNL     1      77.785  62.916 111.967  0.00  0.00    +0.000 C 
ATOM      5  C5  UNL     1      76.608  62.217 112.669  0.00  0.00    +0.000 C 
ATOM      6  C6  UNL     1      75.327  63.110 112.520  0.00  0.00    +0.000 C 
ATOM      7  C7  UNL     1      75.145  64.146 113.672  0.00  0.00    +0.000 C 
ATOM      8  C8  UNL     1      75.371  63.572 115.068  0.00  0.00    +0.000 C 
ATOM      9  C9  UNL     1      76.754  62.916 115.131  0.00  0.00    +0.000 C 
ATOM     10  N1  UNL     1      77.092  62.485 116.489  0.00  0.00    +0.000 N 
ATOM     11  C10 UNL     1      78.241  61.654 116.671  0.00  0.00    +0.000 C 
ATOM     12  O1  UNL     1      78.715  61.463 117.821  0.00  0.00    +0.000 OA
ATOM     13  C11 UNL     1      78.850  61.012 115.495  0.00  0.00    +0.000 C 
ATOM     14  C12 UNL     1      78.242  61.079 114.302  0.00  0.00    +0.000 C 
ATOM     15  C13 UNL     1      76.865  61.721 114.141  0.00  0.00    +0.000 C 
ATOM     16  C14 UNL     1      75.841  60.602 114.489  0.00  0.00    +0.000 C 
ATOM     17  C15 UNL     1      75.198  63.782 111.094  0.00  0.00    +0.000 C 
ATOM     18  C16 UNL     1      75.541  65.285 111.002  0.00  0.00    +0.000 C 
ATOM     19  C17 UNL     1      75.891  65.577 109.546  0.00  0.00    +0.000 C 
ATOM     20  C18 UNL     1      75.985  64.221 108.832  0.00  0.00    +0.000 C 
ATOM     21  H15 UNL     1      76.545  62.815 117.317  0.00  0.00    +0.000 HD
ENDROOT
BRANCH  20  22
ATOM     22  C19 UNL     1      74.813  64.056 107.877  0.00  0.00    +0.000 C 
ATOM     23  O2  UNL     1      75.017  63.970 106.634  0.00  0.00    +0.000 OA
ATOM     24  N2  UNL     1      73.474  63.992 108.386  0.00  0.00    +0.000 N 
ATOM     25  H27 UNL     1      73.316  64.030 109.418  0.00  0.00    +0.000 HD
BRANCH  24  26
ATOM     26  C20 UNL     1      72.380  63.579 107.559  0.00  0.00    +0.000 A 
ATOM     27  C21 UNL     1      72.335  62.248 107.123  0.00  0.00    +0.000 A 
ATOM     28  C22 UNL     1      71.311  61.803 106.272  0.00  0.00    +0.000 A 
ATOM     29  C23 UNL     1      70.300  62.700 105.899  0.00  0.00    +0.000 A 
ATOM     30  C24 UNL     1      70.328  64.025 106.340  0.00  0.00    +0.000 A 
ATOM     31  C25 UNL     1      71.350  64.479 107.193  0.00  0.00    +0.000 A 
BRANCH  31  32
ATOM     32  C26 UNL     1      71.360  65.920 107.656  0.00  0.00    +0.000 C 
ATOM     33  F1  UNL     1      72.571  66.528 107.374  0.00  0.00    +0.000 F 
ATOM     34  F2  UNL     1      70.367  66.642 107.019  0.00  0.00    +0.000 F 
ATOM     35  F3  UNL     1      71.152  65.964 109.022  0.00  0.00    +0.000 F 
ENDBRANCH  31  32
BRANCH  28  36
ATOM     36  C27 UNL     1      71.247  60.360 105.840  0.00  0.00    +0.000 C 
ATOM     37  F4  UNL     1      70.037  59.794 106.207  0.00  0.00    +0.000 F 
ATOM     38  F5  UNL     1      72.273  59.657 106.444  0.00  0.00    +0.000 F 
ATOM     39  F6  UNL     1      71.374  60.252 104.466  0.00  0.00    +0.000 F 
ENDBRANCH  28  36
ENDBRANCH  24  26
ENDBRANCH  20  22
TORSDOF 4
ENDMDL
MODEL 14
REMARK VINA RESULT:      -7.7     11.012     14.815
REMARK  Name = ./S1202.pdb
REMARK  6 active torsions:
REMARK  status: ('A' for Active; 'I' for Inactive)
REMARK    1  A    between atoms: C1_1  and  C2_2
REMARK    2  A    between atoms: C13_15  and  C14_16
REMARK    3  A    between atoms: C18_20  and  C19_21
REMARK    4  A    between atoms: N2_23  and  C20_24
REMARK    5  A    between atoms: C22_26  and  C27_34
REMARK    6  A    between atoms: C25_29  and  C26_30
REMARK                            x       y       z     vdW  Elec       q    Type
REMARK                         _______ _______ _______ _____ _____    ______ ____
ROOT
ATOM      1  C1  UNL     1      70.278  62.073 103.184  0.00  0.00    +0.000 C 
ATOM      2  C2  UNL     1      71.831  61.982 103.134  0.00  0.00    +0.000 C 
ATOM      3  C3  UNL     1      72.378  61.249 104.421  0.00  0.00    +0.000 C 
ATOM      4  C4  UNL     1      72.972  62.167 105.519  0.00  0.00    +0.000 C 
ATOM      5  C5  UNL     1      72.225  63.510 105.576  0.00  0.00    +0.000 C 
ATOM      6  C6  UNL     1      72.493  64.296 104.246  0.00  0.00    +0.000 C 
ATOM      7  C7  UNL     1      73.751  65.217 104.302  0.00  0.00    +0.000 C 
ATOM      8  C8  UNL     1      73.857  66.051 105.576  0.00  0.00    +0.000 C 
ATOM      9  C9  UNL     1      73.796  65.127 106.796  0.00  0.00    +0.000 C 
ATOM     10  N1  UNL     1      74.050  65.853 108.043  0.00  0.00    +0.000 N 
ATOM     11  C10 UNL     1      73.802  65.181 109.280  0.00  0.00    +0.000 C 
ATOM     12  O1  UNL     1      74.232  65.659 110.363  0.00  0.00    +0.000 OA
ATOM     13  C11 UNL     1      73.021  63.934 109.271  0.00  0.00    +0.000 C 
ATOM     14  C12 UNL     1      72.422  63.523 108.144  0.00  0.00    +0.000 C 
ATOM     15  C13 UNL     1      72.437  64.374 106.875  0.00  0.00    +0.000 C 
ATOM     16  C14 UNL     1      71.249  65.368 107.027  0.00  0.00    +0.000 C 
ATOM     17  C15 UNL     1      72.494  63.370 102.964  0.00  0.00    +0.000 C 
ATOM     18  C16 UNL     1      73.871  63.032 102.353  0.00  0.00    +0.000 C 
ATOM     19  C17 UNL     1      73.700  61.752 101.540  0.00  0.00    +0.000 C 
ATOM     20  C18 UNL     1      72.300  61.209 101.858  0.00  0.00    +0.000 C 
ATOM     21  H15 UNL     1      74.454  66.817 108.039  0.00  0.00    +0.000 HD
ENDROOT
BRANCH  20  22
ATOM     22  C19 UNL     1      71.395  61.371 100.646  0.00  0.00    +0.000 C 
ATOM     23  O2  UNL     1      71.253  62.504 100.110  0.00  0.00    +0.000 OA
ATOM     24  N2  UNL     1      70.706  60.235 100.106  0.00  0.00    +0.000 N 
ATOM     25  H27 UNL     1      70.855  59.294 100.535  0.00  0.00    +0.000 HD
BRANCH  24  26
ATOM     26  C20 UNL     1      70.062  60.291  98.828  0.00  0.00    +0.000 A 
ATOM     27  C21 UNL     1      70.850  60.170  97.676  0.00  0.00    +0.000 A 
ATOM     28  C22 UNL     1      70.278  60.265  96.398  0.00  0.00    +0.000 A 
ATOM     29  C23 UNL     1      68.890  60.436  96.287  0.00  0.00    +0.000 A 
ATOM     30  C24 UNL     1      68.094  60.543  97.429  0.00  0.00    +0.000 A 
ATOM     31  C25 UNL     1      68.660  60.449  98.713  0.00  0.00    +0.000 A 
BRANCH  31  32
ATOM     32  C26 UNL     1      67.777  60.569  99.936  0.00  0.00    +0.000 C 
ATOM     33  F1  UNL     1      67.975  59.509 100.804  0.00  0.00    +0.000 F 
ATOM     34  F2  UNL     1      68.057  61.736 100.626  0.00  0.00    +0.000 F 
ATOM     35  F3  UNL     1      66.451  60.577  99.546  0.00  0.00    +0.000 F 
ENDBRANCH  31  32
BRANCH  28  36
ATOM     36  C27 UNL     1      71.125  60.094  95.163  0.00  0.00    +0.000 C 
ATOM     37  F4  UNL     1      72.420  60.527  95.396  0.00  0.00    +0.000 F 
ATOM     38  F5  UNL     1      70.582  60.836  94.131  0.00  0.00    +0.000 F 
ATOM     39  F6  UNL     1      71.177  58.763  94.783  0.00  0.00    +0.000 F 
ENDBRANCH  28  36
ENDBRANCH  24  26
ENDBRANCH  20  22
TORSDOF 4
ENDMDL
MODEL 15
REMARK VINA RESULT:      -7.6     11.724     14.133
REMARK  Name = ./S1202.pdb
REMARK  6 active torsions:
REMARK  status: ('A' for Active; 'I' for Inactive)
REMARK    1  A    between atoms: C1_1  and  C2_2
REMARK    2  A    between atoms: C13_15  and  C14_16
REMARK    3  A    between atoms: C18_20  and  C19_21
REMARK    4  A    between atoms: N2_23  and  C20_24
REMARK    5  A    between atoms: C22_26  and  C27_34
REMARK    6  A    between atoms: C25_29  and  C26_30
REMARK                            x       y       z     vdW  Elec       q    Type
REMARK                         _______ _______ _______ _____ _____    ______ ____
ROOT
ATOM      1  C1  UNL     1      73.578  67.284 106.366  0.00  0.00    +0.000 C 
ATOM      2  C2  UNL     1      72.543  66.763 107.405  0.00  0.00    +0.000 C 
ATOM      3  C3  UNL     1      73.270  65.925 108.528  0.00  0.00    +0.000 C 
ATOM      4  C4  UNL     1      73.159  64.385 108.401  0.00  0.00    +0.000 C 
ATOM      5  C5  UNL     1      73.134  63.957 106.923  0.00  0.00    +0.000 C 
ATOM      6  C6  UNL     1      71.811  64.484 106.266  0.00  0.00    +0.000 C 
ATOM      7  C7  UNL     1      70.615  63.488 106.373  0.00  0.00    +0.000 C 
ATOM      8  C8  UNL     1      70.974  62.044 106.030  0.00  0.00    +0.000 C 
ATOM      9  C9  UNL     1      72.149  61.591 106.903  0.00  0.00    +0.000 C 
ATOM     10  N1  UNL     1      72.437  60.165 106.731  0.00  0.00    +0.000 N 
ATOM     11  C10 UNL     1      73.642  59.644 107.298  0.00  0.00    +0.000 C 
ATOM     12  O1  UNL     1      73.815  58.401 107.396  0.00  0.00    +0.000 OA
ATOM     13  C11 UNL     1      74.682  60.583 107.748  0.00  0.00    +0.000 C 
ATOM     14  C12 UNL     1      74.567  61.892 107.484  0.00  0.00    +0.000 C 
ATOM     15  C13 UNL     1      73.424  62.438 106.630  0.00  0.00    +0.000 C 
ATOM     16  C14 UNL     1      73.898  62.284 105.155  0.00  0.00    +0.000 C 
ATOM     17  C15 UNL     1      71.413  65.938 106.744  0.00  0.00    +0.000 C 
ATOM     18  C16 UNL     1      70.256  66.042 107.761  0.00  0.00    +0.000 C 
ATOM     19  C17 UNL     1      70.410  67.379 108.480  0.00  0.00    +0.000 C 
ATOM     20  C18 UNL     1      71.771  67.953 108.063  0.00  0.00    +0.000 C 
ATOM     21  H15 UNL     1      71.760  59.526 106.256  0.00  0.00    +0.000 HD
ENDROOT
BRANCH  20  22
ATOM     22  C19 UNL     1      71.570  69.160 107.159  0.00  0.00    +0.000 C 
ATOM     23  O2  UNL     1      72.277  70.193 107.316  0.00  0.00    +0.000 OA
ATOM     24  N2  UNL     1      70.580  69.124 106.122  0.00  0.00    +0.000 N 
ATOM     25  H27 UNL     1      70.021  68.253 105.977  0.00  0.00    +0.000 HD
BRANCH  24  26
ATOM     26  C20 UNL     1      70.537  70.122 105.095  0.00  0.00    +0.000 A 
ATOM     27  C21 UNL     1      71.377  69.974 103.984  0.00  0.00    +0.000 A 
ATOM     28  C22 UNL     1      71.411  70.946 102.971  0.00  0.00    +0.000 A 
ATOM     29  C23 UNL     1      70.553  72.051 103.064  0.00  0.00    +0.000 A 
ATOM     30  C24 UNL     1      69.701  72.201 104.161  0.00  0.00    +0.000 A 
ATOM     31  C25 UNL     1      69.662  71.231 105.179  0.00  0.00    +0.000 A 
BRANCH  31  32
ATOM     32  C26 UNL     1      68.733  71.416 106.359  0.00  0.00    +0.000 C 
ATOM     33  F1  UNL     1      69.442  71.665 107.521  0.00  0.00    +0.000 F 
ATOM     34  F2  UNL     1      67.884  72.487 106.146  0.00  0.00    +0.000 F 
ATOM     35  F3  UNL     1      67.984  70.268 106.537  0.00  0.00    +0.000 F 
ENDBRANCH  31  32
BRANCH  28  36
ATOM     36  C27 UNL     1      72.287  70.760 101.758  0.00  0.00    +0.000 C 
ATOM     37  F4  UNL     1      72.528  71.976 101.141  0.00  0.00    +0.000 F 
ATOM     38  F5  UNL     1      71.652  69.919 100.863  0.00  0.00    +0.000 F 
ATOM     39  F6  UNL     1      73.505  70.206 102.112  0.00  0.00    +0.000 F 
ENDBRANCH  28  36
ENDBRANCH  24  26
ENDBRANCH  20  22
TORSDOF 4
ENDMDL
MODEL 16
REMARK VINA RESULT:      -7.6      9.777     13.934
REMARK  Name = ./S1202.pdb
REMARK  6 active torsions:
REMARK  status: ('A' for Active; 'I' for Inactive)
REMARK    1  A    between atoms: C1_1  and  C2_2
REMARK    2  A    between atoms: C13_15  and  C14_16
REMARK    3  A    between atoms: C18_20  and  C19_21
REMARK    4  A    between atoms: N2_23  and  C20_24
REMARK    5  A    between atoms: C22_26  and  C27_34
REMARK    6  A    between atoms: C25_29  and  C26_30
REMARK                            x       y       z     vdW  Elec       q    Type
REMARK                         _______ _______ _______ _____ _____    ______ ____
ROOT
ATOM      1  C1  UNL     1      66.490  56.561  98.496  0.00  0.00    +0.000 C 
ATOM      2  C2  UNL     1      66.974  57.500  99.638  0.00  0.00    +0.000 C 
ATOM      3  C3  UNL     1      66.828  56.781 101.037  0.00  0.00    +0.000 C 
ATOM      4  C4  UNL     1      65.607  57.207 101.890  0.00  0.00    +0.000 C 
ATOM      5  C5  UNL     1      64.402  57.546 100.995  0.00  0.00    +0.000 C 
ATOM      6  C6  UNL     1      64.739  58.829 100.158  0.00  0.00    +0.000 C 
ATOM      7  C7  UNL     1      64.343  60.163 100.863  0.00  0.00    +0.000 C 
ATOM      8  C8  UNL     1      62.949  60.148 101.486  0.00  0.00    +0.000 C 
ATOM      9  C9  UNL     1      62.835  58.961 102.448  0.00  0.00    +0.000 C 
ATOM     10  N1  UNL     1      61.575  58.985 103.195  0.00  0.00    +0.000 N 
ATOM     11  C10 UNL     1      61.218  57.829 103.958  0.00  0.00    +0.000 C 
ATOM     12  O1  UNL     1      60.288  57.886 104.804  0.00  0.00    +0.000 OA
ATOM     13  C11 UNL     1      61.943  56.569 103.727  0.00  0.00    +0.000 C 
ATOM     14  C12 UNL     1      62.810  56.470 102.709  0.00  0.00    +0.000 C 
ATOM     15  C13 UNL     1      62.998  57.605 101.704  0.00  0.00    +0.000 C 
ATOM     16  C14 UNL     1      61.880  57.407 100.640  0.00  0.00    +0.000 C 
ATOM     17  C15 UNL     1      66.231  58.858  99.634  0.00  0.00    +0.000 C 
ATOM     18  C16 UNL     1      67.208  59.798 100.373  0.00  0.00    +0.000 C 
ATOM     19  C17 UNL     1      68.618  59.278 100.109  0.00  0.00    +0.000 C 
ATOM     20  C18 UNL     1      68.466  57.914  99.421  0.00  0.00    +0.000 C 
ATOM     21  H15 UNL     1      60.972  59.838 103.220  0.00  0.00    +0.000 HD
ENDROOT
BRANCH  20  22
ATOM     22  C19 UNL     1      68.893  58.018  97.965  0.00  0.00    +0.000 C 
ATOM     23  O2  UNL     1      69.340  57.003  97.363  0.00  0.00    +0.000 OA
ATOM     24  N2  UNL     1      68.782  59.268  97.270  0.00  0.00    +0.000 N 
ATOM     25  H27 UNL     1      68.379  60.096  97.765  0.00  0.00    +0.000 HD
BRANCH  24  26
ATOM     26  C20 UNL     1      68.922  59.346  95.847  0.00  0.00    +0.000 A 
ATOM     27  C21 UNL     1      67.804  59.072  95.049  0.00  0.00    +0.000 A 
ATOM     28  C22 UNL     1      67.897  59.087  93.648  0.00  0.00    +0.000 A 
ATOM     29  C23 UNL     1      69.120  59.429  93.053  0.00  0.00    +0.000 A 
ATOM     30  C24 UNL     1      70.237  59.719  93.841  0.00  0.00    +0.000 A 
ATOM     31  C25 UNL     1      70.151  59.706  95.244  0.00  0.00    +0.000 A 
BRANCH  31  32
ATOM     32  C26 UNL     1      71.376  60.021  96.076  0.00  0.00    +0.000 C 
ATOM     33  F1  UNL     1      71.090  60.961  97.051  0.00  0.00    +0.000 F 
ATOM     34  F2  UNL     1      71.838  58.883  96.712  0.00  0.00    +0.000 F 
ATOM     35  F3  UNL     1      72.370  60.523  95.258  0.00  0.00    +0.000 F 
ENDBRANCH  31  32
BRANCH  28  36
ATOM     36  C27 UNL     1      66.681  58.831  92.795  0.00  0.00    +0.000 C 
ATOM     37  F4  UNL     1      66.587  59.772  91.783  0.00  0.00    +0.000 F 
ATOM     38  F5  UNL     1      65.548  58.905  93.584  0.00  0.00    +0.000 F 
ATOM     39  F6  UNL     1      66.744  57.576  92.213  0.00  0.00    +0.000 F 
ENDBRANCH  28  36
ENDBRANCH  24  26
ENDBRANCH  20  22
TORSDOF 4
ENDMDL
MODEL 17
REMARK VINA RESULT:      -7.6     12.626     14.343
REMARK  Name = ./S1202.pdb
REMARK  6 active torsions:
REMARK  status: ('A' for Active; 'I' for Inactive)
REMARK    1  A    between atoms: C1_1  and  C2_2
REMARK    2  A    between atoms: C13_15  and  C14_16
REMARK    3  A    between atoms: C18_20  and  C19_21
REMARK    4  A    between atoms: N2_23  and  C20_24
REMARK    5  A    between atoms: C22_26  and  C27_34
REMARK    6  A    between atoms: C25_29  and  C26_30
REMARK                            x       y       z     vdW  Elec       q    Type
REMARK                         _______ _______ _______ _____ _____    ______ ____
ROOT
ATOM      1  C1  UNL     1      72.744  64.719 108.926  0.00  0.00    +0.000 C 
ATOM      2  C2  UNL     1      72.740  65.963 109.861  0.00  0.00    +0.000 C 
ATOM      3  C3  UNL     1      71.312  66.636 109.869  0.00  0.00    +0.000 C 
ATOM      4  C4  UNL     1      71.163  67.914 109.007  0.00  0.00    +0.000 C 
ATOM      5  C5  UNL     1      72.040  67.831 107.745  0.00  0.00    +0.000 C 
ATOM      6  C6  UNL     1      73.548  67.843 108.176  0.00  0.00    +0.000 C 
ATOM      7  C7  UNL     1      74.163  69.274 108.272  0.00  0.00    +0.000 C 
ATOM      8  C8  UNL     1      73.823  70.179 107.091  0.00  0.00    +0.000 C 
ATOM      9  C9  UNL     1      72.301  70.244 106.921  0.00  0.00    +0.000 C 
ATOM     10  N1  UNL     1      71.908  71.221 105.904  0.00  0.00    +0.000 N 
ATOM     11  C10 UNL     1      70.547  71.233 105.467  0.00  0.00    +0.000 C 
ATOM     12  O1  UNL     1      70.102  72.198 104.791  0.00  0.00    +0.000 OA
ATOM     13  C11 UNL     1      69.678  70.094 105.805  0.00  0.00    +0.000 C 
ATOM     14  C12 UNL     1      70.199  68.997 106.373  0.00  0.00    +0.000 C 
ATOM     15  C13 UNL     1      71.704  68.847 106.591  0.00  0.00    +0.000 C 
ATOM     16  C14 UNL     1      72.265  68.297 105.247  0.00  0.00    +0.000 C 
ATOM     17  C15 UNL     1      73.833  66.989 109.476  0.00  0.00    +0.000 C 
ATOM     18  C16 UNL     1      74.060  67.773 110.786  0.00  0.00    +0.000 C 
ATOM     19  C17 UNL     1      73.758  66.819 111.938  0.00  0.00    +0.000 C 
ATOM     20  C18 UNL     1      73.133  65.561 111.320  0.00  0.00    +0.000 C 
ATOM     21  H15 UNL     1      72.584  71.930 105.539  0.00  0.00    +0.000 HD
ENDROOT
BRANCH  20  22
ATOM     22  C19 UNL     1      74.106  64.397 111.420  0.00  0.00    +0.000 C 
ATOM     23  O2  UNL     1      73.706  63.218 111.212  0.00  0.00    +0.000 OA
ATOM     24  N2  UNL     1      75.483  64.635 111.745  0.00  0.00    +0.000 N 
ATOM     25  H27 UNL     1      75.814  65.617 111.883  0.00  0.00    +0.000 HD
BRANCH  24  26
ATOM     26  C20 UNL     1      76.474  63.613 111.593  0.00  0.00    +0.000 A 
ATOM     27  C21 UNL     1      76.753  62.784 112.687  0.00  0.00    +0.000 A 
ATOM     28  C22 UNL     1      77.749  61.797 112.608  0.00  0.00    +0.000 A 
ATOM     29  C23 UNL     1      78.433  61.619 111.397  0.00  0.00    +0.000 A 
ATOM     30  C24 UNL     1      78.151  62.431 110.296  0.00  0.00    +0.000 A 
ATOM     31  C25 UNL     1      77.155  63.421 110.368  0.00  0.00    +0.000 A 
BRANCH  31  32
ATOM     32  C26 UNL     1      76.870  64.290 109.161  0.00  0.00    +0.000 C 
ATOM     33  F1  UNL     1      75.714  63.887 108.516  0.00  0.00    +0.000 F 
ATOM     34  F2  UNL     1      76.701  65.610 109.542  0.00  0.00    +0.000 F 
ATOM     35  F3  UNL     1      77.924  64.202 108.272  0.00  0.00    +0.000 F 
ENDBRANCH  31  32
BRANCH  28  36
ATOM     36  C27 UNL     1      78.016  60.882 113.776  0.00  0.00    +0.000 C 
ATOM     37  F4  UNL     1      78.691  61.556 114.780  0.00  0.00    +0.000 F 
ATOM     38  F5  UNL     1      78.789  59.816 113.352  0.00  0.00    +0.000 F 
ATOM     39  F6  UNL     1      76.831  60.398 114.302  0.00  0.00    +0.000 F 
ENDBRANCH  28  36
ENDBRANCH  24  26
ENDBRANCH  20  22
TORSDOF 4
ENDMDL
MODEL 18
REMARK VINA RESULT:      -7.6     11.362     13.508
REMARK  Name = ./S1202.pdb
REMARK  6 active torsions:
REMARK  status: ('A' for Active; 'I' for Inactive)
REMARK    1  A    between atoms: C1_1  and  C2_2
REMARK    2  A    between atoms: C13_15  and  C14_16
REMARK    3  A    between atoms: C18_20  and  C19_21
REMARK    4  A    between atoms: N2_23  and  C20_24
REMARK    5  A    between atoms: C22_26  and  C27_34
REMARK    6  A    between atoms: C25_29  and  C26_30
REMARK                            x       y       z     vdW  Elec       q    Type
REMARK                         _______ _______ _______ _____ _____    ______ ____
ROOT
ATOM      1  C1  UNL     1      74.385  65.152 111.964  0.00  0.00    +0.000 C 
ATOM      2  C2  UNL     1      74.758  64.693 110.525  0.00  0.00    +0.000 C 
ATOM      3  C3  UNL     1      75.304  65.915 109.686  0.00  0.00    +0.000 C 
ATOM      4  C4  UNL     1      74.306  66.543 108.682  0.00  0.00    +0.000 C 
ATOM      5  C5  UNL     1      72.867  66.478 109.223  0.00  0.00    +0.000 C 
ATOM      6  C6  UNL     1      72.424  64.976 109.300  0.00  0.00    +0.000 C 
ATOM      7  C7  UNL     1      71.749  64.450 107.995  0.00  0.00    +0.000 C 
ATOM      8  C8  UNL     1      70.709  65.399 107.406  0.00  0.00    +0.000 C 
ATOM      9  C9  UNL     1      71.344  66.776 107.182  0.00  0.00    +0.000 C 
ATOM     10  N1  UNL     1      70.441  67.684 106.474  0.00  0.00    +0.000 N 
ATOM     11  C10 UNL     1      70.795  69.067 106.394  0.00  0.00    +0.000 C 
ATOM     12  O1  UNL     1      70.195  69.835 105.597  0.00  0.00    +0.000 OA
ATOM     13  C11 UNL     1      71.861  69.582 107.269  0.00  0.00    +0.000 C 
ATOM     14  C12 UNL     1      72.375  68.803 108.232  0.00  0.00    +0.000 C 
ATOM     15  C13 UNL     1      71.812  67.413 108.522  0.00  0.00    +0.000 C 
ATOM     16  C14 UNL     1      70.613  67.643 109.487  0.00  0.00    +0.000 C 
ATOM     17  C15 UNL     1      73.573  64.011 109.801  0.00  0.00    +0.000 C 
ATOM     18  C16 UNL     1      74.265  63.141 108.729  0.00  0.00    +0.000 C 
ATOM     19  C17 UNL     1      75.631  62.748 109.284  0.00  0.00    +0.000 C 
ATOM     20  C18 UNL     1      75.842  63.566 110.566  0.00  0.00    +0.000 C 
ATOM     21  H15 UNL     1      69.584  67.332 105.989  0.00  0.00    +0.000 HD
ENDROOT
BRANCH  20  22
ATOM     22  C19 UNL     1      75.768  62.655 111.781  0.00  0.00    +0.000 C 
ATOM     23  O2  UNL     1      74.919  61.722 111.821  0.00  0.00    +0.000 OA
ATOM     24  N2  UNL     1      76.666  62.849 112.882  0.00  0.00    +0.000 N 
ATOM     25  H27 UNL     1      77.389  63.602 112.827  0.00  0.00    +0.000 HD
BRANCH  24  26
ATOM     26  C20 UNL     1      76.806  61.866 113.914  0.00  0.00    +0.000 A 
ATOM     27  C21 UNL     1      77.688  60.798 113.706  0.00  0.00    +0.000 A 
ATOM     28  C22 UNL     1      77.827  59.782 114.665  0.00  0.00    +0.000 A 
ATOM     29  C23 UNL     1      77.103  59.874 115.862  0.00  0.00    +0.000 A 
ATOM     30  C24 UNL     1      76.232  60.943 116.085  0.00  0.00    +0.000 A 
ATOM     31  C25 UNL     1      76.087  61.965 115.129  0.00  0.00    +0.000 A 
BRANCH  31  32
ATOM     32  C26 UNL     1      75.135  63.112 115.392  0.00  0.00    +0.000 C 
ATOM     33  F1  UNL     1      75.745  64.332 115.158  0.00  0.00    +0.000 F 
ATOM     34  F2  UNL     1      74.030  63.027 114.564  0.00  0.00    +0.000 F 
ATOM     35  F3  UNL     1      74.722  63.072 116.711  0.00  0.00    +0.000 F 
ENDBRANCH  31  32
BRANCH  28  36
ATOM     36  C27 UNL     1      78.809  58.657 114.453  0.00  0.00    +0.000 C 
ATOM     37  F4  UNL     1      79.737  58.620 115.480  0.00  0.00    +0.000 F 
ATOM     38  F5  UNL     1      79.471  58.850 113.255  0.00  0.00    +0.000 F 
ATOM     39  F6  UNL     1      78.156  57.436 114.416  0.00  0.00    +0.000 F 
ENDBRANCH  28  36
ENDBRANCH  24  26
ENDBRANCH  20  22
TORSDOF 4
ENDMDL
MODEL 19
REMARK VINA RESULT:      -7.5     11.554     13.497
REMARK  Name = ./S1202.pdb
REMARK  6 active torsions:
REMARK  status: ('A' for Active; 'I' for Inactive)
REMARK    1  A    between atoms: C1_1  and  C2_2
REMARK    2  A    between atoms: C13_15  and  C14_16
REMARK    3  A    between atoms: C18_20  and  C19_21
REMARK    4  A    between atoms: N2_23  and  C20_24
REMARK    5  A    between atoms: C22_26  and  C27_34
REMARK    6  A    between atoms: C25_29  and  C26_30
REMARK                            x       y       z     vdW  Elec       q    Type
REMARK                         _______ _______ _______ _____ _____    ______ ____
ROOT
ATOM      1  C1  UNL     1      74.152  67.387 108.723  0.00  0.00    +0.000 C 
ATOM      2  C2  UNL     1      72.969  66.639 108.043  0.00  0.00    +0.000 C 
ATOM      3  C3  UNL     1      73.249  66.463 106.499  0.00  0.00    +0.000 C 
ATOM      4  C4  UNL     1      72.503  67.445 105.562  0.00  0.00    +0.000 C 
ATOM      5  C5  UNL     1      72.336  68.821 106.228  0.00  0.00    +0.000 C 
ATOM      6  C6  UNL     1      71.374  68.675 107.458  0.00  0.00    +0.000 C 
ATOM      7  C7  UNL     1      69.867  68.879 107.107  0.00  0.00    +0.000 C 
ATOM      8  C8  UNL     1      69.594  70.088 106.216  0.00  0.00    +0.000 C 
ATOM      9  C9  UNL     1      70.447  69.989 104.947  0.00  0.00    +0.000 C 
ATOM     10  N1  UNL     1      70.113  71.038 103.982  0.00  0.00    +0.000 N 
ATOM     11  C10 UNL     1      70.973  71.221 102.855  0.00  0.00    +0.000 C 
ATOM     12  O1  UNL     1      70.605  71.927 101.879  0.00  0.00    +0.000 OA
ATOM     13  C11 UNL     1      72.300  70.585 102.859  0.00  0.00    +0.000 C 
ATOM     14  C12 UNL     1      72.753  69.981 103.967  0.00  0.00    +0.000 C 
ATOM     15  C13 UNL     1      71.967  70.020 105.277  0.00  0.00    +0.000 C 
ATOM     16  C14 UNL     1      72.368  71.358 105.963  0.00  0.00    +0.000 C 
ATOM     17  C15 UNL     1      71.613  67.346 108.282  0.00  0.00    +0.000 C 
ATOM     18  C16 UNL     1      70.583  66.212 108.086  0.00  0.00    +0.000 C 
ATOM     19  C17 UNL     1      71.268  64.909 108.489  0.00  0.00    +0.000 C 
ATOM     20  C18 UNL     1      72.754  65.234 108.695  0.00  0.00    +0.000 C 
ATOM     21  H15 UNL     1      69.242  71.608 104.077  0.00  0.00    +0.000 HD
ENDROOT
BRANCH  20  22
ATOM     22  C19 UNL     1      73.100  65.158 110.174  0.00  0.00    +0.000 C 
ATOM     23  O2  UNL     1      72.186  65.209 111.042  0.00  0.00    +0.000 OA
ATOM     24  N2  UNL     1      74.467  65.022 110.587  0.00  0.00    +0.000 N 
ATOM     25  H27 UNL     1      75.216  64.946 109.861  0.00  0.00    +0.000 HD
BRANCH  24  26
ATOM     26  C20 UNL     1      74.810  64.687 111.936  0.00  0.00    +0.000 A 
ATOM     27  C21 UNL     1      74.873  63.333 112.294  0.00  0.00    +0.000 A 
ATOM     28  C22 UNL     1      75.158  62.950 113.614  0.00  0.00    +0.000 A 
ATOM     29  C23 UNL     1      75.426  63.944 114.567  0.00  0.00    +0.000 A 
ATOM     30  C24 UNL     1      75.381  65.295 114.216  0.00  0.00    +0.000 A 
ATOM     31  C25 UNL     1      75.096  65.687 112.896  0.00  0.00    +0.000 A 
BRANCH  31  32
ATOM     32  C26 UNL     1      75.050  67.158 112.540  0.00  0.00    +0.000 C 
ATOM     33  F1  UNL     1      75.863  67.436 111.455  0.00  0.00    +0.000 F 
ATOM     34  F2  UNL     1      73.762  67.538 112.210  0.00  0.00    +0.000 F 
ATOM     35  F3  UNL     1      75.485  67.904 113.620  0.00  0.00    +0.000 F 
ENDBRANCH  31  32
BRANCH  28  36
ATOM     36  C27 UNL     1      75.264  61.492 113.983  0.00  0.00    +0.000 C 
ATOM     37  F4  UNL     1      75.110  61.322 115.349  0.00  0.00    +0.000 F 
ATOM     38  F5  UNL     1      76.507  61.017 113.609  0.00  0.00    +0.000 F 
ATOM     39  F6  UNL     1      74.286  60.750 113.343  0.00  0.00    +0.000 F 
ENDBRANCH  28  36
ENDBRANCH  24  26
ENDBRANCH  20  22
TORSDOF 4
ENDMDL
MODEL 20
REMARK VINA RESULT:      -7.5     10.858     14.860
REMARK  Name = ./S1202.pdb
REMARK  6 active torsions:
REMARK  status: ('A' for Active; 'I' for Inactive)
REMARK    1  A    between atoms: C1_1  and  C2_2
REMARK    2  A    between atoms: C13_15  and  C14_16
REMARK    3  A    between atoms: C18_20  and  C19_21
REMARK    4  A    between atoms: N2_23  and  C20_24
REMARK    5  A    between atoms: C22_26  and  C27_34
REMARK    6  A    between atoms: C25_29  and  C26_30
REMARK                            x       y       z     vdW  Elec       q    Type
REMARK                         _______ _______ _______ _____ _____    ______ ____
ROOT
ATOM      1  C1  UNL     1      70.502  62.659 104.393  0.00  0.00    +0.000 C 
ATOM      2  C2  UNL     1      72.035  62.620 104.653  0.00  0.00    +0.000 C 
ATOM      3  C3  UNL     1      72.334  62.000 106.073  0.00  0.00    +0.000 C 
ATOM      4  C4  UNL     1      72.683  63.013 107.193  0.00  0.00    +0.000 C 
ATOM      5  C5  UNL     1      71.910  64.330 107.002  0.00  0.00    +0.000 C 
ATOM      6  C6  UNL     1      72.417  65.029 105.693  0.00  0.00    +0.000 C 
ATOM      7  C7  UNL     1      73.621  65.995 105.921  0.00  0.00    +0.000 C 
ATOM      8  C8  UNL     1      73.456  66.921 107.124  0.00  0.00    +0.000 C 
ATOM      9  C9  UNL     1      73.177  66.083 108.377  0.00  0.00    +0.000 C 
ATOM     10  N1  UNL     1      73.166  66.904 109.589  0.00  0.00    +0.000 N 
ATOM     11  C10 UNL     1      72.694  66.313 110.803  0.00  0.00    +0.000 C 
ATOM     12  O1  UNL     1      72.893  66.881 111.909  0.00  0.00    +0.000 OA
ATOM     13  C11 UNL     1      71.957  65.041 110.738  0.00  0.00    +0.000 C 
ATOM     14  C12 UNL     1      71.599  64.531 109.550  0.00  0.00    +0.000 C 
ATOM     15  C13 UNL     1      71.845  65.290 108.247  0.00  0.00    +0.000 C 
ATOM     16  C14 UNL     1      70.630  66.250 108.089  0.00  0.00    +0.000 C 
ATOM     17  C15 UNL     1      72.690  64.015 104.510  0.00  0.00    +0.000 C 
ATOM     18  C16 UNL     1      74.167  63.685 104.205  0.00  0.00    +0.000 C 
ATOM     19  C17 UNL     1      74.185  62.345 103.475  0.00  0.00    +0.000 C 
ATOM     20  C18 UNL     1      72.762  61.776 103.555  0.00  0.00    +0.000 C 
ATOM     21  H15 UNL     1      73.542  67.879 109.591  0.00  0.00    +0.000 HD
ENDROOT
BRANCH  20  22
ATOM     22  C19 UNL     1      72.109  61.820 102.182  0.00  0.00    +0.000 C 
ATOM     23  O2  UNL     1      71.908  62.928 101.612  0.00  0.00    +0.000 OA
ATOM     24  N2  UNL     1      71.727  60.602 101.527  0.00  0.00    +0.000 N 
ATOM     25  H27 UNL     1      71.928  59.687 101.990  0.00  0.00    +0.000 HD
BRANCH  24  26
ATOM     26  C20 UNL     1      71.357  60.582 100.144  0.00  0.00    +0.000 A 
ATOM     27  C21 UNL     1      69.995  60.592  99.816  0.00  0.00    +0.000 A 
ATOM     28  C22 UNL     1      69.576  60.525  98.478  0.00  0.00    +0.000 A 
ATOM     29  C23 UNL     1      70.544  60.495  97.464  0.00  0.00    +0.000 A 
ATOM     30  C24 UNL     1      71.905  60.499  97.781  0.00  0.00    +0.000 A 
ATOM     31  C25 UNL     1      72.332  60.566  99.119  0.00  0.00    +0.000 A 
BRANCH  31  32
ATOM     32  C26 UNL     1      73.812  60.568  99.437  0.00  0.00    +0.000 C 
ATOM     33  F1  UNL     1      74.089  59.767 100.531  0.00  0.00    +0.000 F 
ATOM     34  F2  UNL     1      74.540  60.084  98.365  0.00  0.00    +0.000 F 
ATOM     35  F3  UNL     1      74.219  61.858  99.721  0.00  0.00    +0.000 F 
ENDBRANCH  31  32
BRANCH  28  36
ATOM     36  C27 UNL     1      68.110  60.577  98.129  0.00  0.00    +0.000 C 
ATOM     37  F4  UNL     1      67.655  59.327  97.745  0.00  0.00    +0.000 F 
ATOM     38  F5  UNL     1      67.921  61.464  97.086  0.00  0.00    +0.000 F 
ATOM     39  F6  UNL     1      67.361  60.994  99.217  0.00  0.00    +0.000 F 
ENDBRANCH  28  36
ENDBRANCH  24  26
ENDBRANCH  20  22
TORSDOF 4
ENDMDL
