MODEL 1
REMARK VINA RESULT:      -7.4      0.000      0.000
REMARK  Name = ./S1261.pdb
REMARK  6 active torsions:
REMARK  status: ('A' for Active; 'I' for Inactive)
REMARK    1  A    between atoms: C1_1  and  C2_2
REMARK    2  A    between atoms: C5_5  and  C8_8
REMARK    3  A    between atoms: C10_10  and  C17_23
REMARK    4  A    between atoms: N2_12  and  C11_13
REMARK    5  A    between atoms: C14_16  and  S1_19
REMARK    6  A    between atoms: S1_19  and  N3_20
REMARK                            x       y       z     vdW  Elec       q    Type
REMARK                         _______ _______ _______ _____ _____    ______ ____
ROOT
ATOM      1  C8  UNL     1      61.689  58.473 102.597  0.00  0.00    +0.000 A 
ATOM      2  C9  UNL     1      60.505  58.264 101.915  0.00  0.00    +0.000 A 
ATOM      3  C10 UNL     1      59.569  58.057 102.910  0.00  0.00    +0.000 A 
ATOM      4  N1  UNL     1      60.163  58.105 104.119  0.00  0.00    +0.000 NA
ATOM      5  N2  UNL     1      61.448  58.361 103.927  0.00  0.00    +0.000 N 
ENDROOT
BRANCH   1  10
ATOM      6  C1  UNL     1      66.723  59.918 100.117  0.00  0.00    +0.000 C 
ATOM      7  C2  UNL     1      65.408  59.537 100.727  0.00  0.00    +0.000 A 
ATOM      8  C3  UNL     1      64.384  60.486 100.851  0.00  0.00    +0.000 A 
ATOM      9  C4  UNL     1      63.171  60.142 101.453  0.00  0.00    +0.000 A 
ATOM     10  C5  UNL     1      62.973  58.849 101.964  0.00  0.00    +0.000 A 
ATOM     11  C6  UNL     1      63.999  57.899 101.838  0.00  0.00    +0.000 A 
ATOM     12  C7  UNL     1      65.212  58.244 101.235  0.00  0.00    +0.000 A 
ENDBRANCH   1  10
BRANCH   5  13
ATOM     13  C11 UNL     1      62.395  58.407 105.006  0.00  0.00    +0.000 A 
ATOM     14  C12 UNL     1      62.728  59.638 105.593  0.00  0.00    +0.000 A 
ATOM     15  C13 UNL     1      63.637  59.694 106.652  0.00  0.00    +0.000 A 
ATOM     16  C14 UNL     1      64.220  58.519 107.144  0.00  0.00    +0.000 A 
ATOM     17  C15 UNL     1      63.869  57.284 106.582  0.00  0.00    +0.000 A 
ATOM     18  C16 UNL     1      62.958  57.227 105.524  0.00  0.00    +0.000 A 
BRANCH  16  19
ATOM     19  S1  UNL     1      65.356  58.590 108.487  0.00  0.00    +0.000 S 
ATOM     20  O1  UNL     1      66.764  58.638 107.962  0.00  0.00    +0.000 OA
ATOM     21  O2  UNL     1      65.103  59.830 109.300  0.00  0.00    +0.000 OA
BRANCH  19  22
ATOM     22  N3  UNL     1      65.159  57.191 109.482  0.00  0.00    +0.000 NA
ATOM     23  H13 UNL     1      65.811  57.299 110.292  0.00  0.00    +0.000 HD
ATOM     24  H14 UNL     1      65.497  56.372 108.930  0.00  0.00    +0.000 HD
ENDBRANCH  19  22
ENDBRANCH  16  19
ENDBRANCH   5  13
BRANCH   3  25
ATOM     25  C17 UNL     1      58.125  57.732 102.698  0.00  0.00    +0.000 C 
ATOM     26  F1  UNL     1      57.891  57.476 101.360  0.00  0.00    +0.000 F 
ATOM     27  F2  UNL     1      57.336  58.796 103.097  0.00  0.00    +0.000 F 
ATOM     28  F3  UNL     1      57.791  56.616 103.441  0.00  0.00    +0.000 F 
ENDBRANCH   3  25
TORSDOF 5
ENDMDL
MODEL 2
REMARK VINA RESULT:      -6.8     20.509     23.459
REMARK  Name = ./S1261.pdb
REMARK  6 active torsions:
REMARK  status: ('A' for Active; 'I' for Inactive)
REMARK    1  A    between atoms: C1_1  and  C2_2
REMARK    2  A    between atoms: C5_5  and  C8_8
REMARK    3  A    between atoms: C10_10  and  C17_23
REMARK    4  A    between atoms: N2_12  and  C11_13
REMARK    5  A    between atoms: C14_16  and  S1_19
REMARK    6  A    between atoms: S1_19  and  N3_20
REMARK                            x       y       z     vdW  Elec       q    Type
REMARK                         _______ _______ _______ _____ _____    ______ ____
ROOT
ATOM      1  C8  UNL     1      78.887  69.244  94.463  0.00  0.00    +0.000 A 
ATOM      2  C9  UNL     1      79.401  68.023  94.066  0.00  0.00    +0.000 A 
ATOM      3  C10 UNL     1      80.732  68.281  93.801  0.00  0.00    +0.000 A 
ATOM      4  N1  UNL     1      80.995  69.588  93.994  0.00  0.00    +0.000 NA
ATOM      5  N2  UNL     1      79.877  70.170  94.398  0.00  0.00    +0.000 N 
ENDROOT
BRANCH   1  10
ATOM      6  C1  UNL     1      73.487  70.079  96.388  0.00  0.00    +0.000 C 
ATOM      7  C2  UNL     1      74.881  69.829  95.899  0.00  0.00    +0.000 A 
ATOM      8  C3  UNL     1      75.964  69.890  96.787  0.00  0.00    +0.000 A 
ATOM      9  C4  UNL     1      77.269  69.694  96.323  0.00  0.00    +0.000 A 
ATOM     10  C5  UNL     1      77.511  69.460  94.960  0.00  0.00    +0.000 A 
ATOM     11  C6  UNL     1      76.425  69.398  94.073  0.00  0.00    +0.000 A 
ATOM     12  C7  UNL     1      75.121  69.593  94.536  0.00  0.00    +0.000 A 
ENDBRANCH   1  10
BRANCH   5  13
ATOM     13  C11 UNL     1      79.781  71.585  94.627  0.00  0.00    +0.000 A 
ATOM     14  C12 UNL     1      79.251  72.065  95.835  0.00  0.00    +0.000 A 
ATOM     15  C13 UNL     1      79.166  73.439  96.074  0.00  0.00    +0.000 A 
ATOM     16  C14 UNL     1      79.618  74.351  95.112  0.00  0.00    +0.000 A 
ATOM     17  C15 UNL     1      80.177  73.878  93.917  0.00  0.00    +0.000 A 
ATOM     18  C16 UNL     1      80.263  72.503  93.678  0.00  0.00    +0.000 A 
BRANCH  16  19
ATOM     19  S1  UNL     1      79.522  76.081  95.421  0.00  0.00    +0.000 S 
ATOM     20  O1  UNL     1      78.346  76.376  96.310  0.00  0.00    +0.000 OA
ATOM     21  O2  UNL     1      80.775  76.545  96.111  0.00  0.00    +0.000 OA
BRANCH  19  22
ATOM     22  N3  UNL     1      79.337  76.924  93.923  0.00  0.00    +0.000 NA
ATOM     23  H13 UNL     1      79.416  77.944  94.136  0.00  0.00    +0.000 HD
ATOM     24  H14 UNL     1      78.359  76.758  93.598  0.00  0.00    +0.000 HD
ENDBRANCH  19  22
ENDBRANCH  16  19
ENDBRANCH   5  13
BRANCH   3  25
ATOM     25  C17 UNL     1      81.728  67.293  93.284  0.00  0.00    +0.000 C 
ATOM     26  F1  UNL     1      82.082  66.411  94.288  0.00  0.00    +0.000 F 
ATOM     27  F2  UNL     1      82.862  67.950  92.842  0.00  0.00    +0.000 F 
ATOM     28  F3  UNL     1      81.173  66.588  92.233  0.00  0.00    +0.000 F 
ENDBRANCH   3  25
TORSDOF 5
ENDMDL
MODEL 3
REMARK VINA RESULT:      -6.8     13.401     15.185
REMARK  Name = ./S1261.pdb
REMARK  6 active torsions:
REMARK  status: ('A' for Active; 'I' for Inactive)
REMARK    1  A    between atoms: C1_1  and  C2_2
REMARK    2  A    between atoms: C5_5  and  C8_8
REMARK    3  A    between atoms: C10_10  and  C17_23
REMARK    4  A    between atoms: N2_12  and  C11_13
REMARK    5  A    between atoms: C14_16  and  S1_19
REMARK    6  A    between atoms: S1_19  and  N3_20
REMARK                            x       y       z     vdW  Elec       q    Type
REMARK                         _______ _______ _______ _____ _____    ______ ____
ROOT
ATOM      1  C8  UNL     1      72.664  67.016 107.757  0.00  0.00    +0.000 A 
ATOM      2  C9  UNL     1      73.563  66.861 108.796  0.00  0.00    +0.000 A 
ATOM      3  C10 UNL     1      73.803  68.148 109.236  0.00  0.00    +0.000 A 
ATOM      4  N1  UNL     1      73.114  69.029 108.484  0.00  0.00    +0.000 NA
ATOM      5  N2  UNL     1      72.422  68.340 107.589  0.00  0.00    +0.000 N 
ENDROOT
BRANCH   1  10
ATOM      6  C1  UNL     1      70.148  62.653 104.892  0.00  0.00    +0.000 C 
ATOM      7  C2  UNL     1      70.811  63.759 105.658  0.00  0.00    +0.000 A 
ATOM      8  C3  UNL     1      70.125  64.413 106.691  0.00  0.00    +0.000 A 
ATOM      9  C4  UNL     1      70.727  65.469 107.380  0.00  0.00    +0.000 A 
ATOM     10  C5  UNL     1      72.016  65.904 107.028  0.00  0.00    +0.000 A 
ATOM     11  C6  UNL     1      72.701  65.247 105.994  0.00  0.00    +0.000 A 
ATOM     12  C7  UNL     1      72.098  64.190 105.306  0.00  0.00    +0.000 A 
ENDBRANCH   1  10
BRANCH   5  13
ATOM     13  C11 UNL     1      71.629  68.974 106.572  0.00  0.00    +0.000 A 
ATOM     14  C12 UNL     1      70.306  69.350 106.850  0.00  0.00    +0.000 A 
ATOM     15  C13 UNL     1      69.529  69.979 105.873  0.00  0.00    +0.000 A 
ATOM     16  C14 UNL     1      70.069  70.248 104.609  0.00  0.00    +0.000 A 
ATOM     17  C15 UNL     1      71.400  69.903 104.336  0.00  0.00    +0.000 A 
ATOM     18  C16 UNL     1      72.177  69.275 105.314  0.00  0.00    +0.000 A 
BRANCH  16  19
ATOM     19  S1  UNL     1      69.094  71.053 103.385  0.00  0.00    +0.000 S 
ATOM     20  O1  UNL     1      69.979  71.566 102.283  0.00  0.00    +0.000 OA
ATOM     21  O2  UNL     1      68.111  70.078 102.797  0.00  0.00    +0.000 OA
BRANCH  19  22
ATOM     22  N3  UNL     1      68.243  72.374 104.104  0.00  0.00    +0.000 NA
ATOM     23  H13 UNL     1      68.038  72.103 105.092  0.00  0.00    +0.000 HD
ATOM     24  H14 UNL     1      67.324  72.450 103.614  0.00  0.00    +0.000 HD
ENDBRANCH  19  22
ENDBRANCH  16  19
ENDBRANCH   5  13
BRANCH   3  25
ATOM     25  C17 UNL     1      74.755  68.538 110.322  0.00  0.00    +0.000 C 
ATOM     26  F1  UNL     1      74.814  69.915 110.425  0.00  0.00    +0.000 F 
ATOM     27  F2  UNL     1      76.020  68.053 110.041  0.00  0.00    +0.000 F 
ATOM     28  F3  UNL     1      74.322  68.008 111.523  0.00  0.00    +0.000 F 
ENDBRANCH   3  25
TORSDOF 5
ENDMDL
MODEL 4
REMARK VINA RESULT:      -6.7     11.627     13.159
REMARK  Name = ./S1261.pdb
REMARK  6 active torsions:
REMARK  status: ('A' for Active; 'I' for Inactive)
REMARK    1  A    between atoms: C1_1  and  C2_2
REMARK    2  A    between atoms: C5_5  and  C8_8
REMARK    3  A    between atoms: C10_10  and  C17_23
REMARK    4  A    between atoms: N2_12  and  C11_13
REMARK    5  A    between atoms: C14_16  and  S1_19
REMARK    6  A    between atoms: S1_19  and  N3_20
REMARK                            x       y       z     vdW  Elec       q    Type
REMARK                         _______ _______ _______ _____ _____    ______ ____
ROOT
ATOM      1  C8  UNL     1      71.430  65.121 107.159  0.00  0.00    +0.000 A 
ATOM      2  C9  UNL     1      71.085  64.236 106.155  0.00  0.00    +0.000 A 
ATOM      3  C10 UNL     1      71.342  62.990 106.693  0.00  0.00    +0.000 A 
ATOM      4  N1  UNL     1      71.844  63.120 107.937  0.00  0.00    +0.000 NA
ATOM      5  N2  UNL     1      71.894  64.413 108.219  0.00  0.00    +0.000 N 
ENDROOT
BRANCH   1  10
ATOM      6  C1  UNL     1      70.633  70.857 106.955  0.00  0.00    +0.000 C 
ATOM      7  C2  UNL     1      70.869  69.378 107.026  0.00  0.00    +0.000 A 
ATOM      8  C3  UNL     1      71.673  68.743 106.069  0.00  0.00    +0.000 A 
ATOM      9  C4  UNL     1      71.862  67.358 106.113  0.00  0.00    +0.000 A 
ATOM     10  C5  UNL     1      71.229  66.585 107.100  0.00  0.00    +0.000 A 
ATOM     11  C6  UNL     1      70.425  67.224 108.058  0.00  0.00    +0.000 A 
ATOM     12  C7  UNL     1      70.237  68.608 108.014  0.00  0.00    +0.000 A 
ENDBRANCH   1  10
BRANCH   5  13
ATOM     13  C11 UNL     1      72.450  64.914 109.445  0.00  0.00    +0.000 A 
ATOM     14  C12 UNL     1      73.735  65.478 109.451  0.00  0.00    +0.000 A 
ATOM     15  C13 UNL     1      74.281  65.981 110.635  0.00  0.00    +0.000 A 
ATOM     16  C14 UNL     1      73.546  65.936 111.826  0.00  0.00    +0.000 A 
ATOM     17  C15 UNL     1      72.250  65.402 111.820  0.00  0.00    +0.000 A 
ATOM     18  C16 UNL     1      71.703  64.899 110.636  0.00  0.00    +0.000 A 
BRANCH  16  19
ATOM     19  S1  UNL     1      74.231  66.582 113.313  0.00  0.00    +0.000 S 
ATOM     20  O1  UNL     1      73.129  66.898 114.287  0.00  0.00    +0.000 OA
ATOM     21  O2  UNL     1      75.146  65.564 113.935  0.00  0.00    +0.000 OA
BRANCH  19  22
ATOM     22  N3  UNL     1      75.117  68.023 112.959  0.00  0.00    +0.000 NA
ATOM     23  H13 UNL     1      75.409  68.434 113.875  0.00  0.00    +0.000 HD
ATOM     24  H14 UNL     1      74.447  68.696 112.526  0.00  0.00    +0.000 HD
ENDBRANCH  19  22
ENDBRANCH  16  19
ENDBRANCH   5  13
BRANCH   3  25
ATOM     25  C17 UNL     1      71.184  61.682 105.986  0.00  0.00    +0.000 C 
ATOM     26  F1  UNL     1      71.558  60.646 106.821  0.00  0.00    +0.000 F 
ATOM     27  F2  UNL     1      71.979  61.656 104.853  0.00  0.00    +0.000 F 
ATOM     28  F3  UNL     1      69.862  61.516 105.617  0.00  0.00    +0.000 F 
ENDBRANCH   3  25
TORSDOF 5
ENDMDL
MODEL 5
REMARK VINA RESULT:      -6.6      2.972      4.864
REMARK  Name = ./S1261.pdb
REMARK  6 active torsions:
REMARK  status: ('A' for Active; 'I' for Inactive)
REMARK    1  A    between atoms: C1_1  and  C2_2
REMARK    2  A    between atoms: C5_5  and  C8_8
REMARK    3  A    between atoms: C10_10  and  C17_23
REMARK    4  A    between atoms: N2_12  and  C11_13
REMARK    5  A    between atoms: C14_16  and  S1_19
REMARK    6  A    between atoms: S1_19  and  N3_20
REMARK                            x       y       z     vdW  Elec       q    Type
REMARK                         _______ _______ _______ _____ _____    ______ ____
ROOT
ATOM      1  C8  UNL     1      62.097  57.818 103.718  0.00  0.00    +0.000 A 
ATOM      2  C9  UNL     1      61.971  58.114 102.374  0.00  0.00    +0.000 A 
ATOM      3  C10 UNL     1      62.909  59.103 102.151  0.00  0.00    +0.000 A 
ATOM      4  N1  UNL     1      63.540  59.408 103.302  0.00  0.00    +0.000 NA
ATOM      5  N2  UNL     1      63.049  58.625 104.251  0.00  0.00    +0.000 N 
ENDROOT
BRANCH   1  10
ATOM      6  C1  UNL     1      59.281  53.549 106.442  0.00  0.00    +0.000 C 
ATOM      7  C2  UNL     1      60.035  54.652 105.762  0.00  0.00    +0.000 A 
ATOM      8  C3  UNL     1      59.844  55.984 106.152  0.00  0.00    +0.000 A 
ATOM      9  C4  UNL     1      60.518  57.016 105.493  0.00  0.00    +0.000 A 
ATOM     10  C5  UNL     1      61.374  56.733 104.416  0.00  0.00    +0.000 A 
ATOM     11  C6  UNL     1      61.564  55.397 104.027  0.00  0.00    +0.000 A 
ATOM     12  C7  UNL     1      60.890  54.365 104.687  0.00  0.00    +0.000 A 
ENDBRANCH   1  10
BRANCH   5  13
ATOM     13  C11 UNL     1      63.448  58.736 105.627  0.00  0.00    +0.000 A 
ATOM     14  C12 UNL     1      62.936  59.773 106.422  0.00  0.00    +0.000 A 
ATOM     15  C13 UNL     1      63.307  59.883 107.765  0.00  0.00    +0.000 A 
ATOM     16  C14 UNL     1      64.188  58.953 108.332  0.00  0.00    +0.000 A 
ATOM     17  C15 UNL     1      64.678  57.898 107.550  0.00  0.00    +0.000 A 
ATOM     18  C16 UNL     1      64.306  57.787 106.207  0.00  0.00    +0.000 A 
BRANCH  16  19
ATOM     19  S1  UNL     1      64.644  59.086 110.027  0.00  0.00    +0.000 S 
ATOM     20  O1  UNL     1      66.005  58.485 110.238  0.00  0.00    +0.000 OA
ATOM     21  O2  UNL     1      64.690  60.534 110.428  0.00  0.00    +0.000 OA
BRANCH  19  22
ATOM     22  N3  UNL     1      63.487  58.249 111.001  0.00  0.00    +0.000 NA
ATOM     23  H13 UNL     1      62.540  58.522 110.652  0.00  0.00    +0.000 HD
ATOM     24  H14 UNL     1      63.572  58.627 111.970  0.00  0.00    +0.000 HD
ENDBRANCH  19  22
ENDBRANCH  16  19
ENDBRANCH   5  13
BRANCH   3  25
ATOM     25  C17 UNL     1      63.142  59.812 100.855  0.00  0.00    +0.000 C 
ATOM     26  F1  UNL     1      64.165  59.197 100.159  0.00  0.00    +0.000 F 
ATOM     27  F2  UNL     1      63.487  61.130 101.091  0.00  0.00    +0.000 F 
ATOM     28  F3  UNL     1      61.987  59.773 100.096  0.00  0.00    +0.000 F 
ENDBRANCH   3  25
TORSDOF 5
ENDMDL
MODEL 6
REMARK VINA RESULT:      -6.5     11.986     13.636
REMARK  Name = ./S1261.pdb
REMARK  6 active torsions:
REMARK  status: ('A' for Active; 'I' for Inactive)
REMARK    1  A    between atoms: C1_1  and  C2_2
REMARK    2  A    between atoms: C5_5  and  C8_8
REMARK    3  A    between atoms: C10_10  and  C17_23
REMARK    4  A    between atoms: N2_12  and  C11_13
REMARK    5  A    between atoms: C14_16  and  S1_19
REMARK    6  A    between atoms: S1_19  and  N3_20
REMARK                            x       y       z     vdW  Elec       q    Type
REMARK                         _______ _______ _______ _____ _____    ______ ____
ROOT
ATOM      1  C8  UNL     1      72.115  64.424 107.820  0.00  0.00    +0.000 A 
ATOM      2  C9  UNL     1      71.968  63.433 106.869  0.00  0.00    +0.000 A 
ATOM      3  C10 UNL     1      72.433  62.289 107.489  0.00  0.00    +0.000 A 
ATOM      4  N1  UNL     1      72.866  62.583 108.731  0.00  0.00    +0.000 NA
ATOM      5  N2  UNL     1      72.670  63.877 108.931  0.00  0.00    +0.000 N 
ENDROOT
BRANCH   1  10
ATOM      6  C1  UNL     1      70.308  69.893 107.190  0.00  0.00    +0.000 C 
ATOM      7  C2  UNL     1      70.749  68.467 107.332  0.00  0.00    +0.000 A 
ATOM      8  C3  UNL     1      70.205  67.656 108.338  0.00  0.00    +0.000 A 
ATOM      9  C4  UNL     1      70.643  66.338 108.495  0.00  0.00    +0.000 A 
ATOM     10  C5  UNL     1      71.651  65.820 107.666  0.00  0.00    +0.000 A 
ATOM     11  C6  UNL     1      72.194  66.634 106.659  0.00  0.00    +0.000 A 
ATOM     12  C7  UNL     1      71.755  67.952 106.501  0.00  0.00    +0.000 A 
ENDBRANCH   1  10
BRANCH   5  13
ATOM     13  C11 UNL     1      73.090  64.544 110.133  0.00  0.00    +0.000 A 
ATOM     14  C12 UNL     1      74.369  65.118 110.204  0.00  0.00    +0.000 A 
ATOM     15  C13 UNL     1      74.783  65.780 111.363  0.00  0.00    +0.000 A 
ATOM     16  C14 UNL     1      73.920  65.885 112.462  0.00  0.00    +0.000 A 
ATOM     17  C15 UNL     1      72.631  65.341 112.384  0.00  0.00    +0.000 A 
ATOM     18  C16 UNL     1      72.216  64.679 111.225  0.00  0.00    +0.000 A 
BRANCH  16  19
ATOM     19  S1  UNL     1      74.439  66.732 113.915  0.00  0.00    +0.000 S 
ATOM     20  O1  UNL     1      73.238  67.190 114.694  0.00  0.00    +0.000 OA
ATOM     21  O2  UNL     1      75.250  65.807 114.779  0.00  0.00    +0.000 OA
BRANCH  19  22
ATOM     22  N3  UNL     1      75.395  68.102 113.472  0.00  0.00    +0.000 NA
ATOM     23  H13 UNL     1      75.109  68.373 112.504  0.00  0.00    +0.000 HD
ATOM     24  H14 UNL     1      76.386  67.778 113.414  0.00  0.00    +0.000 HD
ENDBRANCH  19  22
ENDBRANCH  16  19
ENDBRANCH   5  13
BRANCH   3  25
ATOM     25  C17 UNL     1      72.537  60.935 106.862  0.00  0.00    +0.000 C 
ATOM     26  F1  UNL     1      71.731  60.871 105.741  0.00  0.00    +0.000 F 
ATOM     27  F2  UNL     1      72.134  59.965 107.762  0.00  0.00    +0.000 F 
ATOM     28  F3  UNL     1      73.848  60.699 106.496  0.00  0.00    +0.000 F 
ENDBRANCH   3  25
TORSDOF 5
ENDMDL
MODEL 7
REMARK VINA RESULT:      -6.5      7.283     10.544
REMARK  Name = ./S1261.pdb
REMARK  6 active torsions:
REMARK  status: ('A' for Active; 'I' for Inactive)
REMARK    1  A    between atoms: C1_1  and  C2_2
REMARK    2  A    between atoms: C5_5  and  C8_8
REMARK    3  A    between atoms: C10_10  and  C17_23
REMARK    4  A    between atoms: N2_12  and  C11_13
REMARK    5  A    between atoms: C14_16  and  S1_19
REMARK    6  A    between atoms: S1_19  and  N3_20
REMARK                            x       y       z     vdW  Elec       q    Type
REMARK                         _______ _______ _______ _____ _____    ______ ____
ROOT
ATOM      1  C8  UNL     1      62.841  59.738 112.958  0.00  0.00    +0.000 A 
ATOM      2  C9  UNL     1      63.574  59.811 114.127  0.00  0.00    +0.000 A 
ATOM      3  C10 UNL     1      64.890  59.778 113.710  0.00  0.00    +0.000 A 
ATOM      4  N1  UNL     1      64.946  59.660 112.369  0.00  0.00    +0.000 NA
ATOM      5  N2  UNL     1      63.703  59.639 111.914  0.00  0.00    +0.000 N 
ENDROOT
BRANCH   1  10
ATOM      6  C1  UNL     1      57.075  60.199 112.625  0.00  0.00    +0.000 C 
ATOM      7  C2  UNL     1      58.568  60.078 112.675  0.00  0.00    +0.000 A 
ATOM      8  C3  UNL     1      59.175  58.814 112.701  0.00  0.00    +0.000 A 
ATOM      9  C4  UNL     1      60.565  58.700 112.787  0.00  0.00    +0.000 A 
ATOM     10  C5  UNL     1      61.369  59.849 112.874  0.00  0.00    +0.000 A 
ATOM     11  C6  UNL     1      60.759  61.114 112.848  0.00  0.00    +0.000 A 
ATOM     12  C7  UNL     1      59.369  61.227 112.761  0.00  0.00    +0.000 A 
ENDBRANCH   1  10
BRANCH   5  13
ATOM     13  C11 UNL     1      63.393  59.446 110.524  0.00  0.00    +0.000 A 
ATOM     14  C12 UNL     1      63.796  58.270 109.874  0.00  0.00    +0.000 A 
ATOM     15  C13 UNL     1      63.489  58.066 108.526  0.00  0.00    +0.000 A 
ATOM     16  C14 UNL     1      62.766  59.032 107.813  0.00  0.00    +0.000 A 
ATOM     17  C15 UNL     1      62.334  60.195 108.466  0.00  0.00    +0.000 A 
ATOM     18  C16 UNL     1      62.640  60.398 109.815  0.00  0.00    +0.000 A 
BRANCH  16  19
ATOM     19  S1  UNL     1      62.369  58.767 106.119  0.00  0.00    +0.000 S 
ATOM     20  O1  UNL     1      63.496  58.041 105.439  0.00  0.00    +0.000 OA
ATOM     21  O2  UNL     1      61.124  57.930 106.014  0.00  0.00    +0.000 OA
BRANCH  19  22
ATOM     22  N3  UNL     1      62.113  60.290 105.343  0.00  0.00    +0.000 NA
ATOM     23  H13 UNL     1      63.040  60.771 105.303  0.00  0.00    +0.000 HD
ATOM     24  H14 UNL     1      61.506  60.858 105.975  0.00  0.00    +0.000 HD
ENDBRANCH  19  22
ENDBRANCH  16  19
ENDBRANCH   5  13
BRANCH   3  25
ATOM     25  C17 UNL     1      66.091  59.778 114.602  0.00  0.00    +0.000 C 
ATOM     26  F1  UNL     1      67.243  59.731 113.841  0.00  0.00    +0.000 F 
ATOM     27  F2  UNL     1      66.059  58.677 115.439  0.00  0.00    +0.000 F 
ATOM     28  F3  UNL     1      66.095  60.929 115.366  0.00  0.00    +0.000 F 
ENDBRANCH   3  25
TORSDOF 5
ENDMDL
MODEL 8
REMARK VINA RESULT:      -6.5     11.571     13.527
REMARK  Name = ./S1261.pdb
REMARK  6 active torsions:
REMARK  status: ('A' for Active; 'I' for Inactive)
REMARK    1  A    between atoms: C1_1  and  C2_2
REMARK    2  A    between atoms: C5_5  and  C8_8
REMARK    3  A    between atoms: C10_10  and  C17_23
REMARK    4  A    between atoms: N2_12  and  C11_13
REMARK    5  A    between atoms: C14_16  and  S1_19
REMARK    6  A    between atoms: S1_19  and  N3_20
REMARK                            x       y       z     vdW  Elec       q    Type
REMARK                         _______ _______ _______ _____ _____    ______ ____
ROOT
ATOM      1  C8  UNL     1      71.980  66.369 108.296  0.00  0.00    +0.000 A 
ATOM      2  C9  UNL     1      72.335  66.518 109.624  0.00  0.00    +0.000 A 
ATOM      3  C10 UNL     1      72.770  65.263 110.005  0.00  0.00    +0.000 A 
ATOM      4  N1  UNL     1      72.652  64.402 108.975  0.00  0.00    +0.000 NA
ATOM      5  N2  UNL     1      72.176  65.075 107.939  0.00  0.00    +0.000 N 
ENDROOT
BRANCH   1  10
ATOM      6  C1  UNL     1      70.283  70.697 104.837  0.00  0.00    +0.000 C 
ATOM      7  C2  UNL     1      70.743  69.600 105.749  0.00  0.00    +0.000 A 
ATOM      8  C3  UNL     1      71.906  68.875 105.455  0.00  0.00    +0.000 A 
ATOM      9  C4  UNL     1      72.315  67.828 106.284  0.00  0.00    +0.000 A 
ATOM     10  C5  UNL     1      71.551  67.472 107.408  0.00  0.00    +0.000 A 
ATOM     11  C6  UNL     1      70.387  68.200 107.702  0.00  0.00    +0.000 A 
ATOM     12  C7  UNL     1      69.979  69.248 106.872  0.00  0.00    +0.000 A 
ENDBRANCH   1  10
BRANCH   5  13
ATOM     13  C11 UNL     1      71.856  64.443 106.689  0.00  0.00    +0.000 A 
ATOM     14  C12 UNL     1      70.575  63.908 106.482  0.00  0.00    +0.000 A 
ATOM     15  C13 UNL     1      70.248  63.303 105.266  0.00  0.00    +0.000 A 
ATOM     16  C14 UNL     1      71.196  63.233 104.237  0.00  0.00    +0.000 A 
ATOM     17  C15 UNL     1      72.467  63.792 104.426  0.00  0.00    +0.000 A 
ATOM     18  C16 UNL     1      72.794  64.399 105.643  0.00  0.00    +0.000 A 
BRANCH  16  19
ATOM     19  S1  UNL     1      70.779  62.482 102.701  0.00  0.00    +0.000 S 
ATOM     20  O1  UNL     1      71.785  62.869 101.653  0.00  0.00    +0.000 OA
ATOM     21  O2  UNL     1      70.788  60.985 102.848  0.00  0.00    +0.000 OA
BRANCH  19  22
ATOM     22  N3  UNL     1      69.207  63.008 102.212  0.00  0.00    +0.000 NA
ATOM     23  H13 UNL     1      69.095  63.991 102.550  0.00  0.00    +0.000 HD
ATOM     24  H14 UNL     1      68.513  62.428 102.735  0.00  0.00    +0.000 HD
ENDBRANCH  19  22
ENDBRANCH  16  19
ENDBRANCH   5  13
BRANCH   3  25
ATOM     25  C17 UNL     1      73.221  64.873 111.376  0.00  0.00    +0.000 C 
ATOM     26  F1  UNL     1      73.925  63.685 111.321  0.00  0.00    +0.000 F 
ATOM     27  F2  UNL     1      72.126  64.708 112.206  0.00  0.00    +0.000 F 
ATOM     28  F3  UNL     1      74.036  65.863 111.891  0.00  0.00    +0.000 F 
ENDBRANCH   3  25
TORSDOF 5
ENDMDL
MODEL 9
REMARK VINA RESULT:      -6.3     11.779     13.662
REMARK  Name = ./S1261.pdb
REMARK  6 active torsions:
REMARK  status: ('A' for Active; 'I' for Inactive)
REMARK    1  A    between atoms: C1_1  and  C2_2
REMARK    2  A    between atoms: C5_5  and  C8_8
REMARK    3  A    between atoms: C10_10  and  C17_23
REMARK    4  A    between atoms: N2_12  and  C11_13
REMARK    5  A    between atoms: C14_16  and  S1_19
REMARK    6  A    between atoms: S1_19  and  N3_20
REMARK                            x       y       z     vdW  Elec       q    Type
REMARK                         _______ _______ _______ _____ _____    ______ ____
ROOT
ATOM      1  C8  UNL     1      72.040  66.705 108.419  0.00  0.00    +0.000 A 
ATOM      2  C9  UNL     1      72.387  66.914 109.740  0.00  0.00    +0.000 A 
ATOM      3  C10 UNL     1      72.721  65.659 110.210  0.00  0.00    +0.000 A 
ATOM      4  N1  UNL     1      72.553  64.743 109.236  0.00  0.00    +0.000 NA
ATOM      5  N2  UNL     1      72.143  65.379 108.150  0.00  0.00    +0.000 N 
ENDROOT
BRANCH   1  10
ATOM      6  C1  UNL     1      70.763  70.890 104.620  0.00  0.00    +0.000 C 
ATOM      7  C2  UNL     1      71.080  69.783 105.581  0.00  0.00    +0.000 A 
ATOM      8  C3  UNL     1      70.116  69.346 106.500  0.00  0.00    +0.000 A 
ATOM      9  C4  UNL     1      70.423  68.341 107.421  0.00  0.00    +0.000 A 
ATOM     10  C5  UNL     1      71.708  67.775 107.453  0.00  0.00    +0.000 A 
ATOM     11  C6  UNL     1      72.672  68.214 106.531  0.00  0.00    +0.000 A 
ATOM     12  C7  UNL     1      72.364  69.219 105.610  0.00  0.00    +0.000 A 
ENDBRANCH   1  10
BRANCH   5  13
ATOM     13  C11 UNL     1      71.795  64.692 106.937  0.00  0.00    +0.000 A 
ATOM     14  C12 UNL     1      72.719  64.620 105.883  0.00  0.00    +0.000 A 
ATOM     15  C13 UNL     1      72.397  63.943 104.705  0.00  0.00    +0.000 A 
ATOM     16  C14 UNL     1      71.149  63.320 104.568  0.00  0.00    +0.000 A 
ATOM     17  C15 UNL     1      70.234  63.363 105.628  0.00  0.00    +0.000 A 
ATOM     18  C16 UNL     1      70.557  64.039 106.808  0.00  0.00    +0.000 A 
BRANCH  16  19
ATOM     19  S1  UNL     1      70.750  62.457 103.087  0.00  0.00    +0.000 S 
ATOM     20  O1  UNL     1      70.833  60.974 103.323  0.00  0.00    +0.000 OA
ATOM     21  O2  UNL     1      69.349  62.798 102.661  0.00  0.00    +0.000 OA
BRANCH  19  22
ATOM     22  N3  UNL     1      71.862  62.905 101.842  0.00  0.00    +0.000 NA
ATOM     23  H13 UNL     1      72.642  63.426 102.303  0.00  0.00    +0.000 HD
ATOM     24  H14 UNL     1      71.369  63.586 101.222  0.00  0.00    +0.000 HD
ENDBRANCH  19  22
ENDBRANCH  16  19
ENDBRANCH   5  13
BRANCH   3  25
ATOM     25  C17 UNL     1      73.121  65.327 111.612  0.00  0.00    +0.000 C 
ATOM     26  F1  UNL     1      74.355  64.705 111.616  0.00  0.00    +0.000 F 
ATOM     27  F2  UNL     1      72.189  64.479 112.184  0.00  0.00    +0.000 F 
ATOM     28  F3  UNL     1      73.194  66.489 112.356  0.00  0.00    +0.000 F 
ENDBRANCH   3  25
TORSDOF 5
ENDMDL
MODEL 10
REMARK VINA RESULT:      -6.3     11.480     13.597
REMARK  Name = ./S1261.pdb
REMARK  6 active torsions:
REMARK  status: ('A' for Active; 'I' for Inactive)
REMARK    1  A    between atoms: C1_1  and  C2_2
REMARK    2  A    between atoms: C5_5  and  C8_8
REMARK    3  A    between atoms: C10_10  and  C17_23
REMARK    4  A    between atoms: N2_12  and  C11_13
REMARK    5  A    between atoms: C14_16  and  S1_19
REMARK    6  A    between atoms: S1_19  and  N3_20
REMARK                            x       y       z     vdW  Elec       q    Type
REMARK                         _______ _______ _______ _____ _____    ______ ____
ROOT
ATOM      1  C8  UNL     1      71.260  67.386 108.441  0.00  0.00    +0.000 A 
ATOM      2  C9  UNL     1      70.880  68.714 108.473  0.00  0.00    +0.000 A 
ATOM      3  C10 UNL     1      70.402  68.966 107.202  0.00  0.00    +0.000 A 
ATOM      4  N1  UNL     1      70.520  67.861 106.439  0.00  0.00    +0.000 NA
ATOM      5  N2  UNL     1      71.038  66.903 107.192  0.00  0.00    +0.000 N 
ENDROOT
BRANCH   1  10
ATOM      6  C1  UNL     1      73.150  64.386 113.024  0.00  0.00    +0.000 C 
ATOM      7  C2  UNL     1      72.642  65.183 111.860  0.00  0.00    +0.000 A 
ATOM      8  C3  UNL     1      71.439  64.829 111.233  0.00  0.00    +0.000 A 
ATOM      9  C4  UNL     1      70.984  65.548 110.124  0.00  0.00    +0.000 A 
ATOM     10  C5  UNL     1      71.738  66.615 109.609  0.00  0.00    +0.000 A 
ATOM     11  C6  UNL     1      72.943  66.968 110.239  0.00  0.00    +0.000 A 
ATOM     12  C7  UNL     1      73.397  66.249 111.349  0.00  0.00    +0.000 A 
ENDBRANCH   1  10
BRANCH   5  13
ATOM     13  C11 UNL     1      71.368  65.605 106.672  0.00  0.00    +0.000 A 
ATOM     14  C12 UNL     1      70.392  64.597 106.635  0.00  0.00    +0.000 A 
ATOM     15  C13 UNL     1      70.698  63.335 106.119  0.00  0.00    +0.000 A 
ATOM     16  C14 UNL     1      71.982  63.067 105.625  0.00  0.00    +0.000 A 
ATOM     17  C15 UNL     1      72.951  64.079 105.632  0.00  0.00    +0.000 A 
ATOM     18  C16 UNL     1      72.645  65.342 106.147  0.00  0.00    +0.000 A 
BRANCH  16  19
ATOM     19  S1  UNL     1      72.361  61.481 104.964  0.00  0.00    +0.000 S 
ATOM     20  O1  UNL     1      73.473  61.600 103.959  0.00  0.00    +0.000 OA
ATOM     21  O2  UNL     1      72.807  60.563 106.069  0.00  0.00    +0.000 OA
BRANCH  19  22
ATOM     22  N3  UNL     1      70.957  60.828 104.196  0.00  0.00    +0.000 NA
ATOM     23  H13 UNL     1      70.201  60.797 104.917  0.00  0.00    +0.000 HD
ATOM     24  H14 UNL     1      71.177  59.838 103.947  0.00  0.00    +0.000 HD
ENDBRANCH  19  22
ENDBRANCH  16  19
ENDBRANCH   5  13
BRANCH   3  25
ATOM     25  C17 UNL     1      69.911  70.284 106.697  0.00  0.00    +0.000 C 
ATOM     26  F1  UNL     1      70.139  71.266 107.643  0.00  0.00    +0.000 F 
ATOM     27  F2  UNL     1      68.553  70.217 106.438  0.00  0.00    +0.000 F 
ATOM     28  F3  UNL     1      70.580  70.609 105.532  0.00  0.00    +0.000 F 
ENDBRANCH   3  25
TORSDOF 5
ENDMDL
MODEL 11
REMARK VINA RESULT:      -6.3     13.602     15.502
REMARK  Name = ./S1261.pdb
REMARK  6 active torsions:
REMARK  status: ('A' for Active; 'I' for Inactive)
REMARK    1  A    between atoms: C1_1  and  C2_2
REMARK    2  A    between atoms: C5_5  and  C8_8
REMARK    3  A    between atoms: C10_10  and  C17_23
REMARK    4  A    between atoms: N2_12  and  C11_13
REMARK    5  A    between atoms: C14_16  and  S1_19
REMARK    6  A    between atoms: S1_19  and  N3_20
REMARK                            x       y       z     vdW  Elec       q    Type
REMARK                         _______ _______ _______ _____ _____    ______ ____
ROOT
ATOM      1  C8  UNL     1      73.615  64.615 109.854  0.00  0.00    +0.000 A 
ATOM      2  C9  UNL     1      72.871  64.431 108.704  0.00  0.00    +0.000 A 
ATOM      3  C10 UNL     1      71.970  65.478 108.707  0.00  0.00    +0.000 A 
ATOM      4  N1  UNL     1      72.141  66.229 109.813  0.00  0.00    +0.000 NA
ATOM      5  N2  UNL     1      73.140  65.706 110.505  0.00  0.00    +0.000 N 
ENDROOT
BRANCH   1  10
ATOM      6  C1  UNL     1      78.229  61.444 111.349  0.00  0.00    +0.000 C 
ATOM      7  C2  UNL     1      77.046  62.290 110.984  0.00  0.00    +0.000 A 
ATOM      8  C3  UNL     1      75.867  62.220 111.740  0.00  0.00    +0.000 A 
ATOM      9  C4  UNL     1      74.751  62.980 111.378  0.00  0.00    +0.000 A 
ATOM     10  C5  UNL     1      74.789  63.801 110.239  0.00  0.00    +0.000 A 
ATOM     11  C6  UNL     1      75.971  63.870 109.485  0.00  0.00    +0.000 A 
ATOM     12  C7  UNL     1      77.087  63.111 109.848  0.00  0.00    +0.000 A 
ENDBRANCH   1  10
BRANCH   5  13
ATOM     13  C11 UNL     1      73.544  66.218 111.786  0.00  0.00    +0.000 A 
ATOM     14  C12 UNL     1      74.669  67.051 111.884  0.00  0.00    +0.000 A 
ATOM     15  C13 UNL     1      75.063  67.566 113.121  0.00  0.00    +0.000 A 
ATOM     16  C14 UNL     1      74.331  67.261 114.277  0.00  0.00    +0.000 A 
ATOM     17  C15 UNL     1      73.189  66.455 114.181  0.00  0.00    +0.000 A 
ATOM     18  C16 UNL     1      72.794  65.941 112.942  0.00  0.00    +0.000 A 
BRANCH  16  19
ATOM     19  S1  UNL     1      74.821  67.921 115.833  0.00  0.00    +0.000 S 
ATOM     20  O1  UNL     1      75.329  66.817 116.718  0.00  0.00    +0.000 OA
ATOM     21  O2  UNL     1      75.924  68.925 115.635  0.00  0.00    +0.000 OA
BRANCH  19  22
ATOM     22  N3  UNL     1      73.467  68.686 116.586  0.00  0.00    +0.000 NA
ATOM     23  H13 UNL     1      72.660  68.027 116.504  0.00  0.00    +0.000 HD
ATOM     24  H14 UNL     1      73.231  69.526 116.011  0.00  0.00    +0.000 HD
ENDBRANCH  19  22
ENDBRANCH  16  19
ENDBRANCH   5  13
BRANCH   3  25
ATOM     25  C17 UNL     1      70.894  65.710 107.694  0.00  0.00    +0.000 C 
ATOM     26  F1  UNL     1      71.366  66.527 106.684  0.00  0.00    +0.000 F 
ATOM     27  F2  UNL     1      69.804  66.317 108.291  0.00  0.00    +0.000 F 
ATOM     28  F3  UNL     1      70.501  64.499 107.156  0.00  0.00    +0.000 F 
ENDBRANCH   3  25
TORSDOF 5
ENDMDL
MODEL 12
REMARK VINA RESULT:      -6.3      2.215      2.990
REMARK  Name = ./S1261.pdb
REMARK  6 active torsions:
REMARK  status: ('A' for Active; 'I' for Inactive)
REMARK    1  A    between atoms: C1_1  and  C2_2
REMARK    2  A    between atoms: C5_5  and  C8_8
REMARK    3  A    between atoms: C10_10  and  C17_23
REMARK    4  A    between atoms: N2_12  and  C11_13
REMARK    5  A    between atoms: C14_16  and  S1_19
REMARK    6  A    between atoms: S1_19  and  N3_20
REMARK                            x       y       z     vdW  Elec       q    Type
REMARK                         _______ _______ _______ _____ _____    ______ ____
ROOT
ATOM      1  C8  UNL     1      60.769  56.402 103.748  0.00  0.00    +0.000 A 
ATOM      2  C9  UNL     1      59.832  55.579 103.154  0.00  0.00    +0.000 A 
ATOM      3  C10 UNL     1      59.314  54.837 104.198  0.00  0.00    +0.000 A 
ATOM      4  N1  UNL     1      59.929  55.172 105.350  0.00  0.00    +0.000 NA
ATOM      5  N2  UNL     1      60.809  56.123 105.076  0.00  0.00    +0.000 N 
ENDROOT
BRANCH   1  10
ATOM      6  C1  UNL     1      63.726  60.555 100.995  0.00  0.00    +0.000 C 
ATOM      7  C2  UNL     1      62.934  59.485 101.685  0.00  0.00    +0.000 A 
ATOM      8  C3  UNL     1      62.053  59.817 102.724  0.00  0.00    +0.000 A 
ATOM      9  C4  UNL     1      61.343  58.816 103.394  0.00  0.00    +0.000 A 
ATOM     10  C5  UNL     1      61.523  57.466 103.051  0.00  0.00    +0.000 A 
ATOM     11  C6  UNL     1      62.404  57.136 102.009  0.00  0.00    +0.000 A 
ATOM     12  C7  UNL     1      63.114  58.138 101.339  0.00  0.00    +0.000 A 
ENDBRANCH   1  10
BRANCH   5  13
ATOM     13  C11 UNL     1      61.697  56.662 106.068  0.00  0.00    +0.000 A 
ATOM     14  C12 UNL     1      61.190  57.071 107.312  0.00  0.00    +0.000 A 
ATOM     15  C13 UNL     1      62.046  57.586 108.290  0.00  0.00    +0.000 A 
ATOM     16  C14 UNL     1      63.420  57.689 108.040  0.00  0.00    +0.000 A 
ATOM     17  C15 UNL     1      63.936  57.254 106.812  0.00  0.00    +0.000 A 
ATOM     18  C16 UNL     1      63.081  56.738 105.834  0.00  0.00    +0.000 A 
BRANCH  16  19
ATOM     19  S1  UNL     1      64.498  58.325 109.278  0.00  0.00    +0.000 S 
ATOM     20  O1  UNL     1      64.828  59.761 108.979  0.00  0.00    +0.000 OA
ATOM     21  O2  UNL     1      63.825  58.255 110.621  0.00  0.00    +0.000 OA
BRANCH  19  22
ATOM     22  N3  UNL     1      65.953  57.393 109.308  0.00  0.00    +0.000 NA
ATOM     23  H13 UNL     1      66.044  56.999 110.272  0.00  0.00    +0.000 HD
ATOM     24  H14 UNL     1      66.746  58.060 109.179  0.00  0.00    +0.000 HD
ENDBRANCH  19  22
ENDBRANCH  16  19
ENDBRANCH   5  13
BRANCH   3  25
ATOM     25  C17 UNL     1      58.291  53.753 104.079  0.00  0.00    +0.000 C 
ATOM     26  F1  UNL     1      57.738  53.489 105.318  0.00  0.00    +0.000 F 
ATOM     27  F2  UNL     1      58.878  52.598 103.593  0.00  0.00    +0.000 F 
ATOM     28  F3  UNL     1      57.294  54.156 103.211  0.00  0.00    +0.000 F 
ENDBRANCH   3  25
TORSDOF 5
ENDMDL
MODEL 13
REMARK VINA RESULT:      -6.2     14.179     16.376
REMARK  Name = ./S1261.pdb
REMARK  6 active torsions:
REMARK  status: ('A' for Active; 'I' for Inactive)
REMARK    1  A    between atoms: C1_1  and  C2_2
REMARK    2  A    between atoms: C5_5  and  C8_8
REMARK    3  A    between atoms: C10_10  and  C17_23
REMARK    4  A    between atoms: N2_12  and  C11_13
REMARK    5  A    between atoms: C14_16  and  S1_19
REMARK    6  A    between atoms: S1_19  and  N3_20
REMARK                            x       y       z     vdW  Elec       q    Type
REMARK                         _______ _______ _______ _____ _____    ______ ____
ROOT
ATOM      1  C8  UNL     1      74.471  63.868 110.988  0.00  0.00    +0.000 A 
ATOM      2  C9  UNL     1      74.040  63.430 109.750  0.00  0.00    +0.000 A 
ATOM      3  C10 UNL     1      73.245  64.457 109.280  0.00  0.00    +0.000 A 
ATOM      4  N1  UNL     1      73.176  65.443 110.196  0.00  0.00    +0.000 NA
ATOM      5  N2  UNL     1      73.922  65.085 111.230  0.00  0.00    +0.000 N 
ENDROOT
BRANCH   1  10
ATOM      6  C1  UNL     1      78.302  61.096 114.336  0.00  0.00    +0.000 C 
ATOM      7  C2  UNL     1      77.310  61.839 113.493  0.00  0.00    +0.000 A 
ATOM      8  C3  UNL     1      75.935  61.676 113.711  0.00  0.00    +0.000 A 
ATOM      9  C4  UNL     1      75.008  62.340 112.901  0.00  0.00    +0.000 A 
ATOM     10  C5  UNL     1      75.444  63.156 111.845  0.00  0.00    +0.000 A 
ATOM     11  C6  UNL     1      76.822  63.319 111.629  0.00  0.00    +0.000 A 
ATOM     12  C7  UNL     1      77.748  62.656 112.440  0.00  0.00    +0.000 A 
ENDBRANCH   1  10
BRANCH   5  13
ATOM     13  C11 UNL     1      74.015  65.877 112.426  0.00  0.00    +0.000 A 
ATOM     14  C12 UNL     1      73.034  65.755 113.423  0.00  0.00    +0.000 A 
ATOM     15  C13 UNL     1      73.121  66.510 114.595  0.00  0.00    +0.000 A 
ATOM     16  C14 UNL     1      74.194  67.390 114.790  0.00  0.00    +0.000 A 
ATOM     17  C15 UNL     1      75.191  67.493 113.812  0.00  0.00    +0.000 A 
ATOM     18  C16 UNL     1      75.106  66.737 112.639  0.00  0.00    +0.000 A 
BRANCH  16  19
ATOM     19  S1  UNL     1      74.307  68.330 116.274  0.00  0.00    +0.000 S 
ATOM     20  O1  UNL     1      74.566  67.415 117.439  0.00  0.00    +0.000 OA
ATOM     21  O2  UNL     1      75.444  69.309 116.169  0.00  0.00    +0.000 OA
BRANCH  19  22
ATOM     22  N3  UNL     1      72.826  69.183 116.529  0.00  0.00    +0.000 NA
ATOM     23  H13 UNL     1      72.984  70.168 116.217  0.00  0.00    +0.000 HD
ATOM     24  H14 UNL     1      72.665  69.215 117.560  0.00  0.00    +0.000 HD
ENDBRANCH  19  22
ENDBRANCH  16  19
ENDBRANCH   5  13
BRANCH   3  25
ATOM     25  C17 UNL     1      72.488  64.457 107.990  0.00  0.00    +0.000 C 
ATOM     26  F1  UNL     1      71.145  64.240 108.232  0.00  0.00    +0.000 F 
ATOM     27  F2  UNL     1      72.964  63.456 107.161  0.00  0.00    +0.000 F 
ATOM     28  F3  UNL     1      72.648  65.679 107.364  0.00  0.00    +0.000 F 
ENDBRANCH   3  25
TORSDOF 5
ENDMDL
MODEL 14
REMARK VINA RESULT:      -6.2     14.606     17.284
REMARK  Name = ./S1261.pdb
REMARK  6 active torsions:
REMARK  status: ('A' for Active; 'I' for Inactive)
REMARK    1  A    between atoms: C1_1  and  C2_2
REMARK    2  A    between atoms: C5_5  and  C8_8
REMARK    3  A    between atoms: C10_10  and  C17_23
REMARK    4  A    between atoms: N2_12  and  C11_13
REMARK    5  A    between atoms: C14_16  and  S1_19
REMARK    6  A    between atoms: S1_19  and  N3_20
REMARK                            x       y       z     vdW  Elec       q    Type
REMARK                         _______ _______ _______ _____ _____    ______ ____
ROOT
ATOM      1  C8  UNL     1      73.771  64.825 113.795  0.00  0.00    +0.000 A 
ATOM      2  C9  UNL     1      72.855  65.533 113.042  0.00  0.00    +0.000 A 
ATOM      3  C10 UNL     1      72.707  64.786 111.889  0.00  0.00    +0.000 A 
ATOM      4  N1  UNL     1      73.514  63.707 111.933  0.00  0.00    +0.000 NA
ATOM      5  N2  UNL     1      74.156  63.731 113.091  0.00  0.00    +0.000 N 
ENDROOT
BRANCH   1  10
ATOM      6  C1  UNL     1      75.378  66.196 119.191  0.00  0.00    +0.000 C 
ATOM      7  C2  UNL     1      74.941  65.870 117.794  0.00  0.00    +0.000 A 
ATOM      8  C3  UNL     1      73.791  65.099 117.575  0.00  0.00    +0.000 A 
ATOM      9  C4  UNL     1      73.405  64.762 116.275  0.00  0.00    +0.000 A 
ATOM     10  C5  UNL     1      74.177  65.170 115.175  0.00  0.00    +0.000 A 
ATOM     11  C6  UNL     1      75.328  65.943 115.397  0.00  0.00    +0.000 A 
ATOM     12  C7  UNL     1      75.714  66.280 116.697  0.00  0.00    +0.000 A 
ENDBRANCH   1  10
BRANCH   5  13
ATOM     13  C11 UNL     1      75.158  62.761 113.438  0.00  0.00    +0.000 A 
ATOM     14  C12 UNL     1      76.500  62.986 113.091  0.00  0.00    +0.000 A 
ATOM     15  C13 UNL     1      77.485  62.057 113.435  0.00  0.00    +0.000 A 
ATOM     16  C14 UNL     1      77.142  60.894 114.137  0.00  0.00    +0.000 A 
ATOM     17  C15 UNL     1      75.810  60.679 114.513  0.00  0.00    +0.000 A 
ATOM     18  C16 UNL     1      74.824  61.609 114.170  0.00  0.00    +0.000 A 
BRANCH  16  19
ATOM     19  S1  UNL     1      78.387  59.731 114.581  0.00  0.00    +0.000 S 
ATOM     20  O1  UNL     1      79.465  60.415 115.374  0.00  0.00    +0.000 OA
ATOM     21  O2  UNL     1      77.787  58.641 115.425  0.00  0.00    +0.000 OA
BRANCH  19  22
ATOM     22  N3  UNL     1      79.072  59.047 113.148  0.00  0.00    +0.000 NA
ATOM     23  H13 UNL     1      78.667  59.569 112.338  0.00  0.00    +0.000 HD
ATOM     24  H14 UNL     1      78.722  58.066 113.080  0.00  0.00    +0.000 HD
ENDBRANCH  19  22
ENDBRANCH  16  19
ENDBRANCH   5  13
BRANCH   3  25
ATOM     25  C17 UNL     1      71.857  65.148 110.714  0.00  0.00    +0.000 C 
ATOM     26  F1  UNL     1      71.938  66.507 110.474  0.00  0.00    +0.000 F 
ATOM     27  F2  UNL     1      70.537  64.814 110.963  0.00  0.00    +0.000 F 
ATOM     28  F3  UNL     1      72.297  64.461 109.599  0.00  0.00    +0.000 F 
ENDBRANCH   3  25
TORSDOF 5
ENDMDL
MODEL 15
REMARK VINA RESULT:      -6.2     14.900     17.100
REMARK  Name = ./S1261.pdb
REMARK  6 active torsions:
REMARK  status: ('A' for Active; 'I' for Inactive)
REMARK    1  A    between atoms: C1_1  and  C2_2
REMARK    2  A    between atoms: C5_5  and  C8_8
REMARK    3  A    between atoms: C10_10  and  C17_23
REMARK    4  A    between atoms: N2_12  and  C11_13
REMARK    5  A    between atoms: C14_16  and  S1_19
REMARK    6  A    between atoms: S1_19  and  N3_20
REMARK                            x       y       z     vdW  Elec       q    Type
REMARK                         _______ _______ _______ _____ _____    ______ ____
ROOT
ATOM      1  C8  UNL     1      74.947  64.534 111.533  0.00  0.00    +0.000 A 
ATOM      2  C9  UNL     1      75.797  63.693 110.842  0.00  0.00    +0.000 A 
ATOM      3  C10 UNL     1      76.620  63.160 111.815  0.00  0.00    +0.000 A 
ATOM      4  N1  UNL     1      76.303  63.677 113.019  0.00  0.00    +0.000 NA
ATOM      5  N2  UNL     1      75.287  64.508 112.846  0.00  0.00    +0.000 N 
ENDROOT
BRANCH   1  10
ATOM      6  C1  UNL     1      70.489  67.387 109.175  0.00  0.00    +0.000 C 
ATOM      7  C2  UNL     1      71.645  66.630 109.755  0.00  0.00    +0.000 A 
ATOM      8  C3  UNL     1      71.432  65.415 110.422  0.00  0.00    +0.000 A 
ATOM      9  C4  UNL     1      72.505  64.728 110.997  0.00  0.00    +0.000 A 
ATOM     10  C5  UNL     1      73.804  65.258 110.935  0.00  0.00    +0.000 A 
ATOM     11  C6  UNL     1      74.016  66.475 110.265  0.00  0.00    +0.000 A 
ATOM     12  C7  UNL     1      72.942  67.161 109.690  0.00  0.00    +0.000 A 
ENDBRANCH   1  10
BRANCH   5  13
ATOM     13  C11 UNL     1      74.741  65.293 113.919  0.00  0.00    +0.000 A 
ATOM     14  C12 UNL     1      73.999  64.670 114.935  0.00  0.00    +0.000 A 
ATOM     15  C13 UNL     1      73.475  65.421 115.990  0.00  0.00    +0.000 A 
ATOM     16  C14 UNL     1      73.693  66.804 116.047  0.00  0.00    +0.000 A 
ATOM     17  C15 UNL     1      74.459  67.427 115.052  0.00  0.00    +0.000 A 
ATOM     18  C16 UNL     1      74.985  66.675 113.997  0.00  0.00    +0.000 A 
BRANCH  16  19
ATOM     19  S1  UNL     1      73.042  67.746 117.384  0.00  0.00    +0.000 S 
ATOM     20  O1  UNL     1      71.873  67.025 117.995  0.00  0.00    +0.000 OA
ATOM     21  O2  UNL     1      74.099  67.930 118.438  0.00  0.00    +0.000 OA
BRANCH  19  22
ATOM     22  N3  UNL     1      72.527  69.290 116.803  0.00  0.00    +0.000 NA
ATOM     23  H13 UNL     1      73.016  70.012 117.379  0.00  0.00    +0.000 HD
ATOM     24  H14 UNL     1      71.508  69.373 117.016  0.00  0.00    +0.000 HD
ENDBRANCH  19  22
ENDBRANCH  16  19
ENDBRANCH   5  13
BRANCH   3  25
ATOM     25  C17 UNL     1      77.759  62.220 111.580  0.00  0.00    +0.000 C 
ATOM     26  F1  UNL     1      77.395  61.260 110.655  0.00  0.00    +0.000 F 
ATOM     27  F2  UNL     1      78.109  61.594 112.764  0.00  0.00    +0.000 F 
ATOM     28  F3  UNL     1      78.846  62.926 111.102  0.00  0.00    +0.000 F 
ENDBRANCH   3  25
TORSDOF 5
ENDMDL
MODEL 16
REMARK VINA RESULT:      -6.2     10.300     11.910
REMARK  Name = ./S1261.pdb
REMARK  6 active torsions:
REMARK  status: ('A' for Active; 'I' for Inactive)
REMARK    1  A    between atoms: C1_1  and  C2_2
REMARK    2  A    between atoms: C5_5  and  C8_8
REMARK    3  A    between atoms: C10_10  and  C17_23
REMARK    4  A    between atoms: N2_12  and  C11_13
REMARK    5  A    between atoms: C14_16  and  S1_19
REMARK    6  A    between atoms: S1_19  and  N3_20
REMARK                            x       y       z     vdW  Elec       q    Type
REMARK                         _______ _______ _______ _____ _____    ______ ____
ROOT
ATOM      1  C8  UNL     1      72.229  61.359 105.839  0.00  0.00    +0.000 A 
ATOM      2  C9  UNL     1      72.577  60.119 106.341  0.00  0.00    +0.000 A 
ATOM      3  C10 UNL     1      72.801  60.343 107.685  0.00  0.00    +0.000 A 
ATOM      4  N1  UNL     1      72.629  61.649 107.969  0.00  0.00    +0.000 NA
ATOM      5  N2  UNL     1      72.279  62.263 106.849  0.00  0.00    +0.000 N 
ENDROOT
BRANCH   1  10
ATOM      6  C1  UNL     1      70.471  62.374 100.412  0.00  0.00    +0.000 C 
ATOM      7  C2  UNL     1      70.936  62.145 101.819  0.00  0.00    +0.000 A 
ATOM      8  C3  UNL     1      72.270  61.797 102.075  0.00  0.00    +0.000 A 
ATOM      9  C4  UNL     1      72.695  61.546 103.383  0.00  0.00    +0.000 A 
ATOM     10  C5  UNL     1      71.786  61.615 104.451  0.00  0.00    +0.000 A 
ATOM     11  C6  UNL     1      70.451  61.965 104.192  0.00  0.00    +0.000 A 
ATOM     12  C7  UNL     1      70.026  62.216 102.885  0.00  0.00    +0.000 A 
ENDBRANCH   1  10
BRANCH   5  13
ATOM     13  C11 UNL     1      72.087  63.685 106.776  0.00  0.00    +0.000 A 
ATOM     14  C12 UNL     1      70.883  64.253 107.220  0.00  0.00    +0.000 A 
ATOM     15  C13 UNL     1      70.690  65.635 107.166  0.00  0.00    +0.000 A 
ATOM     16  C14 UNL     1      71.703  66.470 106.675  0.00  0.00    +0.000 A 
ATOM     17  C15 UNL     1      72.919  65.912 106.259  0.00  0.00    +0.000 A 
ATOM     18  C16 UNL     1      73.113  64.528 106.314  0.00  0.00    +0.000 A 
BRANCH  16  19
ATOM     19  S1  UNL     1      71.463  68.213 106.620  0.00  0.00    +0.000 S 
ATOM     20  O1  UNL     1      72.486  68.896 107.484  0.00  0.00    +0.000 OA
ATOM     21  O2  UNL     1      71.621  68.703 105.208  0.00  0.00    +0.000 OA
BRANCH  19  22
ATOM     22  N3  UNL     1      69.877  68.593 107.195  0.00  0.00    +0.000 NA
ATOM     23  H13 UNL     1      69.333  67.701 107.201  0.00  0.00    +0.000 HD
ATOM     24  H14 UNL     1      69.434  69.212 106.481  0.00  0.00    +0.000 HD
ENDBRANCH  19  22
ENDBRANCH  16  19
ENDBRANCH   5  13
BRANCH   3  25
ATOM     25  C17 UNL     1      73.258  59.323 108.678  0.00  0.00    +0.000 C 
ATOM     26  F1  UNL     1      74.142  58.444 108.079  0.00  0.00    +0.000 F 
ATOM     27  F2  UNL     1      72.174  58.611 109.160  0.00  0.00    +0.000 F 
ATOM     28  F3  UNL     1      73.890  59.957 109.731  0.00  0.00    +0.000 F 
ENDBRANCH   3  25
TORSDOF 5
ENDMDL
MODEL 17
REMARK VINA RESULT:      -6.1     11.845     13.423
REMARK  Name = ./S1261.pdb
REMARK  6 active torsions:
REMARK  status: ('A' for Active; 'I' for Inactive)
REMARK    1  A    between atoms: C1_1  and  C2_2
REMARK    2  A    between atoms: C5_5  and  C8_8
REMARK    3  A    between atoms: C10_10  and  C17_23
REMARK    4  A    between atoms: N2_12  and  C11_13
REMARK    5  A    between atoms: C14_16  and  S1_19
REMARK    6  A    between atoms: S1_19  and  N3_20
REMARK                            x       y       z     vdW  Elec       q    Type
REMARK                         _______ _______ _______ _____ _____    ______ ____
ROOT
ATOM      1  C8  UNL     1      71.215  66.937 107.175  0.00  0.00    +0.000 A 
ATOM      2  C9  UNL     1      70.676  68.032 106.526  0.00  0.00    +0.000 A 
ATOM      3  C10 UNL     1      70.889  69.085 107.394  0.00  0.00    +0.000 A 
ATOM      4  N1  UNL     1      71.491  68.642 108.516  0.00  0.00    +0.000 NA
ATOM      5  N2  UNL     1      71.690  67.341 108.380  0.00  0.00    +0.000 N 
ENDROOT
BRANCH   1  10
ATOM      6  C1  UNL     1      71.631  61.624 104.902  0.00  0.00    +0.000 C 
ATOM      7  C2  UNL     1      71.511  63.011 105.459  0.00  0.00    +0.000 A 
ATOM      8  C3  UNL     1      72.564  63.925 105.314  0.00  0.00    +0.000 A 
ATOM      9  C4  UNL     1      72.469  65.205 105.866  0.00  0.00    +0.000 A 
ATOM     10  C5  UNL     1      71.328  65.582 106.594  0.00  0.00    +0.000 A 
ATOM     11  C6  UNL     1      70.274  64.665 106.737  0.00  0.00    +0.000 A 
ATOM     12  C7  UNL     1      70.370  63.385 106.184  0.00  0.00    +0.000 A 
ENDBRANCH   1  10
BRANCH   5  13
ATOM     13  C11 UNL     1      72.249  66.532 109.428  0.00  0.00    +0.000 A 
ATOM     14  C12 UNL     1      71.413  65.703 110.193  0.00  0.00    +0.000 A 
ATOM     15  C13 UNL     1      71.946  64.902 111.206  0.00  0.00    +0.000 A 
ATOM     16  C14 UNL     1      73.324  64.913 111.462  0.00  0.00    +0.000 A 
ATOM     17  C15 UNL     1      74.167  65.715 110.681  0.00  0.00    +0.000 A 
ATOM     18  C16 UNL     1      73.634  66.515 109.666  0.00  0.00    +0.000 A 
BRANCH  16  19
ATOM     19  S1  UNL     1      73.995  63.893 112.730  0.00  0.00    +0.000 S 
ATOM     20  O1  UNL     1      75.037  64.656 113.499  0.00  0.00    +0.000 OA
ATOM     21  O2  UNL     1      72.905  63.477 113.678  0.00  0.00    +0.000 OA
BRANCH  19  22
ATOM     22  N3  UNL     1      74.715  62.491 112.020  0.00  0.00    +0.000 NA
ATOM     23  H13 UNL     1      74.859  61.799 112.790  0.00  0.00    +0.000 HD
ATOM     24  H14 UNL     1      75.663  62.770 111.684  0.00  0.00    +0.000 HD
ENDBRANCH  19  22
ENDBRANCH  16  19
ENDBRANCH   5  13
BRANCH   3  25
ATOM     25  C17 UNL     1      70.442  70.496 107.184  0.00  0.00    +0.000 C 
ATOM     26  F1  UNL     1      71.126  71.054 106.120  0.00  0.00    +0.000 F 
ATOM     27  F2  UNL     1      70.689  71.246 108.320  0.00  0.00    +0.000 F 
ATOM     28  F3  UNL     1      69.087  70.514 106.914  0.00  0.00    +0.000 F 
ENDBRANCH   3  25
TORSDOF 5
ENDMDL
MODEL 18
REMARK VINA RESULT:      -6.1     11.301     13.395
REMARK  Name = ./S1261.pdb
REMARK  6 active torsions:
REMARK  status: ('A' for Active; 'I' for Inactive)
REMARK    1  A    between atoms: C1_1  and  C2_2
REMARK    2  A    between atoms: C5_5  and  C8_8
REMARK    3  A    between atoms: C10_10  and  C17_23
REMARK    4  A    between atoms: N2_12  and  C11_13
REMARK    5  A    between atoms: C14_16  and  S1_19
REMARK    6  A    between atoms: S1_19  and  N3_20
REMARK                            x       y       z     vdW  Elec       q    Type
REMARK                         _______ _______ _______ _____ _____    ______ ____
ROOT
ATOM      1  C8  UNL     1      73.078  64.096 107.936  0.00  0.00    +0.000 A 
ATOM      2  C9  UNL     1      73.860  63.806 109.038  0.00  0.00    +0.000 A 
ATOM      3  C10 UNL     1      74.442  62.590 108.735  0.00  0.00    +0.000 A 
ATOM      4  N1  UNL     1      74.008  62.159 107.534  0.00  0.00    +0.000 NA
ATOM      5  N2  UNL     1      73.184  63.075 107.050  0.00  0.00    +0.000 N 
ENDROOT
BRANCH   1  10
ATOM      6  C1  UNL     1      70.181  69.050 107.133  0.00  0.00    +0.000 C 
ATOM      7  C2  UNL     1      70.911  67.753 107.316  0.00  0.00    +0.000 A 
ATOM      8  C3  UNL     1      70.408  66.774 108.184  0.00  0.00    +0.000 A 
ATOM      9  C4  UNL     1      71.108  65.581 108.384  0.00  0.00    +0.000 A 
ATOM     10  C5  UNL     1      72.335  65.360 107.737  0.00  0.00    +0.000 A 
ATOM     11  C6  UNL     1      72.836  66.341 106.867  0.00  0.00    +0.000 A 
ATOM     12  C7  UNL     1      72.136  67.534 106.667  0.00  0.00    +0.000 A 
ENDBRANCH   1  10
BRANCH   5  13
ATOM     13  C11 UNL     1      72.478  62.900 105.811  0.00  0.00    +0.000 A 
ATOM     14  C12 UNL     1      71.138  62.480 105.822  0.00  0.00    +0.000 A 
ATOM     15  C13 UNL     1      70.438  62.320 104.624  0.00  0.00    +0.000 A 
ATOM     16  C14 UNL     1      71.065  62.585 103.399  0.00  0.00    +0.000 A 
ATOM     17  C15 UNL     1      72.392  63.034 103.384  0.00  0.00    +0.000 A 
ATOM     18  C16 UNL     1      73.093  63.196 104.582  0.00  0.00    +0.000 A 
BRANCH  16  19
ATOM     19  S1  UNL     1      70.176  62.395 101.892  0.00  0.00    +0.000 S 
ATOM     20  O1  UNL     1      68.783  62.938 102.049  0.00  0.00    +0.000 OA
ATOM     21  O2  UNL     1      70.868  63.155 100.794  0.00  0.00    +0.000 OA
BRANCH  19  22
ATOM     22  N3  UNL     1      70.098  60.718 101.478  0.00  0.00    +0.000 NA
ATOM     23  H13 UNL     1      69.120  60.403 101.670  0.00  0.00    +0.000 HD
ATOM     24  H14 UNL     1      70.716  60.208 102.148  0.00  0.00    +0.000 HD
ENDBRANCH  19  22
ENDBRANCH  16  19
ENDBRANCH   5  13
BRANCH   3  25
ATOM     25  C17 UNL     1      75.347  61.806 109.631  0.00  0.00    +0.000 C 
ATOM     26  F1  UNL     1      74.849  61.805 110.920  0.00  0.00    +0.000 F 
ATOM     27  F2  UNL     1      76.611  62.368 109.637  0.00  0.00    +0.000 F 
ATOM     28  F3  UNL     1      75.431  60.505 109.174  0.00  0.00    +0.000 F 
ENDBRANCH   3  25
TORSDOF 5
ENDMDL
MODEL 19
REMARK VINA RESULT:      -6.0     14.038     16.399
REMARK  Name = ./S1261.pdb
REMARK  6 active torsions:
REMARK  status: ('A' for Active; 'I' for Inactive)
REMARK    1  A    between atoms: C1_1  and  C2_2
REMARK    2  A    between atoms: C5_5  and  C8_8
REMARK    3  A    between atoms: C10_10  and  C17_23
REMARK    4  A    between atoms: N2_12  and  C11_13
REMARK    5  A    between atoms: C14_16  and  S1_19
REMARK    6  A    between atoms: S1_19  and  N3_20
REMARK                            x       y       z     vdW  Elec       q    Type
REMARK                         _______ _______ _______ _____ _____    ______ ____
ROOT
ATOM      1  C8  UNL     1      73.803  65.123 111.591  0.00  0.00    +0.000 A 
ATOM      2  C9  UNL     1      73.009  65.479 110.518  0.00  0.00    +0.000 A 
ATOM      3  C10 UNL     1      72.998  64.358 109.712  0.00  0.00    +0.000 A 
ATOM      4  N1  UNL     1      73.768  63.394 110.253  0.00  0.00    +0.000 NA
ATOM      5  N2  UNL     1      74.253  63.858 111.394  0.00  0.00    +0.000 N 
ENDROOT
BRANCH   1  10
ATOM      6  C1  UNL     1      74.683  68.390 116.295  0.00  0.00    +0.000 C 
ATOM      7  C2  UNL     1      74.478  67.521 115.091  0.00  0.00    +0.000 A 
ATOM      8  C3  UNL     1      75.345  67.615 113.994  0.00  0.00    +0.000 A 
ATOM      9  C4  UNL     1      75.132  66.832 112.856  0.00  0.00    +0.000 A 
ATOM     10  C5  UNL     1      74.032  65.961 112.788  0.00  0.00    +0.000 A 
ATOM     11  C6  UNL     1      73.165  65.867 113.889  0.00  0.00    +0.000 A 
ATOM     12  C7  UNL     1      73.380  66.650 115.027  0.00  0.00    +0.000 A 
ENDBRANCH   1  10
BRANCH   5  13
ATOM     13  C11 UNL     1      75.180  63.112 112.200  0.00  0.00    +0.000 A 
ATOM     14  C12 UNL     1      74.703  62.273 113.218  0.00  0.00    +0.000 A 
ATOM     15  C13 UNL     1      75.594  61.532 114.000  0.00  0.00    +0.000 A 
ATOM     16  C14 UNL     1      76.973  61.614 113.766  0.00  0.00    +0.000 A 
ATOM     17  C15 UNL     1      77.453  62.427 112.730  0.00  0.00    +0.000 A 
ATOM     18  C16 UNL     1      76.562  63.167 111.948  0.00  0.00    +0.000 A 
BRANCH  16  19
ATOM     19  S1  UNL     1      78.093  60.670 114.742  0.00  0.00    +0.000 S 
ATOM     20  O1  UNL     1      77.326  59.790 115.690  0.00  0.00    +0.000 OA
ATOM     21  O2  UNL     1      78.935  59.799 113.851  0.00  0.00    +0.000 OA
BRANCH  19  22
ATOM     22  N3  UNL     1      79.111  61.737 115.644  0.00  0.00    +0.000 NA
ATOM     23  H13 UNL     1      78.849  61.630 116.650  0.00  0.00    +0.000 HD
ATOM     24  H14 UNL     1      78.855  62.711 115.368  0.00  0.00    +0.000 HD
ENDBRANCH  19  22
ENDBRANCH  16  19
ENDBRANCH   5  13
BRANCH   3  25
ATOM     25  C17 UNL     1      72.316  64.240 108.386  0.00  0.00    +0.000 C 
ATOM     26  F1  UNL     1      71.003  64.658 108.492  0.00  0.00    +0.000 F 
ATOM     27  F2  UNL     1      72.336  62.924 107.958  0.00  0.00    +0.000 F 
ATOM     28  F3  UNL     1      72.973  65.029 107.460  0.00  0.00    +0.000 F 
ENDBRANCH   3  25
TORSDOF 5
ENDMDL
MODEL 20
REMARK VINA RESULT:      -6.0     12.027     13.773
REMARK  Name = ./S1261.pdb
REMARK  6 active torsions:
REMARK  status: ('A' for Active; 'I' for Inactive)
REMARK    1  A    between atoms: C1_1  and  C2_2
REMARK    2  A    between atoms: C5_5  and  C8_8
REMARK    3  A    between atoms: C10_10  and  C17_23
REMARK    4  A    between atoms: N2_12  and  C11_13
REMARK    5  A    between atoms: C14_16  and  S1_19
REMARK    6  A    between atoms: S1_19  and  N3_20
REMARK                            x       y       z     vdW  Elec       q    Type
REMARK                         _______ _______ _______ _____ _____    ______ ____
ROOT
ATOM      1  C8  UNL     1      72.718  64.112 107.620  0.00  0.00    +0.000 A 
ATOM      2  C9  UNL     1      73.495  63.314 108.439  0.00  0.00    +0.000 A 
ATOM      3  C10 UNL     1      73.847  64.141 109.489  0.00  0.00    +0.000 A 
ATOM      4  N1  UNL     1      73.339  65.374 109.295  0.00  0.00    +0.000 NA
ATOM      5  N2  UNL     1      72.652  65.354 108.163  0.00  0.00    +0.000 N 
ENDROOT
BRANCH   1  10
ATOM      6  C1  UNL     1      69.965  62.271 102.866  0.00  0.00    +0.000 C 
ATOM      7  C2  UNL     1      70.685  62.714 104.104  0.00  0.00    +0.000 A 
ATOM      8  C3  UNL     1      70.012  62.769 105.332  0.00  0.00    +0.000 A 
ATOM      9  C4  UNL     1      70.672  63.218 106.479  0.00  0.00    +0.000 A 
ATOM     10  C5  UNL     1      72.009  63.643 106.410  0.00  0.00    +0.000 A 
ATOM     11  C6  UNL     1      72.682  63.586 105.178  0.00  0.00    +0.000 A 
ATOM     12  C7  UNL     1      72.021  63.136 104.032  0.00  0.00    +0.000 A 
ENDBRANCH   1  10
BRANCH   5  13
ATOM     13  C11 UNL     1      72.035  66.530 107.613  0.00  0.00    +0.000 A 
ATOM     14  C12 UNL     1      72.548  67.105 106.440  0.00  0.00    +0.000 A 
ATOM     15  C13 UNL     1      71.948  68.241 105.889  0.00  0.00    +0.000 A 
ATOM     16  C14 UNL     1      70.823  68.810 106.500  0.00  0.00    +0.000 A 
ATOM     17  C15 UNL     1      70.289  68.222 107.654  0.00  0.00    +0.000 A 
ATOM     18  C16 UNL     1      70.888  67.085 108.205  0.00  0.00    +0.000 A 
BRANCH  16  19
ATOM     19  S1  UNL     1      70.062  70.233 105.797  0.00  0.00    +0.000 S 
ATOM     20  O1  UNL     1      70.736  71.476 106.305  0.00  0.00    +0.000 OA
ATOM     21  O2  UNL     1      70.193  70.192 104.299  0.00  0.00    +0.000 OA
BRANCH  19  22
ATOM     22  N3  UNL     1      68.389  70.265 106.233  0.00  0.00    +0.000 NA
ATOM     23  H13 UNL     1      68.255  71.087 106.864  0.00  0.00    +0.000 HD
ATOM     24  H14 UNL     1      68.206  69.412 106.805  0.00  0.00    +0.000 HD
ENDBRANCH  19  22
ENDBRANCH  16  19
ENDBRANCH   5  13
BRANCH   3  25
ATOM     25  C17 UNL     1      74.737  63.771 110.632  0.00  0.00    +0.000 C 
ATOM     26  F1  UNL     1      75.333  62.548 110.389  0.00  0.00    +0.000 F 
ATOM     27  F2  UNL     1      73.999  63.688 111.799  0.00  0.00    +0.000 F 
ATOM     28  F3  UNL     1      75.717  64.734 110.782  0.00  0.00    +0.000 F 
ENDBRANCH   3  25
TORSDOF 5
ENDMDL
