MODEL 1
REMARK VINA RESULT:      -8.4      0.000      0.000
REMARK  Name = ./S1267.pdb
REMARK  8 active torsions:
REMARK  status: ('A' for Active; 'I' for Inactive)
REMARK    1  A    between atoms: C1_1  and  C2_2
REMARK    2  A    between atoms: C2_2  and  C3_3
REMARK    3  A    between atoms: C3_3  and  S1_4
REMARK    4  A    between atoms: S1_4  and  N1_7
REMARK    5  A    between atoms: N1_7  and  C4_8
REMARK    6  A    between atoms: C8_13  and  C10_16
REMARK    7  A    between atoms: C10_16  and  C11_18
REMARK    8  A    between atoms: C15_24  and  C18_27
REMARK                            x       y       z     vdW  Elec       q    Type
REMARK                         _______ _______ _______ _____ _____    ______ ____
ROOT
ATOM      1  C10 UNL     1      62.351  58.897 106.658  0.00  0.00    +0.000 C 
ATOM      2  O3  UNL     1      62.210  60.113 106.361  0.00  0.00    +0.000 OA
ENDROOT
BRANCH   1   3
ATOM      3  C11 UNL     1      62.900  58.531 107.982  0.00  0.00    +0.000 A 
ATOM      4  C12 UNL     1      63.736  57.449 108.267  0.00  0.00    +0.000 A 
ATOM      5  N2  UNL     1      64.010  57.393 109.590  0.00  0.00    +0.000 N 
ATOM      6  C13 UNL     1      63.350  58.423 110.139  0.00  0.00    +0.000 A 
ATOM      7  N3  UNL     1      63.338  58.750 111.454  0.00  0.00    +0.000 NA
ATOM      8  C14 UNL     1      62.615  59.831 111.867  0.00  0.00    +0.000 A 
ATOM      9  C15 UNL     1      61.882  60.617 110.935  0.00  0.00    +0.000 A 
ATOM     10  C16 UNL     1      61.911  60.257 109.569  0.00  0.00    +0.000 A 
ATOM     11  C17 UNL     1      62.661  59.140 109.203  0.00  0.00    +0.000 A 
ATOM     12  H12 UNL     1      64.605  56.688 110.081  0.00  0.00    +0.000 HD
BRANCH   9  13
ATOM     13  C18 UNL     1      61.102  61.796 111.389  0.00  0.00    +0.000 A 
ATOM     14  C19 UNL     1      60.905  62.896 110.533  0.00  0.00    +0.000 A 
ATOM     15  C20 UNL     1      60.170  64.005 110.962  0.00  0.00    +0.000 A 
ATOM     16  C21 UNL     1      59.622  64.030 112.247  0.00  0.00    +0.000 A 
ATOM     17 CL1  UNL     1      58.699  65.422 112.782  0.00  0.00    +0.000 Cl
ATOM     18  C22 UNL     1      59.810  62.943 113.106  0.00  0.00    +0.000 A 
ATOM     19  C23 UNL     1      60.546  61.832 112.681  0.00  0.00    +0.000 A 
ENDBRANCH   9  13
ENDBRANCH   1   3
BRANCH   1  25
ATOM     20  C4  UNL     1      62.247  56.677 103.570  0.00  0.00    +0.000 A 
ATOM     21  C5  UNL     1      61.097  55.917 103.842  0.00  0.00    +0.000 A 
ATOM     22  C6  UNL     1      60.360  56.141 105.005  0.00  0.00    +0.000 A 
ATOM     23  C7  UNL     1      60.765  57.114 105.920  0.00  0.00    +0.000 A 
ATOM     24  F1  UNL     1      60.037  57.300 107.051  0.00  0.00    +0.000 F 
ATOM     25  C8  UNL     1      61.928  57.866 105.684  0.00  0.00    +0.000 A 
ATOM     26  C9  UNL     1      62.660  57.650 104.499  0.00  0.00    +0.000 A 
ATOM     27  F2  UNL     1      63.746  58.419 104.225  0.00  0.00    +0.000 F 
BRANCH  20  28
ATOM     28  N1  UNL     1      63.015  56.473 102.370  0.00  0.00    +0.000 N 
ATOM     29  H8  UNL     1      63.955  56.020 102.437  0.00  0.00    +0.000 HD
BRANCH  28  30
ATOM     30  S1  UNL     1      62.581  57.130 100.823  0.00  0.00    +0.000 S 
ATOM     31  O1  UNL     1      63.826  57.298  99.999  0.00  0.00    +0.000 OA
ATOM     32  O2  UNL     1      61.653  56.186 100.110  0.00  0.00    +0.000 OA
BRANCH  30  33
ATOM     33  C3  UNL     1      61.803  58.729 101.014  0.00  0.00    +0.000 C 
BRANCH  33  35
ATOM     34  C1  UNL     1      63.269  60.568 101.917  0.00  0.00    +0.000 C 
ATOM     35  C2  UNL     1      62.778  59.853 100.662  0.00  0.00    +0.000 C 
ENDBRANCH  33  35
ENDBRANCH  30  33
ENDBRANCH  28  30
ENDBRANCH  20  28
ENDBRANCH   1  25
TORSDOF 7
ENDMDL
MODEL 2
REMARK VINA RESULT:      -8.1      3.509      4.591
REMARK  Name = ./S1267.pdb
REMARK  8 active torsions:
REMARK  status: ('A' for Active; 'I' for Inactive)
REMARK    1  A    between atoms: C1_1  and  C2_2
REMARK    2  A    between atoms: C2_2  and  C3_3
REMARK    3  A    between atoms: C3_3  and  S1_4
REMARK    4  A    between atoms: S1_4  and  N1_7
REMARK    5  A    between atoms: N1_7  and  C4_8
REMARK    6  A    between atoms: C8_13  and  C10_16
REMARK    7  A    between atoms: C10_16  and  C11_18
REMARK    8  A    between atoms: C15_24  and  C18_27
REMARK                            x       y       z     vdW  Elec       q    Type
REMARK                         _______ _______ _______ _____ _____    ______ ____
ROOT
ATOM      1  C10 UNL     1      63.089  58.230 109.198  0.00  0.00    +0.000 C 
ATOM      2  O3  UNL     1      64.065  57.694 109.788  0.00  0.00    +0.000 OA
ENDROOT
BRANCH   1   3
ATOM      3  C11 UNL     1      62.424  59.400 109.809  0.00  0.00    +0.000 A 
ATOM      4  C12 UNL     1      62.161  60.626 109.192  0.00  0.00    +0.000 A 
ATOM      5  N2  UNL     1      61.576  61.482 110.061  0.00  0.00    +0.000 N 
ATOM      6  C13 UNL     1      61.474  60.810 111.217  0.00  0.00    +0.000 A 
ATOM      7  N3  UNL     1      60.947  61.286 112.370  0.00  0.00    +0.000 NA
ATOM      8  C14 UNL     1      60.912  60.481 113.472  0.00  0.00    +0.000 A 
ATOM      9  C15 UNL     1      61.417  59.153 113.420  0.00  0.00    +0.000 A 
ATOM     10  C16 UNL     1      61.961  58.677 112.205  0.00  0.00    +0.000 A 
ATOM     11  C17 UNL     1      61.977  59.544 111.114  0.00  0.00    +0.000 A 
ATOM     12  H12 UNL     1      61.276  62.464 109.872  0.00  0.00    +0.000 HD
BRANCH   9  13
ATOM     13  C18 UNL     1      61.372  58.279 114.620  0.00  0.00    +0.000 A 
ATOM     14  C19 UNL     1      62.555  57.948 115.309  0.00  0.00    +0.000 A 
ATOM     15  C20 UNL     1      62.509  57.126 116.438  0.00  0.00    +0.000 A 
ATOM     16  C21 UNL     1      61.287  56.624 116.894  0.00  0.00    +0.000 A 
ATOM     17 CL1  UNL     1      61.235  55.593 118.312  0.00  0.00    +0.000 Cl
ATOM     18  C22 UNL     1      60.107  56.946 116.218  0.00  0.00    +0.000 A 
ATOM     19  C23 UNL     1      60.147  57.768 115.087  0.00  0.00    +0.000 A 
ENDBRANCH   9  13
ENDBRANCH   1   3
BRANCH   1  25
ATOM     20  C4  UNL     1      62.680  57.770 105.444  0.00  0.00    +0.000 A 
ATOM     21  C5  UNL     1      61.815  56.662 105.417  0.00  0.00    +0.000 A 
ATOM     22  C6  UNL     1      61.361  56.090 106.605  0.00  0.00    +0.000 A 
ATOM     23  C7  UNL     1      61.772  56.603 107.837  0.00  0.00    +0.000 A 
ATOM     24  F1  UNL     1      61.326  56.017 108.977  0.00  0.00    +0.000 F 
ATOM     25  C8  UNL     1      62.659  57.691 107.889  0.00  0.00    +0.000 A 
ATOM     26  C9  UNL     1      63.101  58.278 106.686  0.00  0.00    +0.000 A 
ATOM     27  F2  UNL     1      63.902  59.375 106.723  0.00  0.00    +0.000 F 
BRANCH  20  28
ATOM     28  N1  UNL     1      63.150  58.385 104.230  0.00  0.00    +0.000 N 
ATOM     29  H8  UNL     1      64.091  58.125 103.859  0.00  0.00    +0.000 HD
BRANCH  28  30
ATOM     30  S1  UNL     1      62.346  59.708 103.446  0.00  0.00    +0.000 S 
ATOM     31  O1  UNL     1      60.883  59.658 103.784  0.00  0.00    +0.000 OA
ATOM     32  O2  UNL     1      62.911  61.011 103.938  0.00  0.00    +0.000 OA
BRANCH  30  33
ATOM     33  C3  UNL     1      62.527  59.591 101.670  0.00  0.00    +0.000 C 
BRANCH  33  35
ATOM     34  C1  UNL     1      64.886  59.812 100.814  0.00  0.00    +0.000 C 
ATOM     35  C2  UNL     1      63.602  60.556 101.169  0.00  0.00    +0.000 C 
ENDBRANCH  33  35
ENDBRANCH  30  33
ENDBRANCH  28  30
ENDBRANCH  20  28
ENDBRANCH   1  25
TORSDOF 7
ENDMDL
MODEL 3
REMARK VINA RESULT:      -8.0      4.912      7.319
REMARK  Name = ./S1267.pdb
REMARK  8 active torsions:
REMARK  status: ('A' for Active; 'I' for Inactive)
REMARK    1  A    between atoms: C1_1  and  C2_2
REMARK    2  A    between atoms: C2_2  and  C3_3
REMARK    3  A    between atoms: C3_3  and  S1_4
REMARK    4  A    between atoms: S1_4  and  N1_7
REMARK    5  A    between atoms: N1_7  and  C4_8
REMARK    6  A    between atoms: C8_13  and  C10_16
REMARK    7  A    between atoms: C10_16  and  C11_18
REMARK    8  A    between atoms: C15_24  and  C18_27
REMARK                            x       y       z     vdW  Elec       q    Type
REMARK                         _______ _______ _______ _____ _____    ______ ____
ROOT
ATOM      1  C10 UNL     1      63.607  57.448 106.583  0.00  0.00    +0.000 C 
ATOM      2  O3  UNL     1      64.794  57.260 106.960  0.00  0.00    +0.000 OA
ENDROOT
BRANCH   1   3
ATOM      3  C11 UNL     1      62.500  56.799 107.317  0.00  0.00    +0.000 A 
ATOM      4  C12 UNL     1      62.295  56.811 108.698  0.00  0.00    +0.000 A 
ATOM      5  N2  UNL     1      61.206  56.079 109.026  0.00  0.00    +0.000 N 
ATOM      6  C13 UNL     1      60.728  55.603 107.867  0.00  0.00    +0.000 A 
ATOM      7  N3  UNL     1      59.638  54.812 107.721  0.00  0.00    +0.000 NA
ATOM      8  C14 UNL     1      59.272  54.404 106.470  0.00  0.00    +0.000 A 
ATOM      9  C15 UNL     1      60.017  54.802 105.326  0.00  0.00    +0.000 A 
ATOM     10  C16 UNL     1      61.149  55.629 105.504  0.00  0.00    +0.000 A 
ATOM     11  C17 UNL     1      61.481  56.011 106.803  0.00  0.00    +0.000 A 
ATOM     12  H12 UNL     1      60.823  55.913 109.984  0.00  0.00    +0.000 HD
BRANCH   9  13
ATOM     13  C18 UNL     1      59.611  54.360 103.968  0.00  0.00    +0.000 A 
ATOM     14  C19 UNL     1      60.457  53.535 103.202  0.00  0.00    +0.000 A 
ATOM     15  C20 UNL     1      60.073  53.120 101.924  0.00  0.00    +0.000 A 
ATOM     16  C21 UNL     1      58.843  53.520 101.395  0.00  0.00    +0.000 A 
ATOM     17 CL1  UNL     1      58.364  52.997  99.791  0.00  0.00    +0.000 Cl
ATOM     18  C22 UNL     1      57.995  54.339 102.146  0.00  0.00    +0.000 A 
ATOM     19  C23 UNL     1      58.375  54.757 103.425  0.00  0.00    +0.000 A 
ENDBRANCH   9  13
ENDBRANCH   1   3
BRANCH   1  25
ATOM     20  C4  UNL     1      63.436  58.806 103.033  0.00  0.00    +0.000 A 
ATOM     21  C5  UNL     1      62.878  60.074 103.273  0.00  0.00    +0.000 A 
ATOM     22  C6  UNL     1      62.581  60.482 104.574  0.00  0.00    +0.000 A 
ATOM     23  C7  UNL     1      62.823  59.629 105.653  0.00  0.00    +0.000 A 
ATOM     24  F1  UNL     1      62.511  60.047 106.906  0.00  0.00    +0.000 F 
ATOM     25  C8  UNL     1      63.353  58.346 105.435  0.00  0.00    +0.000 A 
ATOM     26  C9  UNL     1      63.668  57.944 104.121  0.00  0.00    +0.000 A 
ATOM     27  F2  UNL     1      64.247  56.735 103.904  0.00  0.00    +0.000 F 
BRANCH  20  28
ATOM     28  N1  UNL     1      63.762  58.370 101.701  0.00  0.00    +0.000 N 
ATOM     29  H8  UNL     1      64.619  58.747 101.237  0.00  0.00    +0.000 HD
BRANCH  28  30
ATOM     30  S1  UNL     1      62.702  57.415 100.712  0.00  0.00    +0.000 S 
ATOM     31  O1  UNL     1      62.091  58.299  99.661  0.00  0.00    +0.000 OA
ATOM     32  O2  UNL     1      63.483  56.325 100.032  0.00  0.00    +0.000 OA
BRANCH  30  33
ATOM     33  C3  UNL     1      61.388  56.708 101.698  0.00  0.00    +0.000 C 
BRANCH  33  35
ATOM     34  C1  UNL     1      59.787  58.118 103.037  0.00  0.00    +0.000 C 
ATOM     35  C2  UNL     1      60.139  57.589 101.650  0.00  0.00    +0.000 C 
ENDBRANCH  33  35
ENDBRANCH  30  33
ENDBRANCH  28  30
ENDBRANCH  20  28
ENDBRANCH   1  25
TORSDOF 7
ENDMDL
MODEL 4
REMARK VINA RESULT:      -8.0      4.143      5.826
REMARK  Name = ./S1267.pdb
REMARK  8 active torsions:
REMARK  status: ('A' for Active; 'I' for Inactive)
REMARK    1  A    between atoms: C1_1  and  C2_2
REMARK    2  A    between atoms: C2_2  and  C3_3
REMARK    3  A    between atoms: C3_3  and  S1_4
REMARK    4  A    between atoms: S1_4  and  N1_7
REMARK    5  A    between atoms: N1_7  and  C4_8
REMARK    6  A    between atoms: C8_13  and  C10_16
REMARK    7  A    between atoms: C10_16  and  C11_18
REMARK    8  A    between atoms: C15_24  and  C18_27
REMARK                            x       y       z     vdW  Elec       q    Type
REMARK                         _______ _______ _______ _____ _____    ______ ____
ROOT
ATOM      1  C10 UNL     1      62.310  60.040 110.802  0.00  0.00    +0.000 C 
ATOM      2  O3  UNL     1      61.823  61.201 110.740  0.00  0.00    +0.000 OA
ENDROOT
BRANCH   1   3
ATOM      3  C11 UNL     1      61.955  59.163 111.939  0.00  0.00    +0.000 A 
ATOM      4  C12 UNL     1      60.897  58.252 111.990  0.00  0.00    +0.000 A 
ATOM      5  N2  UNL     1      60.844  57.649 113.199  0.00  0.00    +0.000 N 
ATOM      6  C13 UNL     1      61.852  58.176 113.909  0.00  0.00    +0.000 A 
ATOM      7  N3  UNL     1      62.174  57.862 115.187  0.00  0.00    +0.000 NA
ATOM      8  C14 UNL     1      63.232  58.486 115.783  0.00  0.00    +0.000 A 
ATOM      9  C15 UNL     1      63.999  59.453 115.077  0.00  0.00    +0.000 A 
ATOM     10  C16 UNL     1      63.646  59.762 113.744  0.00  0.00    +0.000 A 
ATOM     11  C17 UNL     1      62.553  59.100 113.188  0.00  0.00    +0.000 A 
ATOM     12  H12 UNL     1      60.156  56.930 113.515  0.00  0.00    +0.000 HD
BRANCH   9  13
ATOM     13  C18 UNL     1      65.153  60.124 115.727  0.00  0.00    +0.000 A 
ATOM     14  C19 UNL     1      64.946  61.126 116.694  0.00  0.00    +0.000 A 
ATOM     15  C20 UNL     1      66.034  61.756 117.305  0.00  0.00    +0.000 A 
ATOM     16  C21 UNL     1      67.339  61.396 116.960  0.00  0.00    +0.000 A 
ATOM     17 CL1  UNL     1      68.702  62.189 117.728  0.00  0.00    +0.000 Cl
ATOM     18  C22 UNL     1      67.557  60.403 116.001  0.00  0.00    +0.000 A 
ATOM     19  C23 UNL     1      66.472  59.770 115.387  0.00  0.00    +0.000 A 
ENDBRANCH   9  13
ENDBRANCH   1   3
BRANCH   1  25
ATOM     20  C4  UNL     1      63.511  58.591 107.496  0.00  0.00    +0.000 A 
ATOM     21  C5  UNL     1      64.902  58.684 107.669  0.00  0.00    +0.000 A 
ATOM     22  C6  UNL     1      65.436  59.194 108.853  0.00  0.00    +0.000 A 
ATOM     23  C7  UNL     1      64.592  59.631 109.875  0.00  0.00    +0.000 A 
ATOM     24  F1  UNL     1      65.139  60.137 111.010  0.00  0.00    +0.000 F 
ATOM     25  C8  UNL     1      63.197  59.576 109.714  0.00  0.00    +0.000 A 
ATOM     26  C9  UNL     1      62.662  59.043 108.524  0.00  0.00    +0.000 A 
ATOM     27  F2  UNL     1      61.317  58.917 108.384  0.00  0.00    +0.000 F 
BRANCH  20  28
ATOM     28  N1  UNL     1      62.939  58.055 106.289  0.00  0.00    +0.000 N 
ATOM     29  H8  UNL     1      63.025  57.033 106.094  0.00  0.00    +0.000 HD
BRANCH  28  30
ATOM     30  S1  UNL     1      62.295  59.036 105.009  0.00  0.00    +0.000 S 
ATOM     31  O1  UNL     1      60.963  58.478 104.592  0.00  0.00    +0.000 OA
ATOM     32  O2  UNL     1      62.098  60.444 105.495  0.00  0.00    +0.000 OA
BRANCH  30  33
ATOM     33  C3  UNL     1      63.389  59.021 103.594  0.00  0.00    +0.000 C 
BRANCH  33  35
ATOM     34  C1  UNL     1      62.479  59.657 101.332  0.00  0.00    +0.000 C 
ATOM     35  C2  UNL     1      63.063  60.174 102.643  0.00  0.00    +0.000 C 
ENDBRANCH  33  35
ENDBRANCH  30  33
ENDBRANCH  28  30
ENDBRANCH  20  28
ENDBRANCH   1  25
TORSDOF 7
ENDMDL
MODEL 5
REMARK VINA RESULT:      -7.9      2.051      3.877
REMARK  Name = ./S1267.pdb
REMARK  8 active torsions:
REMARK  status: ('A' for Active; 'I' for Inactive)
REMARK    1  A    between atoms: C1_1  and  C2_2
REMARK    2  A    between atoms: C2_2  and  C3_3
REMARK    3  A    between atoms: C3_3  and  S1_4
REMARK    4  A    between atoms: S1_4  and  N1_7
REMARK    5  A    between atoms: N1_7  and  C4_8
REMARK    6  A    between atoms: C8_13  and  C10_16
REMARK    7  A    between atoms: C10_16  and  C11_18
REMARK    8  A    between atoms: C15_24  and  C18_27
REMARK                            x       y       z     vdW  Elec       q    Type
REMARK                         _______ _______ _______ _____ _____    ______ ____
ROOT
ATOM      1  C10 UNL     1      62.322  59.737 104.252  0.00  0.00    +0.000 C 
ATOM      2  O3  UNL     1      61.921  60.848 104.690  0.00  0.00    +0.000 OA
ENDROOT
BRANCH   1   3
ATOM      3  C11 UNL     1      63.043  58.816 105.157  0.00  0.00    +0.000 A 
ATOM      4  C12 UNL     1      63.847  57.737 104.780  0.00  0.00    +0.000 A 
ATOM      5  N2  UNL     1      64.316  57.088 105.870  0.00  0.00    +0.000 N 
ATOM      6  C13 UNL     1      63.810  57.742 106.926  0.00  0.00    +0.000 A 
ATOM      7  N3  UNL     1      64.019  57.432 108.228  0.00  0.00    +0.000 NA
ATOM      8  C14 UNL     1      63.433  58.193 109.198  0.00  0.00    +0.000 A 
ATOM      9  C15 UNL     1      62.615  59.305 108.856  0.00  0.00    +0.000 A 
ATOM     10  C16 UNL     1      62.414  59.610 107.491  0.00  0.00    +0.000 A 
ATOM     11  C17 UNL     1      63.030  58.796 106.543  0.00  0.00    +0.000 A 
ATOM     12  H12 UNL     1      64.935  56.247 105.884  0.00  0.00    +0.000 HD
BRANCH   9  13
ATOM     13  C18 UNL     1      61.984  60.134 109.915  0.00  0.00    +0.000 A 
ATOM     14  C19 UNL     1      62.159  59.812 111.275  0.00  0.00    +0.000 A 
ATOM     15  C20 UNL     1      61.565  60.593 112.270  0.00  0.00    +0.000 A 
ATOM     16  C21 UNL     1      60.791  61.704 111.922  0.00  0.00    +0.000 A 
ATOM     17 CL1  UNL     1      60.048  62.683 113.174  0.00  0.00    +0.000 Cl
ATOM     18  C22 UNL     1      60.610  62.033 110.576  0.00  0.00    +0.000 A 
ATOM     19  C23 UNL     1      61.202  61.254 109.577  0.00  0.00    +0.000 A 
ENDBRANCH   9  13
ENDBRANCH   1   3
BRANCH   1  25
ATOM     20  C4  UNL     1      60.775  58.052 101.212  0.00  0.00    +0.000 A 
ATOM     21  C5  UNL     1      61.496  58.677 100.181  0.00  0.00    +0.000 A 
ATOM     22  C6  UNL     1      62.482  59.619 100.478  0.00  0.00    +0.000 A 
ATOM     23  C7  UNL     1      62.755  59.960 101.803  0.00  0.00    +0.000 A 
ATOM     24  F1  UNL     1      63.709  60.890 102.061  0.00  0.00    +0.000 F 
ATOM     25  C8  UNL     1      62.026  59.370 102.850  0.00  0.00    +0.000 A 
ATOM     26  C9  UNL     1      61.043  58.406 102.547  0.00  0.00    +0.000 A 
ATOM     27  F2  UNL     1      60.383  57.775 103.553  0.00  0.00    +0.000 F 
BRANCH  20  28
ATOM     28  N1  UNL     1      59.762  57.068 100.930  0.00  0.00    +0.000 N 
ATOM     29  H8  UNL     1      58.757  57.318 101.065  0.00  0.00    +0.000 HD
BRANCH  28  30
ATOM     30  S1  UNL     1      60.106  55.401 100.585  0.00  0.00    +0.000 S 
ATOM     31  O1  UNL     1      58.858  54.593 100.800  0.00  0.00    +0.000 OA
ATOM     32  O2  UNL     1      60.537  55.256  99.153  0.00  0.00    +0.000 OA
BRANCH  30  33
ATOM     33  C3  UNL     1      61.381  54.783 101.677  0.00  0.00    +0.000 C 
BRANCH  33  35
ATOM     34  C1  UNL     1      61.749  54.804 104.169  0.00  0.00    +0.000 C 
ATOM     35  C2  UNL     1      60.798  54.416 103.042  0.00  0.00    +0.000 C 
ENDBRANCH  33  35
ENDBRANCH  30  33
ENDBRANCH  28  30
ENDBRANCH  20  28
ENDBRANCH   1  25
TORSDOF 7
ENDMDL
MODEL 6
REMARK VINA RESULT:      -7.8      2.511      3.819
REMARK  Name = ./S1267.pdb
REMARK  8 active torsions:
REMARK  status: ('A' for Active; 'I' for Inactive)
REMARK    1  A    between atoms: C1_1  and  C2_2
REMARK    2  A    between atoms: C2_2  and  C3_3
REMARK    3  A    between atoms: C3_3  and  S1_4
REMARK    4  A    between atoms: S1_4  and  N1_7
REMARK    5  A    between atoms: N1_7  and  C4_8
REMARK    6  A    between atoms: C8_13  and  C10_16
REMARK    7  A    between atoms: C10_16  and  C11_18
REMARK    8  A    between atoms: C15_24  and  C18_27
REMARK                            x       y       z     vdW  Elec       q    Type
REMARK                         _______ _______ _______ _____ _____    ______ ____
ROOT
ATOM      1  C10 UNL     1      62.313  58.951 106.228  0.00  0.00    +0.000 C 
ATOM      2  O3  UNL     1      62.163  60.178 105.985  0.00  0.00    +0.000 OA
ENDROOT
BRANCH   1   3
ATOM      3  C11 UNL     1      62.908  58.532 107.515  0.00  0.00    +0.000 A 
ATOM      4  C12 UNL     1      63.762  57.446 107.724  0.00  0.00    +0.000 A 
ATOM      5  N2  UNL     1      64.080  57.334 109.033  0.00  0.00    +0.000 N 
ATOM      6  C13 UNL     1      63.431  58.333 109.650  0.00  0.00    +0.000 A 
ATOM      7  N3  UNL     1      63.461  58.601 110.977  0.00  0.00    +0.000 NA
ATOM      8  C14 UNL     1      62.744  59.656 111.462  0.00  0.00    +0.000 A 
ATOM      9  C15 UNL     1      61.975  60.476 110.591  0.00  0.00    +0.000 A 
ATOM     10  C16 UNL     1      61.961  60.177 109.209  0.00  0.00    +0.000 A 
ATOM     11  C17 UNL     1      62.706  59.084 108.770  0.00  0.00    +0.000 A 
ATOM     12  H12 UNL     1      64.696  56.613 109.473  0.00  0.00    +0.000 HD
BRANCH   9  13
ATOM     13  C18 UNL     1      61.201  61.626 111.122  0.00  0.00    +0.000 A 
ATOM     14  C19 UNL     1      60.947  62.752 110.315  0.00  0.00    +0.000 A 
ATOM     15  C20 UNL     1      60.218  63.833 110.817  0.00  0.00    +0.000 A 
ATOM     16  C21 UNL     1      59.734  63.807 112.128  0.00  0.00    +0.000 A 
ATOM     17 CL1  UNL     1      58.819  65.166 112.755  0.00  0.00    +0.000 Cl
ATOM     18  C22 UNL     1      59.979  62.695 112.938  0.00  0.00    +0.000 A 
ATOM     19  C23 UNL     1      60.708  61.610 112.440  0.00  0.00    +0.000 A 
ENDBRANCH   9  13
ENDBRANCH   1   3
BRANCH   1  25
ATOM     20  C4  UNL     1      60.257  56.259 104.496  0.00  0.00    +0.000 A 
ATOM     21  C5  UNL     1      61.013  56.076 103.326  0.00  0.00    +0.000 A 
ATOM     22  C6  UNL     1      62.184  56.806 103.118  0.00  0.00    +0.000 A 
ATOM     23  C7  UNL     1      62.610  57.739 104.065  0.00  0.00    +0.000 A 
ATOM     24  F1  UNL     1      63.744  58.446 103.830  0.00  0.00    +0.000 F 
ATOM     25  C8  UNL     1      61.854  57.961 105.229  0.00  0.00    +0.000 A 
ATOM     26  C9  UNL     1      60.682  57.208 105.444  0.00  0.00    +0.000 A 
ATOM     27  F2  UNL     1      59.982  57.361 106.598  0.00  0.00    +0.000 F 
BRANCH  20  28
ATOM     28  N1  UNL     1      59.054  55.506 104.738  0.00  0.00    +0.000 N 
ATOM     29  H8  UNL     1      58.138  55.891 104.413  0.00  0.00    +0.000 HD
BRANCH  28  30
ATOM     30  S1  UNL     1      58.988  54.088 105.737  0.00  0.00    +0.000 S 
ATOM     31  O1  UNL     1      58.937  54.511 107.178  0.00  0.00    +0.000 OA
ATOM     32  O2  UNL     1      57.748  53.299 105.421  0.00  0.00    +0.000 OA
BRANCH  30  33
ATOM     33  C3  UNL     1      60.441  53.075 105.489  0.00  0.00    +0.000 C 
BRANCH  33  35
ATOM     34  C1  UNL     1      61.847  52.052 103.666  0.00  0.00    +0.000 C 
ATOM     35  C2  UNL     1      60.438  52.454 104.092  0.00  0.00    +0.000 C 
ENDBRANCH  33  35
ENDBRANCH  30  33
ENDBRANCH  28  30
ENDBRANCH  20  28
ENDBRANCH   1  25
TORSDOF 7
ENDMDL
MODEL 7
REMARK VINA RESULT:      -7.8      2.765      4.028
REMARK  Name = ./S1267.pdb
REMARK  8 active torsions:
REMARK  status: ('A' for Active; 'I' for Inactive)
REMARK    1  A    between atoms: C1_1  and  C2_2
REMARK    2  A    between atoms: C2_2  and  C3_3
REMARK    3  A    between atoms: C3_3  and  S1_4
REMARK    4  A    between atoms: S1_4  and  N1_7
REMARK    5  A    between atoms: N1_7  and  C4_8
REMARK    6  A    between atoms: C8_13  and  C10_16
REMARK    7  A    between atoms: C10_16  and  C11_18
REMARK    8  A    between atoms: C15_24  and  C18_27
REMARK                            x       y       z     vdW  Elec       q    Type
REMARK                         _______ _______ _______ _____ _____    ______ ____
ROOT
ATOM      1  C10 UNL     1      62.308  59.705 104.548  0.00  0.00    +0.000 C 
ATOM      2  O3  UNL     1      62.067  60.891 104.899  0.00  0.00    +0.000 OA
ENDROOT
BRANCH   1   3
ATOM      3  C11 UNL     1      63.026  58.804 105.475  0.00  0.00    +0.000 A 
ATOM      4  C12 UNL     1      63.838  57.722 105.125  0.00  0.00    +0.000 A 
ATOM      5  N2  UNL     1      64.301  57.095 106.230  0.00  0.00    +0.000 N 
ATOM      6  C13 UNL     1      63.785  57.767 107.269  0.00  0.00    +0.000 A 
ATOM      7  N3  UNL     1      63.985  57.483 108.578  0.00  0.00    +0.000 NA
ATOM      8  C14 UNL     1      63.390  58.260 109.530  0.00  0.00    +0.000 A 
ATOM      9  C15 UNL     1      62.570  59.362 109.161  0.00  0.00    +0.000 A 
ATOM     10  C16 UNL     1      62.377  59.640 107.789  0.00  0.00    +0.000 A 
ATOM     11  C17 UNL     1      63.004  58.811 106.861  0.00  0.00    +0.000 A 
ATOM     12  H12 UNL     1      64.923  56.257 106.264  0.00  0.00    +0.000 HD
BRANCH   9  13
ATOM     13  C18 UNL     1      61.929  60.208 110.200  0.00  0.00    +0.000 A 
ATOM     14  C19 UNL     1      62.044  59.878 111.564  0.00  0.00    +0.000 A 
ATOM     15  C20 UNL     1      61.440  60.676 112.539  0.00  0.00    +0.000 A 
ATOM     16  C21 UNL     1      60.715  61.811 112.168  0.00  0.00    +0.000 A 
ATOM     17 CL1  UNL     1      59.959  62.811 113.395  0.00  0.00    +0.000 Cl
ATOM     18  C22 UNL     1      60.593  62.149 110.817  0.00  0.00    +0.000 A 
ATOM     19  C23 UNL     1      61.195  61.353 109.838  0.00  0.00    +0.000 A 
ENDBRANCH   9  13
ENDBRANCH   1   3
BRANCH   1  25
ATOM     20  C4  UNL     1      60.308  57.887 101.870  0.00  0.00    +0.000 A 
ATOM     21  C5  UNL     1      60.958  58.348 100.712  0.00  0.00    +0.000 A 
ATOM     22  C6  UNL     1      62.042  59.221 100.808  0.00  0.00    +0.000 A 
ATOM     23  C7  UNL     1      62.485  59.659 102.057  0.00  0.00    +0.000 A 
ATOM     24  F1  UNL     1      63.532  60.521 102.121  0.00  0.00    +0.000 F 
ATOM     25  C8  UNL     1      61.832  59.236 103.228  0.00  0.00    +0.000 A 
ATOM     26  C9  UNL     1      60.749  58.340 103.127  0.00  0.00    +0.000 A 
ATOM     27  F2  UNL     1      60.156  57.866 104.254  0.00  0.00    +0.000 F 
BRANCH  20  28
ATOM     28  N1  UNL     1      59.197  56.975 101.795  0.00  0.00    +0.000 N 
ATOM     29  H8  UNL     1      59.359  56.002 101.452  0.00  0.00    +0.000 HD
BRANCH  28  30
ATOM     30  S1  UNL     1      57.543  57.448 102.030  0.00  0.00    +0.000 S 
ATOM     31  O1  UNL     1      56.788  56.294 102.629  0.00  0.00    +0.000 OA
ATOM     32  O2  UNL     1      57.476  58.613 102.977  0.00  0.00    +0.000 OA
BRANCH  30  33
ATOM     33  C3  UNL     1      56.783  57.879 100.470  0.00  0.00    +0.000 C 
BRANCH  33  35
ATOM     34  C1  UNL     1      58.113  57.833  98.330  0.00  0.00    +0.000 C 
ATOM     35  C2  UNL     1      57.327  57.003  99.340  0.00  0.00    +0.000 C 
ENDBRANCH  33  35
ENDBRANCH  30  33
ENDBRANCH  28  30
ENDBRANCH  20  28
ENDBRANCH   1  25
TORSDOF 7
ENDMDL
MODEL 8
REMARK VINA RESULT:      -7.7      2.081      2.999
REMARK  Name = ./S1267.pdb
REMARK  8 active torsions:
REMARK  status: ('A' for Active; 'I' for Inactive)
REMARK    1  A    between atoms: C1_1  and  C2_2
REMARK    2  A    between atoms: C2_2  and  C3_3
REMARK    3  A    between atoms: C3_3  and  S1_4
REMARK    4  A    between atoms: S1_4  and  N1_7
REMARK    5  A    between atoms: N1_7  and  C4_8
REMARK    6  A    between atoms: C8_13  and  C10_16
REMARK    7  A    between atoms: C10_16  and  C11_18
REMARK    8  A    between atoms: C15_24  and  C18_27
REMARK                            x       y       z     vdW  Elec       q    Type
REMARK                         _______ _______ _______ _____ _____    ______ ____
ROOT
ATOM      1  C10 UNL     1      63.594  57.609 106.994  0.00  0.00    +0.000 C 
ATOM      2  O3  UNL     1      62.893  56.609 107.307  0.00  0.00    +0.000 OA
ENDROOT
BRANCH   1   3
ATOM      3  C11 UNL     1      64.656  58.068 107.914  0.00  0.00    +0.000 A 
ATOM      4  C12 UNL     1      66.033  57.894 107.752  0.00  0.00    +0.000 A 
ATOM      5  N2  UNL     1      66.707  58.404 108.807  0.00  0.00    +0.000 N 
ATOM      6  C13 UNL     1      65.769  58.892 109.633  0.00  0.00    +0.000 A 
ATOM      7  N3  UNL     1      65.995  59.498 110.823  0.00  0.00    +0.000 NA
ATOM      8  C14 UNL     1      64.935  59.944 111.558  0.00  0.00    +0.000 A 
ATOM      9  C15 UNL     1      63.603  59.785 111.085  0.00  0.00    +0.000 A 
ATOM     10  C16 UNL     1      63.392  59.151 109.840  0.00  0.00    +0.000 A 
ATOM     11  C17 UNL     1      64.511  58.709 109.135  0.00  0.00    +0.000 A 
ATOM     12  H12 UNL     1      67.741  58.409 108.952  0.00  0.00    +0.000 HD
BRANCH   9  13
ATOM     13  C18 UNL     1      62.453  60.277 111.885  0.00  0.00    +0.000 A 
ATOM     14  C19 UNL     1      62.396  60.048 113.274  0.00  0.00    +0.000 A 
ATOM     15  C20 UNL     1      61.313  60.513 114.024  0.00  0.00    +0.000 A 
ATOM     16  C21 UNL     1      60.274  61.211 113.402  0.00  0.00    +0.000 A 
ATOM     17 CL1  UNL     1      58.916  61.793 114.347  0.00  0.00    +0.000 Cl
ATOM     18  C22 UNL     1      60.319  61.444 112.024  0.00  0.00    +0.000 A 
ATOM     19  C23 UNL     1      61.401  60.980 111.269  0.00  0.00    +0.000 A 
ENDBRANCH   9  13
ENDBRANCH   1   3
BRANCH   1  25
ATOM     20  C4  UNL     1      63.580  58.333 103.259  0.00  0.00    +0.000 A 
ATOM     21  C5  UNL     1      62.904  59.566 103.243  0.00  0.00    +0.000 A 
ATOM     22  C6  UNL     1      62.479  60.156 104.433  0.00  0.00    +0.000 A 
ATOM     23  C7  UNL     1      62.708  59.522 105.655  0.00  0.00    +0.000 A 
ATOM     24  F1  UNL     1      62.270  60.112 106.796  0.00  0.00    +0.000 F 
ATOM     25  C8  UNL     1      63.355  58.275 105.695  0.00  0.00    +0.000 A 
ATOM     26  C9  UNL     1      63.799  57.691 104.492  0.00  0.00    +0.000 A 
ATOM     27  F2  UNL     1      64.489  56.521 104.522  0.00  0.00    +0.000 F 
BRANCH  20  28
ATOM     28  N1  UNL     1      64.040  57.713 102.045  0.00  0.00    +0.000 N 
ATOM     29  H8  UNL     1      65.047  57.797 101.779  0.00  0.00    +0.000 HD
BRANCH  28  30
ATOM     30  S1  UNL     1      62.983  57.010 100.861  0.00  0.00    +0.000 S 
ATOM     31  O1  UNL     1      62.487  58.095  99.946  0.00  0.00    +0.000 OA
ATOM     32  O2  UNL     1      63.734  55.996 100.045  0.00  0.00    +0.000 OA
BRANCH  30  33
ATOM     33  C3  UNL     1      61.575  56.241 101.651  0.00  0.00    +0.000 C 
BRANCH  33  35
ATOM     34  C1  UNL     1      61.396  55.087 103.884  0.00  0.00    +0.000 C 
ATOM     35  C2  UNL     1      62.011  55.038 102.489  0.00  0.00    +0.000 C 
ENDBRANCH  33  35
ENDBRANCH  30  33
ENDBRANCH  28  30
ENDBRANCH  20  28
ENDBRANCH   1  25
TORSDOF 7
ENDMDL
MODEL 9
REMARK VINA RESULT:      -7.7      5.019      9.055
REMARK  Name = ./S1267.pdb
REMARK  8 active torsions:
REMARK  status: ('A' for Active; 'I' for Inactive)
REMARK    1  A    between atoms: C1_1  and  C2_2
REMARK    2  A    between atoms: C2_2  and  C3_3
REMARK    3  A    between atoms: C3_3  and  S1_4
REMARK    4  A    between atoms: S1_4  and  N1_7
REMARK    5  A    between atoms: N1_7  and  C4_8
REMARK    6  A    between atoms: C8_13  and  C10_16
REMARK    7  A    between atoms: C10_16  and  C11_18
REMARK    8  A    between atoms: C15_24  and  C18_27
REMARK                            x       y       z     vdW  Elec       q    Type
REMARK                         _______ _______ _______ _____ _____    ______ ____
ROOT
ATOM      1  C10 UNL     1      63.475  58.245 109.594  0.00  0.00    +0.000 C 
ATOM      2  O3  UNL     1      64.326  57.329 109.741  0.00  0.00    +0.000 OA
ENDROOT
BRANCH   1   3
ATOM      3  C11 UNL     1      63.170  58.745 108.236  0.00  0.00    +0.000 A 
ATOM      4  C12 UNL     1      63.468  60.011 107.727  0.00  0.00    +0.000 A 
ATOM      5  N2  UNL     1      63.008  60.138 106.462  0.00  0.00    +0.000 N 
ATOM      6  C13 UNL     1      62.419  58.968 106.173  0.00  0.00    +0.000 A 
ATOM      7  N3  UNL     1      61.815  58.650 105.003  0.00  0.00    +0.000 NA
ATOM      8  C14 UNL     1      61.255  57.414 104.855  0.00  0.00    +0.000 A 
ATOM      9  C15 UNL     1      61.304  56.461 105.910  0.00  0.00    +0.000 A 
ATOM     10  C16 UNL     1      61.942  56.816 107.120  0.00  0.00    +0.000 A 
ATOM     11  C17 UNL     1      62.490  58.093 107.219  0.00  0.00    +0.000 A 
ATOM     12  H12 UNL     1      63.087  60.976 105.844  0.00  0.00    +0.000 HD
BRANCH   9  13
ATOM     13  C18 UNL     1      60.699  55.115 105.742  0.00  0.00    +0.000 A 
ATOM     14  C19 UNL     1      60.852  54.407 104.535  0.00  0.00    +0.000 A 
ATOM     15  C20 UNL     1      60.282  53.141 104.380  0.00  0.00    +0.000 A 
ATOM     16  C21 UNL     1      59.553  52.565 105.424  0.00  0.00    +0.000 A 
ATOM     17 CL1  UNL     1      58.838  50.976 105.226  0.00  0.00    +0.000 Cl
ATOM     18  C22 UNL     1      59.393  53.259 106.627  0.00  0.00    +0.000 A 
ATOM     19  C23 UNL     1      59.962  54.526 106.786  0.00  0.00    +0.000 A 
ENDBRANCH   9  13
ENDBRANCH   1   3
BRANCH   1  25
ATOM     20  C4  UNL     1      60.722  59.122 112.070  0.00  0.00    +0.000 A 
ATOM     21  C5  UNL     1      61.469  59.798 113.050  0.00  0.00    +0.000 A 
ATOM     22  C6  UNL     1      62.843  59.978 112.894  0.00  0.00    +0.000 A 
ATOM     23  C7  UNL     1      63.496  59.478 111.766  0.00  0.00    +0.000 A 
ATOM     24  F1  UNL     1      64.837  59.655 111.647  0.00  0.00    +0.000 F 
ATOM     25  C8  UNL     1      62.776  58.773 110.786  0.00  0.00    +0.000 A 
ATOM     26  C9  UNL     1      61.384  58.608 110.940  0.00  0.00    +0.000 A 
ATOM     27  F2  UNL     1      60.665  57.992 109.966  0.00  0.00    +0.000 F 
BRANCH  20  28
ATOM     28  N1  UNL     1      59.301  58.936 112.205  0.00  0.00    +0.000 N 
ATOM     29  H8  UNL     1      58.940  58.039 112.600  0.00  0.00    +0.000 HD
BRANCH  28  30
ATOM     30  S1  UNL     1      58.120  60.024 111.546  0.00  0.00    +0.000 S 
ATOM     31  O1  UNL     1      57.213  59.258 110.624  0.00  0.00    +0.000 OA
ATOM     32  O2  UNL     1      57.294  60.613 112.656  0.00  0.00    +0.000 OA
BRANCH  30  33
ATOM     33  C3  UNL     1      58.914  61.327 110.613  0.00  0.00    +0.000 C 
BRANCH  33  35
ATOM     34  C1  UNL     1      60.275  63.118 111.747  0.00  0.00    +0.000 C 
ATOM     35  C2  UNL     1      58.871  62.649 111.381  0.00  0.00    +0.000 C 
ENDBRANCH  33  35
ENDBRANCH  30  33
ENDBRANCH  28  30
ENDBRANCH  20  28
ENDBRANCH   1  25
TORSDOF 7
ENDMDL
MODEL 10
REMARK VINA RESULT:      -7.7      0.778      1.189
REMARK  Name = ./S1267.pdb
REMARK  8 active torsions:
REMARK  status: ('A' for Active; 'I' for Inactive)
REMARK    1  A    between atoms: C1_1  and  C2_2
REMARK    2  A    between atoms: C2_2  and  C3_3
REMARK    3  A    between atoms: C3_3  and  S1_4
REMARK    4  A    between atoms: S1_4  and  N1_7
REMARK    5  A    between atoms: N1_7  and  C4_8
REMARK    6  A    between atoms: C8_13  and  C10_16
REMARK    7  A    between atoms: C10_16  and  C11_18
REMARK    8  A    between atoms: C15_24  and  C18_27
REMARK                            x       y       z     vdW  Elec       q    Type
REMARK                         _______ _______ _______ _____ _____    ______ ____
ROOT
ATOM      1  C10 UNL     1      62.417  58.952 106.613  0.00  0.00    +0.000 C 
ATOM      2  O3  UNL     1      62.235  60.156 106.290  0.00  0.00    +0.000 OA
ENDROOT
BRANCH   1   3
ATOM      3  C11 UNL     1      63.044  58.635 107.914  0.00  0.00    +0.000 A 
ATOM      4  C12 UNL     1      63.971  57.622 108.168  0.00  0.00    +0.000 A 
ATOM      5  N2  UNL     1      64.301  57.593 109.479  0.00  0.00    +0.000 N 
ATOM      6  C13 UNL     1      63.586  58.573 110.053  0.00  0.00    +0.000 A 
ATOM      7  N3  UNL     1      63.602  58.904 111.366  0.00  0.00    +0.000 NA
ATOM      8  C14 UNL     1      62.816  59.930 111.806  0.00  0.00    +0.000 A 
ATOM      9  C15 UNL     1      61.989  60.653 110.902  0.00  0.00    +0.000 A 
ATOM     10  C16 UNL     1      61.991  60.290 109.536  0.00  0.00    +0.000 A 
ATOM     11  C17 UNL     1      62.808  59.231 109.144  0.00  0.00    +0.000 A 
ATOM     12  H12 UNL     1      64.966  56.938 109.947  0.00  0.00    +0.000 HD
BRANCH   9  13
ATOM     13  C18 UNL     1      61.139  61.771 111.385  0.00  0.00    +0.000 A 
ATOM     14  C19 UNL     1      60.861  62.870 110.550  0.00  0.00    +0.000 A 
ATOM     15  C20 UNL     1      60.061  63.921 111.006  0.00  0.00    +0.000 A 
ATOM     16  C21 UNL     1      59.528  63.890 112.298  0.00  0.00    +0.000 A 
ATOM     17 CL1  UNL     1      58.524  65.211 112.866  0.00  0.00    +0.000 Cl
ATOM     18  C22 UNL     1      59.797  62.804 113.136  0.00  0.00    +0.000 A 
ATOM     19  C23 UNL     1      60.598  61.750 112.684  0.00  0.00    +0.000 A 
ENDBRANCH   9  13
ENDBRANCH   1   3
BRANCH   1  25
ATOM     20  C4  UNL     1      62.188  56.645 103.597  0.00  0.00    +0.000 A 
ATOM     21  C5  UNL     1      61.072  55.869 103.956  0.00  0.00    +0.000 A 
ATOM     22  C6  UNL     1      60.398  56.110 105.153  0.00  0.00    +0.000 A 
ATOM     23  C7  UNL     1      60.832  57.117 106.016  0.00  0.00    +0.000 A 
ATOM     24  F1  UNL     1      60.166  57.319 107.181  0.00  0.00    +0.000 F 
ATOM     25  C8  UNL     1      61.963  57.886 105.694  0.00  0.00    +0.000 A 
ATOM     26  C9  UNL     1      62.631  57.652 104.475  0.00  0.00    +0.000 A 
ATOM     27  F2  UNL     1      63.681  58.436 104.117  0.00  0.00    +0.000 F 
BRANCH  20  28
ATOM     28  N1  UNL     1      62.890  56.423 102.360  0.00  0.00    +0.000 N 
ATOM     29  H8  UNL     1      63.858  56.031 102.388  0.00  0.00    +0.000 HD
BRANCH  28  30
ATOM     30  S1  UNL     1      62.320  56.971 100.815  0.00  0.00    +0.000 S 
ATOM     31  O1  UNL     1      63.460  57.615 100.077  0.00  0.00    +0.000 OA
ATOM     32  O2  UNL     1      61.822  55.802 100.012  0.00  0.00    +0.000 OA
BRANCH  30  33
ATOM     33  C3  UNL     1      61.016  58.178 101.017  0.00  0.00    +0.000 C 
BRANCH  33  35
ATOM     34  C1  UNL     1      58.679  57.684 101.819  0.00  0.00    +0.000 C 
ATOM     35  C2  UNL     1      59.658  57.577 100.654  0.00  0.00    +0.000 C 
ENDBRANCH  33  35
ENDBRANCH  30  33
ENDBRANCH  28  30
ENDBRANCH  20  28
ENDBRANCH   1  25
TORSDOF 7
ENDMDL
MODEL 11
REMARK VINA RESULT:      -7.7      3.331      4.464
REMARK  Name = ./S1267.pdb
REMARK  8 active torsions:
REMARK  status: ('A' for Active; 'I' for Inactive)
REMARK    1  A    between atoms: C1_1  and  C2_2
REMARK    2  A    between atoms: C2_2  and  C3_3
REMARK    3  A    between atoms: C3_3  and  S1_4
REMARK    4  A    between atoms: S1_4  and  N1_7
REMARK    5  A    between atoms: N1_7  and  C4_8
REMARK    6  A    between atoms: C8_13  and  C10_16
REMARK    7  A    between atoms: C10_16  and  C11_18
REMARK    8  A    between atoms: C15_24  and  C18_27
REMARK                            x       y       z     vdW  Elec       q    Type
REMARK                         _______ _______ _______ _____ _____    ______ ____
ROOT
ATOM      1  C10 UNL     1      62.762  57.618 109.016  0.00  0.00    +0.000 C 
ATOM      2  O3  UNL     1      63.904  57.362 109.483  0.00  0.00    +0.000 OA
ENDROOT
BRANCH   1   3
ATOM      3  C11 UNL     1      61.778  58.337 109.854  0.00  0.00    +0.000 A 
ATOM      4  C12 UNL     1      60.448  58.613 109.526  0.00  0.00    +0.000 A 
ATOM      5  N2  UNL     1      59.852  59.325 110.510  0.00  0.00    +0.000 N 
ATOM      6  C13 UNL     1      60.794  59.504 111.448  0.00  0.00    +0.000 A 
ATOM      7  N3  UNL     1      60.636  60.170 112.616  0.00  0.00    +0.000 NA
ATOM      8  C14 UNL     1      61.692  60.272 113.476  0.00  0.00    +0.000 A 
ATOM      9  C15 UNL     1      62.947  59.684 113.160  0.00  0.00    +0.000 A 
ATOM     10  C16 UNL     1      63.088  58.992 111.935  0.00  0.00    +0.000 A 
ATOM     11  C17 UNL     1      61.979  58.924 111.093  0.00  0.00    +0.000 A 
ATOM     12  H12 UNL     1      58.867  59.670 110.529  0.00  0.00    +0.000 HD
BRANCH   9  13
ATOM     13  C18 UNL     1      64.091  59.792 114.100  0.00  0.00    +0.000 A 
ATOM     14  C19 UNL     1      63.874  59.815 115.492  0.00  0.00    +0.000 A 
ATOM     15  C20 UNL     1      64.953  59.917 116.374  0.00  0.00    +0.000 A 
ATOM     16  C21 UNL     1      66.259  59.996 115.883  0.00  0.00    +0.000 A 
ATOM     17 CL1  UNL     1      67.610  60.123 116.995  0.00  0.00    +0.000 Cl
ATOM     18  C22 UNL     1      66.487  59.973 114.504  0.00  0.00    +0.000 A 
ATOM     19  C23 UNL     1      65.411  59.872 113.617  0.00  0.00    +0.000 A 
ENDBRANCH   9  13
ENDBRANCH   1   3
BRANCH   1  25
ATOM     20  C4  UNL     1      62.627  57.596 105.214  0.00  0.00    +0.000 A 
ATOM     21  C5  UNL     1      61.832  56.458 104.995  0.00  0.00    +0.000 A 
ATOM     22  C6  UNL     1      61.334  55.725 106.072  0.00  0.00    +0.000 A 
ATOM     23  C7  UNL     1      61.633  56.105 107.382  0.00  0.00    +0.000 A 
ATOM     24  F1  UNL     1      61.147  55.364 108.410  0.00  0.00    +0.000 F 
ATOM     25  C8  UNL     1      62.451  57.221 107.626  0.00  0.00    +0.000 A 
ATOM     26  C9  UNL     1      62.936  57.970 106.535  0.00  0.00    +0.000 A 
ATOM     27  F2  UNL     1      63.668  59.093 106.758  0.00  0.00    +0.000 F 
BRANCH  20  28
ATOM     28  N1  UNL     1      63.140  58.376 104.118  0.00  0.00    +0.000 N 
ATOM     29  H8  UNL     1      64.118  58.212 103.790  0.00  0.00    +0.000 HD
BRANCH  28  30
ATOM     30  S1  UNL     1      62.312  59.739 103.434  0.00  0.00    +0.000 S 
ATOM     31  O1  UNL     1      60.849  59.635 103.763  0.00  0.00    +0.000 OA
ATOM     32  O2  UNL     1      62.850  61.012 104.026  0.00  0.00    +0.000 OA
BRANCH  30  33
ATOM     33  C3  UNL     1      62.498  59.762 101.655  0.00  0.00    +0.000 C 
BRANCH  33  35
ATOM     34  C1  UNL     1      64.832  59.694 100.710  0.00  0.00    +0.000 C 
ATOM     35  C2  UNL     1      63.718  60.587 101.247  0.00  0.00    +0.000 C 
ENDBRANCH  33  35
ENDBRANCH  30  33
ENDBRANCH  28  30
ENDBRANCH  20  28
ENDBRANCH   1  25
TORSDOF 7
ENDMDL
MODEL 12
REMARK VINA RESULT:      -7.7      4.417      8.844
REMARK  Name = ./S1267.pdb
REMARK  8 active torsions:
REMARK  status: ('A' for Active; 'I' for Inactive)
REMARK    1  A    between atoms: C1_1  and  C2_2
REMARK    2  A    between atoms: C2_2  and  C3_3
REMARK    3  A    between atoms: C3_3  and  S1_4
REMARK    4  A    between atoms: S1_4  and  N1_7
REMARK    5  A    between atoms: N1_7  and  C4_8
REMARK    6  A    between atoms: C8_13  and  C10_16
REMARK    7  A    between atoms: C10_16  and  C11_18
REMARK    8  A    between atoms: C15_24  and  C18_27
REMARK                            x       y       z     vdW  Elec       q    Type
REMARK                         _______ _______ _______ _____ _____    ______ ____
ROOT
ATOM      1  C10 UNL     1      64.050  57.707 106.979  0.00  0.00    +0.000 C 
ATOM      2  O3  UNL     1      64.833  56.761 106.698  0.00  0.00    +0.000 OA
ENDROOT
BRANCH   1   3
ATOM      3  C11 UNL     1      63.084  58.177 105.963  0.00  0.00    +0.000 A 
ATOM      4  C12 UNL     1      63.107  59.404 105.294  0.00  0.00    +0.000 A 
ATOM      5  N2  UNL     1      62.045  59.515 104.464  0.00  0.00    +0.000 N 
ATOM      6  C13 UNL     1      61.353  58.376 104.609  0.00  0.00    +0.000 A 
ATOM      7  N3  UNL     1      60.205  58.056 103.964  0.00  0.00    +0.000 NA
ATOM      8  C14 UNL     1      59.610  56.853 104.216  0.00  0.00    +0.000 A 
ATOM      9  C15 UNL     1      60.183  55.936 105.140  0.00  0.00    +0.000 A 
ATOM     10  C16 UNL     1      61.382  56.292 105.799  0.00  0.00    +0.000 A 
ATOM     11  C17 UNL     1      61.943  57.535 105.509  0.00  0.00    +0.000 A 
ATOM     12  H12 UNL     1      61.810  60.324 103.847  0.00  0.00    +0.000 HD
BRANCH   9  13
ATOM     13  C18 UNL     1      59.536  54.627 105.407  0.00  0.00    +0.000 A 
ATOM     14  C19 UNL     1      59.987  53.806 106.457  0.00  0.00    +0.000 A 
ATOM     15  C20 UNL     1      59.375  52.574 106.706  0.00  0.00    +0.000 A 
ATOM     16  C21 UNL     1      58.307  52.146 105.913  0.00  0.00    +0.000 A 
ATOM     17 CL1  UNL     1      57.542  50.600 106.229  0.00  0.00    +0.000 Cl
ATOM     18  C22 UNL     1      57.850  52.953 104.867  0.00  0.00    +0.000 A 
ATOM     19  C23 UNL     1      58.460  54.186 104.614  0.00  0.00    +0.000 A 
ENDBRANCH   9  13
ENDBRANCH   1   3
BRANCH   1  25
ATOM     20  C4  UNL     1      63.143  58.582 110.568  0.00  0.00    +0.000 A 
ATOM     21  C5  UNL     1      64.200  59.449 110.893  0.00  0.00    +0.000 A 
ATOM     22  C6  UNL     1      65.180  59.756 109.948  0.00  0.00    +0.000 A 
ATOM     23  C7  UNL     1      65.129  59.193 108.672  0.00  0.00    +0.000 A 
ATOM     24  F1  UNL     1      66.104  59.497 107.778  0.00  0.00    +0.000 F 
ATOM     25  C8  UNL     1      64.098  58.300 108.333  0.00  0.00    +0.000 A 
ATOM     26  C9  UNL     1      63.100  58.007 109.285  0.00  0.00    +0.000 A 
ATOM     27  F2  UNL     1      62.058  57.202 108.947  0.00  0.00    +0.000 F 
BRANCH  20  28
ATOM     28  N1  UNL     1      62.113  58.263 111.523  0.00  0.00    +0.000 N 
ATOM     29  H8  UNL     1      62.209  57.403 112.107  0.00  0.00    +0.000 HD
BRANCH  28  30
ATOM     30  S1  UNL     1      60.596  59.100 111.621  0.00  0.00    +0.000 S 
ATOM     31  O1  UNL     1      59.817  58.845 110.361  0.00  0.00    +0.000 OA
ATOM     32  O2  UNL     1      59.804  58.586 112.790  0.00  0.00    +0.000 OA
BRANCH  30  33
ATOM     33  C3  UNL     1      60.858  60.862 111.783  0.00  0.00    +0.000 C 
BRANCH  33  35
ATOM     34  C1  UNL     1      60.849  63.059 110.549  0.00  0.00    +0.000 C 
ATOM     35  C2  UNL     1      60.858  61.540 110.412  0.00  0.00    +0.000 C 
ENDBRANCH  33  35
ENDBRANCH  30  33
ENDBRANCH  28  30
ENDBRANCH  20  28
ENDBRANCH   1  25
TORSDOF 7
ENDMDL
MODEL 13
REMARK VINA RESULT:      -7.5      4.793      6.878
REMARK  Name = ./S1267.pdb
REMARK  8 active torsions:
REMARK  status: ('A' for Active; 'I' for Inactive)
REMARK    1  A    between atoms: C1_1  and  C2_2
REMARK    2  A    between atoms: C2_2  and  C3_3
REMARK    3  A    between atoms: C3_3  and  S1_4
REMARK    4  A    between atoms: S1_4  and  N1_7
REMARK    5  A    between atoms: N1_7  and  C4_8
REMARK    6  A    between atoms: C8_13  and  C10_16
REMARK    7  A    between atoms: C10_16  and  C11_18
REMARK    8  A    between atoms: C15_24  and  C18_27
REMARK                            x       y       z     vdW  Elec       q    Type
REMARK                         _______ _______ _______ _____ _____    ______ ____
ROOT
ATOM      1  C10 UNL     1      61.828  60.069 111.753  0.00  0.00    +0.000 C 
ATOM      2  O3  UNL     1      61.753  61.258 111.343  0.00  0.00    +0.000 OA
ENDROOT
BRANCH   1   3
ATOM      3  C11 UNL     1      61.619  59.781 113.189  0.00  0.00    +0.000 A 
ATOM      4  C12 UNL     1      60.395  59.565 113.826  0.00  0.00    +0.000 A 
ATOM      5  N2  UNL     1      60.575  59.371 115.152  0.00  0.00    +0.000 N 
ATOM      6  C13 UNL     1      61.897  59.469 115.356  0.00  0.00    +0.000 A 
ATOM      7  N3  UNL     1      62.529  59.343 116.547  0.00  0.00    +0.000 NA
ATOM      8  C14 UNL     1      63.888  59.469 116.599  0.00  0.00    +0.000 A 
ATOM      9  C15 UNL     1      64.641  59.725 115.420  0.00  0.00    +0.000 A 
ATOM     10  C16 UNL     1      63.959  59.851 114.188  0.00  0.00    +0.000 A 
ATOM     11  C17 UNL     1      62.571  59.719 114.194  0.00  0.00    +0.000 A 
ATOM     12  H12 UNL     1      59.836  59.191 115.868  0.00  0.00    +0.000 HD
BRANCH   9  13
ATOM     13  C18 UNL     1      66.119  59.857 115.480  0.00  0.00    +0.000 A 
ATOM     14  C19 UNL     1      66.942  59.057 114.664  0.00  0.00    +0.000 A 
ATOM     15  C20 UNL     1      68.333  59.183 114.723  0.00  0.00    +0.000 A 
ATOM     16  C21 UNL     1      68.919  60.106 115.594  0.00  0.00    +0.000 A 
ATOM     17 CL1  UNL     1      70.665  60.261 115.664  0.00  0.00    +0.000 Cl
ATOM     18  C22 UNL     1      68.112  60.905 116.409  0.00  0.00    +0.000 A 
ATOM     19  C23 UNL     1      66.720  60.782 116.354  0.00  0.00    +0.000 A 
ENDBRANCH   9  13
ENDBRANCH   1   3
BRANCH   1  25
ATOM     20  C4  UNL     1      63.654  57.621 109.485  0.00  0.00    +0.000 A 
ATOM     21  C5  UNL     1      62.563  56.946 108.910  0.00  0.00    +0.000 A 
ATOM     22  C6  UNL     1      61.256  57.299 109.245  0.00  0.00    +0.000 A 
ATOM     23  C7  UNL     1      61.016  58.319 110.167  0.00  0.00    +0.000 A 
ATOM     24  F1  UNL     1      59.734  58.632 110.486  0.00  0.00    +0.000 F 
ATOM     25  C8  UNL     1      62.091  58.988 110.778  0.00  0.00    +0.000 A 
ATOM     26  C9  UNL     1      63.410  58.641 110.423  0.00  0.00    +0.000 A 
ATOM     27  F2  UNL     1      64.456  59.328 110.950  0.00  0.00    +0.000 F 
BRANCH  20  28
ATOM     28  N1  UNL     1      65.011  57.282 109.143  0.00  0.00    +0.000 N 
ATOM     29  H8  UNL     1      65.616  56.818 109.857  0.00  0.00    +0.000 HD
BRANCH  28  30
ATOM     30  S1  UNL     1      65.793  57.793 107.680  0.00  0.00    +0.000 S 
ATOM     31  O1  UNL     1      66.510  59.088 107.939  0.00  0.00    +0.000 OA
ATOM     32  O2  UNL     1      66.798  56.761 107.252  0.00  0.00    +0.000 OA
BRANCH  30  33
ATOM     33  C3  UNL     1      64.591  58.056 106.382  0.00  0.00    +0.000 C 
BRANCH  33  35
ATOM     34  C1  UNL     1      62.845  59.626 105.467  0.00  0.00    +0.000 C 
ATOM     35  C2  UNL     1      63.915  59.419 106.535  0.00  0.00    +0.000 C 
ENDBRANCH  33  35
ENDBRANCH  30  33
ENDBRANCH  28  30
ENDBRANCH  20  28
ENDBRANCH   1  25
TORSDOF 7
ENDMDL
MODEL 14
REMARK VINA RESULT:      -7.5      4.747      6.852
REMARK  Name = ./S1267.pdb
REMARK  8 active torsions:
REMARK  status: ('A' for Active; 'I' for Inactive)
REMARK    1  A    between atoms: C1_1  and  C2_2
REMARK    2  A    between atoms: C2_2  and  C3_3
REMARK    3  A    between atoms: C3_3  and  S1_4
REMARK    4  A    between atoms: S1_4  and  N1_7
REMARK    5  A    between atoms: N1_7  and  C4_8
REMARK    6  A    between atoms: C8_13  and  C10_16
REMARK    7  A    between atoms: C10_16  and  C11_18
REMARK    8  A    between atoms: C15_24  and  C18_27
REMARK                            x       y       z     vdW  Elec       q    Type
REMARK                         _______ _______ _______ _____ _____    ______ ____
ROOT
ATOM      1  C10 UNL     1      62.509  60.154 111.540  0.00  0.00    +0.000 C 
ATOM      2  O3  UNL     1      61.981  61.249 111.211  0.00  0.00    +0.000 OA
ENDROOT
BRANCH   1   3
ATOM      3  C11 UNL     1      62.238  59.589 112.879  0.00  0.00    +0.000 A 
ATOM      4  C12 UNL     1      61.016  59.095 113.344  0.00  0.00    +0.000 A 
ATOM      5  N2  UNL     1      61.121  58.696 114.631  0.00  0.00    +0.000 N 
ATOM      6  C13 UNL     1      62.393  58.938 114.982  0.00  0.00    +0.000 A 
ATOM      7  N3  UNL     1      62.943  58.692 116.195  0.00  0.00    +0.000 NA
ATOM      8  C14 UNL     1      64.258  58.995 116.406  0.00  0.00    +0.000 A 
ATOM      9  C15 UNL     1      65.051  59.559 115.368  0.00  0.00    +0.000 A 
ATOM     10  C16 UNL     1      64.454  59.805 114.111  0.00  0.00    +0.000 A 
ATOM     11  C17 UNL     1      63.107  59.482 113.953  0.00  0.00    +0.000 A 
ATOM     12  H12 UNL     1      60.366  58.291 115.229  0.00  0.00    +0.000 HD
BRANCH   9  13
ATOM     13  C18 UNL     1      66.482  59.881 115.600  0.00  0.00    +0.000 A 
ATOM     14  C19 UNL     1      67.495  59.139 114.964  0.00  0.00    +0.000 A 
ATOM     15  C20 UNL     1      68.841  59.445 115.184  0.00  0.00    +0.000 A 
ATOM     16  C21 UNL     1      69.193  60.492 116.039  0.00  0.00    +0.000 A 
ATOM     17 CL1  UNL     1      70.883  60.873 116.312  0.00  0.00    +0.000 Cl
ATOM     18  C22 UNL     1      68.196  61.236 116.677  0.00  0.00    +0.000 A 
ATOM     19  C23 UNL     1      66.848  60.934 116.460  0.00  0.00    +0.000 A 
ENDBRANCH   9  13
ENDBRANCH   1   3
BRANCH   1  25
ATOM     20  C4  UNL     1      63.637  57.772 108.796  0.00  0.00    +0.000 A 
ATOM     21  C5  UNL     1      65.001  58.101 108.720  0.00  0.00    +0.000 A 
ATOM     22  C6  UNL     1      65.544  59.071 109.563  0.00  0.00    +0.000 A 
ATOM     23  C7  UNL     1      64.734  59.736 110.485  0.00  0.00    +0.000 A 
ATOM     24  F1  UNL     1      65.285  60.686 111.283  0.00  0.00    +0.000 F 
ATOM     25  C8  UNL     1      63.361  59.445 110.560  0.00  0.00    +0.000 A 
ATOM     26  C9  UNL     1      62.821  58.452 109.719  0.00  0.00    +0.000 A 
ATOM     27  F2  UNL     1      61.511  58.110 109.831  0.00  0.00    +0.000 F 
BRANCH  20  28
ATOM     28  N1  UNL     1      63.059  56.765 107.946  0.00  0.00    +0.000 N 
ATOM     29  H8  UNL     1      63.126  55.761 108.227  0.00  0.00    +0.000 HD
BRANCH  28  30
ATOM     30  S1  UNL     1      62.441  57.084 106.355  0.00  0.00    +0.000 S 
ATOM     31  O1  UNL     1      61.688  55.876 105.875  0.00  0.00    +0.000 OA
ATOM     32  O2  UNL     1      61.500  58.255 106.400  0.00  0.00    +0.000 OA
BRANCH  30  33
ATOM     33  C3  UNL     1      63.779  57.414 105.215  0.00  0.00    +0.000 C 
BRANCH  33  35
ATOM     34  C1  UNL     1      64.885  55.354 104.276  0.00  0.00    +0.000 C 
ATOM     35  C2  UNL     1      64.906  56.395 105.390  0.00  0.00    +0.000 C 
ENDBRANCH  33  35
ENDBRANCH  30  33
ENDBRANCH  28  30
ENDBRANCH  20  28
ENDBRANCH   1  25
TORSDOF 7
ENDMDL
MODEL 15
REMARK VINA RESULT:      -7.5     11.609     12.711
REMARK  Name = ./S1267.pdb
REMARK  8 active torsions:
REMARK  status: ('A' for Active; 'I' for Inactive)
REMARK    1  A    between atoms: C1_1  and  C2_2
REMARK    2  A    between atoms: C2_2  and  C3_3
REMARK    3  A    between atoms: C3_3  and  S1_4
REMARK    4  A    between atoms: S1_4  and  N1_7
REMARK    5  A    between atoms: N1_7  and  C4_8
REMARK    6  A    between atoms: C8_13  and  C10_16
REMARK    7  A    between atoms: C10_16  and  C11_18
REMARK    8  A    between atoms: C15_24  and  C18_27
REMARK                            x       y       z     vdW  Elec       q    Type
REMARK                         _______ _______ _______ _____ _____    ______ ____
ROOT
ATOM      1  C10 UNL     1      71.993  64.583 109.008  0.00  0.00    +0.000 C 
ATOM      2  O3  UNL     1      71.346  64.316 110.055  0.00  0.00    +0.000 OA
ENDROOT
BRANCH   1   3
ATOM      3  C11 UNL     1      73.035  65.633 109.045  0.00  0.00    +0.000 A 
ATOM      4  C12 UNL     1      74.356  65.481 109.472  0.00  0.00    +0.000 A 
ATOM      5  N2  UNL     1      75.016  66.659 109.409  0.00  0.00    +0.000 N 
ATOM      6  C13 UNL     1      74.123  67.550 108.953  0.00  0.00    +0.000 A 
ATOM      7  N3  UNL     1      74.354  68.867 108.737  0.00  0.00    +0.000 NA
ATOM      8  C14 UNL     1      73.341  69.654 108.270  0.00  0.00    +0.000 A 
ATOM      9  C15 UNL     1      72.055  69.107 108.005  0.00  0.00    +0.000 A 
ATOM     10  C16 UNL     1      71.840  67.729 108.237  0.00  0.00    +0.000 A 
ATOM     11  C17 UNL     1      72.907  66.974 108.720  0.00  0.00    +0.000 A 
ATOM     12  H12 UNL     1      76.012  66.838 109.670  0.00  0.00    +0.000 HD
BRANCH   9  13
ATOM     13  C18 UNL     1      70.958  69.966 107.492  0.00  0.00    +0.000 A 
ATOM     14  C19 UNL     1      70.893  71.329 107.841  0.00  0.00    +0.000 A 
ATOM     15  C20 UNL     1      69.860  72.135 107.356  0.00  0.00    +0.000 A 
ATOM     16  C21 UNL     1      68.881  71.595 106.518  0.00  0.00    +0.000 A 
ATOM     17 CL1  UNL     1      67.586  72.610 105.911  0.00  0.00    +0.000 Cl
ATOM     18  C22 UNL     1      68.935  70.244 106.164  0.00  0.00    +0.000 A 
ATOM     19  C23 UNL     1      69.966  69.433 106.647  0.00  0.00    +0.000 A 
ENDBRANCH   9  13
ENDBRANCH   1   3
BRANCH   1  25
ATOM     20  C4  UNL     1      72.214  61.948 106.272  0.00  0.00    +0.000 A 
ATOM     21  C5  UNL     1      71.179  62.377 105.423  0.00  0.00    +0.000 A 
ATOM     22  C6  UNL     1      70.437  63.517 105.732  0.00  0.00    +0.000 A 
ATOM     23  C7  UNL     1      70.705  64.239 106.896  0.00  0.00    +0.000 A 
ATOM     24  F1  UNL     1      69.957  65.335 107.179  0.00  0.00    +0.000 F 
ATOM     25  C8  UNL     1      71.715  63.813 107.776  0.00  0.00    +0.000 A 
ATOM     26  C9  UNL     1      72.474  62.671 107.451  0.00  0.00    +0.000 A 
ATOM     27  F2  UNL     1      73.501  62.290 108.256  0.00  0.00    +0.000 F 
BRANCH  20  28
ATOM     28  N1  UNL     1      73.002  60.783 105.967  0.00  0.00    +0.000 N 
ATOM     29  H8  UNL     1      73.990  60.904 105.653  0.00  0.00    +0.000 HD
BRANCH  28  30
ATOM     30  S1  UNL     1      72.351  59.176 105.873  0.00  0.00    +0.000 S 
ATOM     31  O1  UNL     1      70.954  59.184 106.428  0.00  0.00    +0.000 OA
ATOM     32  O2  UNL     1      72.298  58.731 104.438  0.00  0.00    +0.000 OA
BRANCH  30  33
ATOM     33  C3  UNL     1      73.341  58.038 106.833  0.00  0.00    +0.000 C 
BRANCH  33  35
ATOM     34  C1  UNL     1      72.928  58.619 109.250  0.00  0.00    +0.000 C 
ATOM     35  C2  UNL     1      73.901  58.724 108.080  0.00  0.00    +0.000 C 
ENDBRANCH  33  35
ENDBRANCH  30  33
ENDBRANCH  28  30
ENDBRANCH  20  28
ENDBRANCH   1  25
TORSDOF 7
ENDMDL
MODEL 16
REMARK VINA RESULT:      -7.5      2.012      2.456
REMARK  Name = ./S1267.pdb
REMARK  8 active torsions:
REMARK  status: ('A' for Active; 'I' for Inactive)
REMARK    1  A    between atoms: C1_1  and  C2_2
REMARK    2  A    between atoms: C2_2  and  C3_3
REMARK    3  A    between atoms: C3_3  and  S1_4
REMARK    4  A    between atoms: S1_4  and  N1_7
REMARK    5  A    between atoms: N1_7  and  C4_8
REMARK    6  A    between atoms: C8_13  and  C10_16
REMARK    7  A    between atoms: C10_16  and  C11_18
REMARK    8  A    between atoms: C15_24  and  C18_27
REMARK                            x       y       z     vdW  Elec       q    Type
REMARK                         _______ _______ _______ _____ _____    ______ ____
ROOT
ATOM      1  C10 UNL     1      63.082  57.656 106.960  0.00  0.00    +0.000 C 
ATOM      2  O3  UNL     1      62.238  56.744 107.167  0.00  0.00    +0.000 OA
ENDROOT
BRANCH   1   3
ATOM      3  C11 UNL     1      64.039  58.017 108.028  0.00  0.00    +0.000 A 
ATOM      4  C12 UNL     1      65.369  57.602 108.131  0.00  0.00    +0.000 A 
ATOM      5  N2  UNL     1      65.935  58.091 109.257  0.00  0.00    +0.000 N 
ATOM      6  C13 UNL     1      64.974  58.802 109.866  0.00  0.00    +0.000 A 
ATOM      7  N3  UNL     1      65.101  59.471 111.037  0.00  0.00    +0.000 NA
ATOM      8  C14 UNL     1      64.029  60.153 111.536  0.00  0.00    +0.000 A 
ATOM      9  C15 UNL     1      62.790  60.173 110.839  0.00  0.00    +0.000 A 
ATOM     10  C16 UNL     1      62.683  59.469 109.618  0.00  0.00    +0.000 A 
ATOM     11  C17 UNL     1      63.806  58.784 109.158  0.00  0.00    +0.000 A 
ATOM     12  H12 UNL     1      66.914  57.938 109.588  0.00  0.00    +0.000 HD
BRANCH   9  13
ATOM     13  C18 UNL     1      61.628  60.921 111.383  0.00  0.00    +0.000 A 
ATOM     14  C19 UNL     1      60.869  61.768 110.552  0.00  0.00    +0.000 A 
ATOM     15  C20 UNL     1      59.776  62.470 111.066  0.00  0.00    +0.000 A 
ATOM     16  C21 UNL     1      59.426  62.339 112.413  0.00  0.00    +0.000 A 
ATOM     17 CL1  UNL     1      58.054  63.222 113.055  0.00  0.00    +0.000 Cl
ATOM     18  C22 UNL     1      60.172  61.501 113.247  0.00  0.00    +0.000 A 
ATOM     19  C23 UNL     1      61.267  60.796 112.737  0.00  0.00    +0.000 A 
ENDBRANCH   9  13
ENDBRANCH   1   3
BRANCH   1  25
ATOM     20  C4  UNL     1      63.666  58.284 103.253  0.00  0.00    +0.000 A 
ATOM     21  C5  UNL     1      63.181  59.598 103.139  0.00  0.00    +0.000 A 
ATOM     22  C6  UNL     1      62.690  60.271 104.259  0.00  0.00    +0.000 A 
ATOM     23  C7  UNL     1      62.662  59.641 105.504  0.00  0.00    +0.000 A 
ATOM     24  F1  UNL     1      62.166  60.314 106.572  0.00  0.00    +0.000 F 
ATOM     25  C8  UNL     1      63.114  58.316 105.637  0.00  0.00    +0.000 A 
ATOM     26  C9  UNL     1      63.626  57.647 104.507  0.00  0.00    +0.000 A 
ATOM     27  F2  UNL     1      64.132  56.393 104.636  0.00  0.00    +0.000 F 
BRANCH  20  28
ATOM     28  N1  UNL     1      64.189  57.575 102.114  0.00  0.00    +0.000 N 
ATOM     29  H8  UNL     1      64.653  56.651 102.259  0.00  0.00    +0.000 HD
BRANCH  28  30
ATOM     30  S1  UNL     1      64.300  58.257 100.522  0.00  0.00    +0.000 S 
ATOM     31  O1  UNL     1      64.870  57.225  99.590  0.00  0.00    +0.000 OA
ATOM     32  O2  UNL     1      62.932  58.645 100.036  0.00  0.00    +0.000 OA
BRANCH  30  33
ATOM     33  C3  UNL     1      65.379  59.684 100.522  0.00  0.00    +0.000 C 
BRANCH  33  35
ATOM     34  C1  UNL     1      67.738  60.492 100.162  0.00  0.00    +0.000 C 
ATOM     35  C2  UNL     1      66.822  59.274 100.224  0.00  0.00    +0.000 C 
ENDBRANCH  33  35
ENDBRANCH  30  33
ENDBRANCH  28  30
ENDBRANCH  20  28
ENDBRANCH   1  25
TORSDOF 7
ENDMDL
MODEL 17
REMARK VINA RESULT:      -7.5     14.659     17.108
REMARK  Name = ./S1267.pdb
REMARK  8 active torsions:
REMARK  status: ('A' for Active; 'I' for Inactive)
REMARK    1  A    between atoms: C1_1  and  C2_2
REMARK    2  A    between atoms: C2_2  and  C3_3
REMARK    3  A    between atoms: C3_3  and  S1_4
REMARK    4  A    between atoms: S1_4  and  N1_7
REMARK    5  A    between atoms: N1_7  and  C4_8
REMARK    6  A    between atoms: C8_13  and  C10_16
REMARK    7  A    between atoms: C10_16  and  C11_18
REMARK    8  A    between atoms: C15_24  and  C18_27
REMARK                            x       y       z     vdW  Elec       q    Type
REMARK                         _______ _______ _______ _____ _____    ______ ____
ROOT
ATOM      1  C10 UNL     1      76.196  61.727 114.078  0.00  0.00    +0.000 C 
ATOM      2  O3  UNL     1      75.566  60.666 114.332  0.00  0.00    +0.000 OA
ENDROOT
BRANCH   1   3
ATOM      3  C11 UNL     1      76.857  61.884 112.765  0.00  0.00    +0.000 A 
ATOM      4  C12 UNL     1      78.077  61.326 112.373  0.00  0.00    +0.000 A 
ATOM      5  N2  UNL     1      78.398  61.712 111.118  0.00  0.00    +0.000 N 
ATOM      6  C13 UNL     1      77.397  62.511 110.719  0.00  0.00    +0.000 A 
ATOM      7  N3  UNL     1      77.304  63.129 109.517  0.00  0.00    +0.000 NA
ATOM      8  C14 UNL     1      76.220  63.917 109.253  0.00  0.00    +0.000 A 
ATOM      9  C15 UNL     1      75.193  64.090 110.220  0.00  0.00    +0.000 A 
ATOM     10  C16 UNL     1      75.311  63.434 111.466  0.00  0.00    +0.000 A 
ATOM     11  C17 UNL     1      76.441  62.647 111.685  0.00  0.00    +0.000 A 
ATOM     12  H12 UNL     1      79.252  61.450 110.576  0.00  0.00    +0.000 HD
BRANCH   9  13
ATOM     13  C18 UNL     1      74.013  64.944 109.927  0.00  0.00    +0.000 A 
ATOM     14  C19 UNL     1      74.070  65.917 108.911  0.00  0.00    +0.000 A 
ATOM     15  C20 UNL     1      72.958  66.719 108.637  0.00  0.00    +0.000 A 
ATOM     16  C21 UNL     1      71.779  66.560 109.369  0.00  0.00    +0.000 A 
ATOM     17 CL1  UNL     1      70.386  67.568 109.021  0.00  0.00    +0.000 Cl
ATOM     18  C22 UNL     1      71.711  65.597 110.379  0.00  0.00    +0.000 A 
ATOM     19  C23 UNL     1      72.820  64.793 110.658  0.00  0.00    +0.000 A 
ENDBRANCH   9  13
ENDBRANCH   1   3
BRANCH   1  25
ATOM     20  C4  UNL     1      75.190  64.735 116.179  0.00  0.00    +0.000 A 
ATOM     21  C5  UNL     1      76.315  64.849 117.014  0.00  0.00    +0.000 A 
ATOM     22  C6  UNL     1      77.389  63.969 116.878  0.00  0.00    +0.000 A 
ATOM     23  C7  UNL     1      77.353  62.955 115.919  0.00  0.00    +0.000 A 
ATOM     24  F1  UNL     1      78.406  62.105 115.819  0.00  0.00    +0.000 F 
ATOM     25  C8  UNL     1      76.227  62.803 115.093  0.00  0.00    +0.000 A 
ATOM     26  C9  UNL     1      75.151  63.705 115.221  0.00  0.00    +0.000 A 
ATOM     27  F2  UNL     1      74.088  63.614 114.380  0.00  0.00    +0.000 F 
BRANCH  20  28
ATOM     28  N1  UNL     1      74.077  65.640 116.293  0.00  0.00    +0.000 N 
ATOM     29  H8  UNL     1      73.128  65.257 116.504  0.00  0.00    +0.000 HD
BRANCH  28  30
ATOM     30  S1  UNL     1      74.157  67.325 115.883  0.00  0.00    +0.000 S 
ATOM     31  O1  UNL     1      72.787  67.793 115.480  0.00  0.00    +0.000 OA
ATOM     32  O2  UNL     1      74.608  68.119 117.077  0.00  0.00    +0.000 OA
BRANCH  30  33
ATOM     33  C3  UNL     1      75.277  67.587 114.513  0.00  0.00    +0.000 C 
BRANCH  33  35
ATOM     34  C1  UNL     1      75.129  67.695 112.000  0.00  0.00    +0.000 C 
ATOM     35  C2  UNL     1      74.757  66.901 113.249  0.00  0.00    +0.000 C 
ENDBRANCH  33  35
ENDBRANCH  30  33
ENDBRANCH  28  30
ENDBRANCH  20  28
ENDBRANCH   1  25
TORSDOF 7
ENDMDL
MODEL 18
REMARK VINA RESULT:      -7.5      6.243      8.905
REMARK  Name = ./S1267.pdb
REMARK  8 active torsions:
REMARK  status: ('A' for Active; 'I' for Inactive)
REMARK    1  A    between atoms: C1_1  and  C2_2
REMARK    2  A    between atoms: C2_2  and  C3_3
REMARK    3  A    between atoms: C3_3  and  S1_4
REMARK    4  A    between atoms: S1_4  and  N1_7
REMARK    5  A    between atoms: N1_7  and  C4_8
REMARK    6  A    between atoms: C8_13  and  C10_16
REMARK    7  A    between atoms: C10_16  and  C11_18
REMARK    8  A    between atoms: C15_24  and  C18_27
REMARK                            x       y       z     vdW  Elec       q    Type
REMARK                         _______ _______ _______ _____ _____    ______ ____
ROOT
ATOM      1  C10 UNL     1      61.892  59.181 114.544  0.00  0.00    +0.000 C 
ATOM      2  O3  UNL     1      61.757  58.421 115.539  0.00  0.00    +0.000 OA
ENDROOT
BRANCH   1   3
ATOM      3  C11 UNL     1      63.250  59.505 114.055  0.00  0.00    +0.000 A 
ATOM      4  C12 UNL     1      64.333  59.936 114.826  0.00  0.00    +0.000 A 
ATOM      5  N2  UNL     1      65.409  60.178 114.044  0.00  0.00    +0.000 N 
ATOM      6  C13 UNL     1      65.013  59.910 112.791  0.00  0.00    +0.000 A 
ATOM      7  N3  UNL     1      65.774  60.018 111.675  0.00  0.00    +0.000 NA
ATOM      8  C14 UNL     1      65.229  59.710 110.462  0.00  0.00    +0.000 A 
ATOM      9  C15 UNL     1      63.880  59.274 110.359  0.00  0.00    +0.000 A 
ATOM     10  C16 UNL     1      63.106  59.167 111.537  0.00  0.00    +0.000 A 
ATOM     11  C17 UNL     1      63.710  59.501 112.748  0.00  0.00    +0.000 A 
ATOM     12  H12 UNL     1      66.349  60.512 114.352  0.00  0.00    +0.000 HD
BRANCH   9  13
ATOM     13  C18 UNL     1      63.293  58.935 109.038  0.00  0.00    +0.000 A 
ATOM     14  C19 UNL     1      63.175  59.915 108.034  0.00  0.00    +0.000 A 
ATOM     15  C20 UNL     1      62.624  59.593 106.791  0.00  0.00    +0.000 A 
ATOM     16  C21 UNL     1      62.184  58.292 106.533  0.00  0.00    +0.000 A 
ATOM     17 CL1  UNL     1      61.492  57.891 104.972  0.00  0.00    +0.000 Cl
ATOM     18  C22 UNL     1      62.295  57.310 107.522  0.00  0.00    +0.000 A 
ATOM     19  C23 UNL     1      62.846  57.628 108.767  0.00  0.00    +0.000 A 
ENDBRANCH   9  13
ENDBRANCH   1   3
BRANCH   1  25
ATOM     20  C4  UNL     1      59.119  61.527 113.412  0.00  0.00    +0.000 A 
ATOM     21  C5  UNL     1      58.374  60.663 112.593  0.00  0.00    +0.000 A 
ATOM     22  C6  UNL     1      58.763  59.333 112.430  0.00  0.00    +0.000 A 
ATOM     23  C7  UNL     1      59.905  58.848 113.068  0.00  0.00    +0.000 A 
ATOM     24  F1  UNL     1      60.268  57.554 112.880  0.00  0.00    +0.000 F 
ATOM     25  C8  UNL     1      60.683  59.702 113.869  0.00  0.00    +0.000 A 
ATOM     26  C9  UNL     1      60.277  61.040 114.046  0.00  0.00    +0.000 A 
ATOM     27  F2  UNL     1      60.979  61.856 114.875  0.00  0.00    +0.000 F 
BRANCH  20  28
ATOM     28  N1  UNL     1      58.729  62.899 113.606  0.00  0.00    +0.000 N 
ATOM     29  H8  UNL     1      57.963  63.121 114.281  0.00  0.00    +0.000 HD
BRANCH  28  30
ATOM     30  S1  UNL     1      59.301  64.213 112.625  0.00  0.00    +0.000 S 
ATOM     31  O1  UNL     1      58.316  65.346 112.708  0.00  0.00    +0.000 OA
ATOM     32  O2  UNL     1      60.631  64.689 113.135  0.00  0.00    +0.000 OA
BRANCH  30  33
ATOM     33  C3  UNL     1      59.444  63.705 110.916  0.00  0.00    +0.000 C 
BRANCH  33  35
ATOM     34  C1  UNL     1      60.832  61.778 110.074  0.00  0.00    +0.000 C 
ATOM     35  C2  UNL     1      60.857  63.205 110.614  0.00  0.00    +0.000 C 
ENDBRANCH  33  35
ENDBRANCH  30  33
ENDBRANCH  28  30
ENDBRANCH  20  28
ENDBRANCH   1  25
TORSDOF 7
ENDMDL
MODEL 19
REMARK VINA RESULT:      -7.4      1.886      3.015
REMARK  Name = ./S1267.pdb
REMARK  8 active torsions:
REMARK  status: ('A' for Active; 'I' for Inactive)
REMARK    1  A    between atoms: C1_1  and  C2_2
REMARK    2  A    between atoms: C2_2  and  C3_3
REMARK    3  A    between atoms: C3_3  and  S1_4
REMARK    4  A    between atoms: S1_4  and  N1_7
REMARK    5  A    between atoms: N1_7  and  C4_8
REMARK    6  A    between atoms: C8_13  and  C10_16
REMARK    7  A    between atoms: C10_16  and  C11_18
REMARK    8  A    between atoms: C15_24  and  C18_27
REMARK                            x       y       z     vdW  Elec       q    Type
REMARK                         _______ _______ _______ _____ _____    ______ ____
ROOT
ATOM      1  C10 UNL     1      61.978  58.018 105.486  0.00  0.00    +0.000 C 
ATOM      2  O3  UNL     1      60.820  57.755 105.908  0.00  0.00    +0.000 OA
ENDROOT
BRANCH   1   3
ATOM      3  C11 UNL     1      63.135  57.868 106.396  0.00  0.00    +0.000 A 
ATOM      4  C12 UNL     1      64.302  57.143 106.147  0.00  0.00    +0.000 A 
ATOM      5  N2  UNL     1      65.130  57.189 107.216  0.00  0.00    +0.000 N 
ATOM      6  C13 UNL     1      64.493  57.930 108.134  0.00  0.00    +0.000 A 
ATOM      7  N3  UNL     1      64.957  58.237 109.369  0.00  0.00    +0.000 NA
ATOM      8  C14 UNL     1      64.191  59.004 110.199  0.00  0.00    +0.000 A 
ATOM      9  C15 UNL     1      62.920  59.486 109.779  0.00  0.00    +0.000 A 
ATOM     10  C16 UNL     1      62.458  59.154 108.486  0.00  0.00    +0.000 A 
ATOM     11  C17 UNL     1      63.278  58.362 107.683  0.00  0.00    +0.000 A 
ATOM     12  H12 UNL     1      66.065  56.734 107.308  0.00  0.00    +0.000 HD
BRANCH   9  13
ATOM     13  C18 UNL     1      62.093  60.325 110.683  0.00  0.00    +0.000 A 
ATOM     14  C19 UNL     1      61.302  61.369 110.166  0.00  0.00    +0.000 A 
ATOM     15  C20 UNL     1      60.525  62.157 111.020  0.00  0.00    +0.000 A 
ATOM     16  C21 UNL     1      60.525  61.915 112.396  0.00  0.00    +0.000 A 
ATOM     17 CL1  UNL     1      59.548  62.906 113.463  0.00  0.00    +0.000 Cl
ATOM     18  C22 UNL     1      61.307  60.881 112.921  0.00  0.00    +0.000 A 
ATOM     19  C23 UNL     1      62.087  60.091 112.071  0.00  0.00    +0.000 A 
ENDBRANCH   9  13
ENDBRANCH   1   3
BRANCH   1  25
ATOM     20  C4  UNL     1      62.076  57.939 101.684  0.00  0.00    +0.000 A 
ATOM     21  C5  UNL     1      62.503  59.251 101.414  0.00  0.00    +0.000 A 
ATOM     22  C6  UNL     1      62.770  60.137 102.458  0.00  0.00    +0.000 A 
ATOM     23  C7  UNL     1      62.605  59.735 103.784  0.00  0.00    +0.000 A 
ATOM     24  F1  UNL     1      62.858  60.622 104.779  0.00  0.00    +0.000 F 
ATOM     25  C8  UNL     1      62.151  58.438 104.078  0.00  0.00    +0.000 A 
ATOM     26  C9  UNL     1      61.899  57.540 103.021  0.00  0.00    +0.000 A 
ATOM     27  F2  UNL     1      61.529  56.261 103.294  0.00  0.00    +0.000 F 
BRANCH  20  28
ATOM     28  N1  UNL     1      61.807  57.004 100.623  0.00  0.00    +0.000 N 
ATOM     29  H8  UNL     1      62.581  56.732  99.976  0.00  0.00    +0.000 HD
BRANCH  28  30
ATOM     30  S1  UNL     1      60.215  56.454 100.203  0.00  0.00    +0.000 S 
ATOM     31  O1  UNL     1      60.103  56.390  98.705  0.00  0.00    +0.000 OA
ATOM     32  O2  UNL     1      59.987  55.079 100.764  0.00  0.00    +0.000 OA
BRANCH  30  33
ATOM     33  C3  UNL     1      58.975  57.584 100.821  0.00  0.00    +0.000 C 
BRANCH  33  35
ATOM     34  C1  UNL     1      58.216  58.128 103.161  0.00  0.00    +0.000 C 
ATOM     35  C2  UNL     1      58.332  57.040 102.098  0.00  0.00    +0.000 C 
ENDBRANCH  33  35
ENDBRANCH  30  33
ENDBRANCH  28  30
ENDBRANCH  20  28
ENDBRANCH   1  25
TORSDOF 7
ENDMDL
MODEL 20
REMARK VINA RESULT:      -7.4     16.106     18.735
REMARK  Name = ./S1267.pdb
REMARK  8 active torsions:
REMARK  status: ('A' for Active; 'I' for Inactive)
REMARK    1  A    between atoms: C1_1  and  C2_2
REMARK    2  A    between atoms: C2_2  and  C3_3
REMARK    3  A    between atoms: C3_3  and  S1_4
REMARK    4  A    between atoms: S1_4  and  N1_7
REMARK    5  A    between atoms: N1_7  and  C4_8
REMARK    6  A    between atoms: C8_13  and  C10_16
REMARK    7  A    between atoms: C10_16  and  C11_18
REMARK    8  A    between atoms: C15_24  and  C18_27
REMARK                            x       y       z     vdW  Elec       q    Type
REMARK                         _______ _______ _______ _____ _____    ______ ____
ROOT
ATOM      1  C10 UNL     1      74.435  65.051 112.697  0.00  0.00    +0.000 C 
ATOM      2  O3  UNL     1      73.210  64.904 112.438  0.00  0.00    +0.000 OA
ENDROOT
BRANCH   1   3
ATOM      3  C11 UNL     1      75.446  64.516 111.760  0.00  0.00    +0.000 A 
ATOM      4  C12 UNL     1      75.734  64.998 110.480  0.00  0.00    +0.000 A 
ATOM      5  N2  UNL     1      76.687  64.242 109.889  0.00  0.00    +0.000 N 
ATOM      6  C13 UNL     1      76.996  63.289 110.780  0.00  0.00    +0.000 A 
ATOM      7  N3  UNL     1      77.909  62.304 110.606  0.00  0.00    +0.000 NA
ATOM      8  C14 UNL     1      78.116  61.399 111.607  0.00  0.00    +0.000 A 
ATOM      9  C15 UNL     1      77.389  61.484 112.826  0.00  0.00    +0.000 A 
ATOM     10  C16 UNL     1      76.442  62.521 112.985  0.00  0.00    +0.000 A 
ATOM     11  C17 UNL     1      76.267  63.413 111.929  0.00  0.00    +0.000 A 
ATOM     12  H12 UNL     1      77.090  64.371 108.934  0.00  0.00    +0.000 HD
BRANCH   9  13
ATOM     13  C18 UNL     1      77.621  60.501 113.915  0.00  0.00    +0.000 A 
ATOM     14  C19 UNL     1      76.599  60.199 114.836  0.00  0.00    +0.000 A 
ATOM     15  C20 UNL     1      76.821  59.273 115.860  0.00  0.00    +0.000 A 
ATOM     16  C21 UNL     1      78.060  58.637 115.977  0.00  0.00    +0.000 A 
ATOM     17 CL1  UNL     1      78.333  57.476 117.263  0.00  0.00    +0.000 Cl
ATOM     18  C22 UNL     1      79.081  58.929 115.069  0.00  0.00    +0.000 A 
ATOM     19  C23 UNL     1      78.865  59.855 114.043  0.00  0.00    +0.000 A 
ENDBRANCH   9  13
ENDBRANCH   1   3
BRANCH   1  25
ATOM     20  C4  UNL     1      75.184  65.862 116.337  0.00  0.00    +0.000 A 
ATOM     21  C5  UNL     1      75.554  67.213 116.225  0.00  0.00    +0.000 A 
ATOM     22  C6  UNL     1      75.540  67.850 114.984  0.00  0.00    +0.000 A 
ATOM     23  C7  UNL     1      75.171  67.148 113.836  0.00  0.00    +0.000 A 
ATOM     24  F1  UNL     1      75.181  67.789 112.640  0.00  0.00    +0.000 F 
ATOM     25  C8  UNL     1      74.825  65.788 113.918  0.00  0.00    +0.000 A 
ATOM     26  C9  UNL     1      74.823  65.153 115.177  0.00  0.00    +0.000 A 
ATOM     27  F2  UNL     1      74.422  63.859 115.281  0.00  0.00    +0.000 F 
BRANCH  20  28
ATOM     28  N1  UNL     1      75.178  65.188 117.610  0.00  0.00    +0.000 N 
ATOM     29  H8  UNL     1      74.350  65.292 118.237  0.00  0.00    +0.000 HD
BRANCH  28  30
ATOM     30  S1  UNL     1      76.561  64.380 118.280  0.00  0.00    +0.000 S 
ATOM     31  O1  UNL     1      77.744  65.304 118.211  0.00  0.00    +0.000 OA
ATOM     32  O2  UNL     1      76.301  64.034 119.719  0.00  0.00    +0.000 OA
BRANCH  30  33
ATOM     33  C3  UNL     1      76.937  62.900 117.349  0.00  0.00    +0.000 C 
BRANCH  33  35
ATOM     34  C1  UNL     1      79.331  62.419 116.729  0.00  0.00    +0.000 C 
ATOM     35  C2  UNL     1      78.057  63.162 116.341  0.00  0.00    +0.000 C 
ENDBRANCH  33  35
ENDBRANCH  30  33
ENDBRANCH  28  30
ENDBRANCH  20  28
ENDBRANCH   1  25
TORSDOF 7
ENDMDL
