MODEL 1
REMARK VINA RESULT:      -8.6      0.000      0.000
REMARK  Name = ./S1393.pdb
REMARK  14 active torsions:
REMARK  status: ('A' for Active; 'I' for Inactive)
REMARK    1  A    between atoms: C1_1  and  O1_2
REMARK    2  A    between atoms: O1_2  and  C2_3
REMARK    3  A    between atoms: C10_12  and  O3_13
REMARK    4  A    between atoms: C14_17  and  O4_18
REMARK    5  A    between atoms: C14_17  and  C28_37
REMARK    6  A    between atoms: C16_20  and  O5_21
REMARK    7  A    between atoms: O5_21  and  C17_22
REMARK    8  A    between atoms: C19_24  and  N1_25
REMARK    9  A    between atoms: C20_26  and  O6_27
REMARK   10  A    between atoms: O6_27  and  C21_28
REMARK   11  A    between atoms: C26_34  and  C27_35
REMARK   12  A    between atoms: C28_37  and  C29_39
REMARK   13  A    between atoms: C29_39  and  O10_40
REMARK   14  A    between atoms: C30_41  and  O12_45
REMARK                            x       y       z     vdW  Elec       q    Type
REMARK                         _______ _______ _______ _____ _____    ______ ____
ROOT
ATOM      1  C2  UNL     1      71.999  61.325 105.658  0.00  0.00    +0.000 A 
ATOM      2  C3  UNL     1      70.913  61.330 104.762  0.00  0.00    +0.000 A 
ATOM      3  C4  UNL     1      69.962  62.347 104.809  0.00  0.00    +0.000 A 
ATOM      4  C5  UNL     1      70.073  63.369 105.749  0.00  0.00    +0.000 A 
ATOM      5  C6  UNL     1      71.143  63.385 106.658  0.00  0.00    +0.000 A 
ATOM      6  C7  UNL     1      72.118  62.369 106.609  0.00  0.00    +0.000 A 
ATOM      7  C8  UNL     1      73.267  62.444 107.541  0.00  0.00    +0.000 C 
ATOM      8  O2  UNL     1      74.341  61.852 107.248  0.00  0.00    +0.000 OA
ATOM      9  C9  UNL     1      73.198  63.316 108.747  0.00  0.00    +0.000 A 
ATOM     10  C10 UNL     1      74.093  63.155 109.831  0.00  0.00    +0.000 A 
ATOM     11  C11 UNL     1      74.151  64.116 110.861  0.00  0.00    +0.000 A 
ATOM     12  C12 UNL     1      73.223  65.188 110.871  0.00  0.00    +0.000 A 
ATOM     13  C13 UNL     1      73.269  66.258 111.951  0.00  0.00    +0.000 C 
ATOM     14  C14 UNL     1      74.075  65.873 113.201  0.00  0.00    +0.000 C 
ATOM     15  C15 UNL     1      75.407  65.236 112.754  0.00  0.00    +0.000 C 
ATOM     16  C16 UNL     1      75.180  63.931 111.972  0.00  0.00    +0.000 C 
ATOM     17  C30 UNL     1      72.298  65.324 109.806  0.00  0.00    +0.000 A 
ATOM     18  C31 UNL     1      72.264  64.373 108.762  0.00  0.00    +0.000 A 
ATOM     19  C32 UNL     1      71.262  64.470 107.659  0.00  0.00    +0.000 C 
ATOM     20  O11 UNL     1      70.496  65.468 107.571  0.00  0.00    +0.000 OA
ENDROOT
BRANCH   1  22
ATOM     21  C1  UNL     1      72.664  58.909 105.691  0.00  0.00    +0.000 C 
ATOM     22  O1  UNL     1      72.961  60.301 105.634  0.00  0.00    +0.000 OA
ENDBRANCH   1  22
BRANCH  10  23
ATOM     23  O3  UNL     1      74.919  62.033 109.930  0.00  0.00    +0.000 OA
ATOM     24  H7  UNL     1      75.777  62.012 110.466  0.00  0.00    +0.000 HD
ENDBRANCH  10  23
BRANCH  14  25
ATOM     25  O4  UNL     1      73.314  64.952 113.952  0.00  0.00    +0.000 OA
ATOM     26  H10 UNL     1      73.865  64.137 114.084  0.00  0.00    +0.000 HD
ENDBRANCH  14  25
BRANCH  14  27
ATOM     27  C28 UNL     1      74.341  67.132 114.023  0.00  0.00    +0.000 C 
ATOM     28  O9  UNL     1      74.990  68.045 113.530  0.00  0.00    +0.000 OA
BRANCH  27  29
ATOM     29  C29 UNL     1      73.849  67.264 115.446  0.00  0.00    +0.000 C 
BRANCH  29  30
ATOM     30  O10 UNL     1      72.475  67.537 115.483  0.00  0.00    +0.000 OA
ATOM     31  H36 UNL     1      72.086  67.138 114.661  0.00  0.00    +0.000 HD
ENDBRANCH  29  30
ENDBRANCH  27  29
ENDBRANCH  14  27
BRANCH  17  32
ATOM     32  O12 UNL     1      71.417  66.412 109.754  0.00  0.00    +0.000 OA
ATOM     33  H37 UNL     1      71.541  67.226 109.167  0.00  0.00    +0.000 HD
ENDBRANCH  17  32
BRANCH  16  34
ATOM     34  O5  UNL     1      74.724  62.922 112.865  0.00  0.00    +0.000 OA
BRANCH  34  35
ATOM     35  C17 UNL     1      75.752  62.052 113.316  0.00  0.00    +0.000 C 
ATOM     36  C18 UNL     1      77.076  62.354 112.584  0.00  0.00    +0.000 C 
ATOM     37  C19 UNL     1      78.234  61.458 113.080  0.00  0.00    +0.000 C 
ATOM     38  C20 UNL     1      77.889  60.772 114.420  0.00  0.00    +0.000 C 
ATOM     39  C26 UNL     1      77.051  61.721 115.320  0.00  0.00    +0.000 C 
ATOM     40  C27 UNL     1      77.882  62.883 115.881  0.00  0.00    +0.000 C 
ATOM     41  O8  UNL     1      75.874  62.253 114.716  0.00  0.00    +0.000 OA
BRANCH  37  42
ATOM     42  N1  UNL     1      78.567  60.447 112.070  0.00  0.00    +0.000 NA
ATOM     43  H18 UNL     1      79.607  60.424 111.960  0.00  0.00    +0.000 HD
ATOM     44  H19 UNL     1      78.311  59.506 112.449  0.00  0.00    +0.000 HD
ENDBRANCH  37  42
BRANCH  38  45
ATOM     45  O6  UNL     1      79.095  60.413 115.085  0.00  0.00    +0.000 OA
BRANCH  45  46
ATOM     46  C21 UNL     1      78.977  59.187 115.791  0.00  0.00    +0.000 C 
ATOM     47  C22 UNL     1      78.423  58.091 114.847  0.00  0.00    +0.000 C 
ATOM     48  C23 UNL     1      79.414  56.941 114.666  0.00  0.00    +0.000 C 
ATOM     49  C24 UNL     1      80.804  57.494 114.366  0.00  0.00    +0.000 C 
ATOM     50  C25 UNL     1      81.208  58.582 115.382  0.00  0.00    +0.000 C 
ATOM     51  O7  UNL     1      80.220  58.812 116.373  0.00  0.00    +0.000 OA
ENDBRANCH  45  46
ENDBRANCH  38  45
ENDBRANCH  34  35
ENDBRANCH  16  34
TORSDOF 12
ENDMDL
MODEL 2
REMARK VINA RESULT:      -8.1      1.388      1.935
REMARK  Name = ./S1393.pdb
REMARK  14 active torsions:
REMARK  status: ('A' for Active; 'I' for Inactive)
REMARK    1  A    between atoms: C1_1  and  O1_2
REMARK    2  A    between atoms: O1_2  and  C2_3
REMARK    3  A    between atoms: C10_12  and  O3_13
REMARK    4  A    between atoms: C14_17  and  O4_18
REMARK    5  A    between atoms: C14_17  and  C28_37
REMARK    6  A    between atoms: C16_20  and  O5_21
REMARK    7  A    between atoms: O5_21  and  C17_22
REMARK    8  A    between atoms: C19_24  and  N1_25
REMARK    9  A    between atoms: C20_26  and  O6_27
REMARK   10  A    between atoms: O6_27  and  C21_28
REMARK   11  A    between atoms: C26_34  and  C27_35
REMARK   12  A    between atoms: C28_37  and  C29_39
REMARK   13  A    between atoms: C29_39  and  O10_40
REMARK   14  A    between atoms: C30_41  and  O12_45
REMARK                            x       y       z     vdW  Elec       q    Type
REMARK                         _______ _______ _______ _____ _____    ______ ____
ROOT
ATOM      1  C2  UNL     1      72.326  61.888 106.121  0.00  0.00    +0.000 A 
ATOM      2  C3  UNL     1      71.282  61.896 105.177  0.00  0.00    +0.000 A 
ATOM      3  C4  UNL     1      70.270  62.851 105.249  0.00  0.00    +0.000 A 
ATOM      4  C5  UNL     1      70.277  63.806 106.264  0.00  0.00    +0.000 A 
ATOM      5  C6  UNL     1      71.303  63.817 107.222  0.00  0.00    +0.000 A 
ATOM      6  C7  UNL     1      72.338  62.864 107.148  0.00  0.00    +0.000 A 
ATOM      7  C8  UNL     1      73.439  62.936 108.138  0.00  0.00    +0.000 C 
ATOM      8  O2  UNL     1      74.559  62.430 107.856  0.00  0.00    +0.000 OA
ATOM      9  C9  UNL     1      73.264  63.712 109.398  0.00  0.00    +0.000 A 
ATOM     10  C10 UNL     1      74.118  63.524 110.510  0.00  0.00    +0.000 A 
ATOM     11  C11 UNL     1      74.072  64.407 111.607  0.00  0.00    +0.000 A 
ATOM     12  C12 UNL     1      73.082  65.421 111.648  0.00  0.00    +0.000 A 
ATOM     13  C13 UNL     1      73.014  66.410 112.802  0.00  0.00    +0.000 C 
ATOM     14  C14 UNL     1      73.787  65.981 114.059  0.00  0.00    +0.000 C 
ATOM     15  C15 UNL     1      75.173  65.456 113.633  0.00  0.00    +0.000 C 
ATOM     16  C16 UNL     1      75.061  64.200 112.750  0.00  0.00    +0.000 C 
ATOM     17  C30 UNL     1      72.198  65.581 110.552  0.00  0.00    +0.000 A 
ATOM     18  C31 UNL     1      72.268  64.709 109.443  0.00  0.00    +0.000 A 
ATOM     19  C32 UNL     1      71.311  64.830 108.302  0.00  0.00    +0.000 C 
ATOM     20  O11 UNL     1      70.491  65.786 108.248  0.00  0.00    +0.000 OA
ENDROOT
BRANCH   1  22
ATOM     21  C1  UNL     1      73.158  59.529 106.284  0.00  0.00    +0.000 C 
ATOM     22  O1  UNL     1      73.347  60.925 106.072  0.00  0.00    +0.000 OA
ENDBRANCH   1  22
BRANCH  10  23
ATOM     23  O3  UNL     1      75.006  62.446 110.570  0.00  0.00    +0.000 OA
ATOM     24  H7  UNL     1      75.927  62.453 110.152  0.00  0.00    +0.000 HD
ENDBRANCH  10  23
BRANCH  14  25
ATOM     25  O4  UNL     1      73.051  64.965 114.705  0.00  0.00    +0.000 OA
ATOM     26  H10 UNL     1      73.564  64.119 114.627  0.00  0.00    +0.000 HD
ENDBRANCH  14  25
BRANCH  14  27
ATOM     27  C28 UNL     1      73.939  67.189 114.980  0.00  0.00    +0.000 C 
ATOM     28  O9  UNL     1      72.960  67.878 115.233  0.00  0.00    +0.000 OA
BRANCH  27  29
ATOM     29  C29 UNL     1      75.280  67.575 115.561  0.00  0.00    +0.000 C 
BRANCH  29  30
ATOM     30  O10 UNL     1      75.857  68.632 114.843  0.00  0.00    +0.000 OA
ATOM     31  H36 UNL     1      76.023  69.359 115.498  0.00  0.00    +0.000 HD
ENDBRANCH  29  30
ENDBRANCH  27  29
ENDBRANCH  14  27
BRANCH  17  32
ATOM     32  O12 UNL     1      71.256  66.618 110.534  0.00  0.00    +0.000 OA
ATOM     33  H37 UNL     1      71.262  67.392 109.883  0.00  0.00    +0.000 HD
ENDBRANCH  17  32
BRANCH  16  34
ATOM     34  O5  UNL     1      74.628  63.104 113.547  0.00  0.00    +0.000 OA
BRANCH  34  35
ATOM     35  C17 UNL     1      75.691  62.385 114.154  0.00  0.00    +0.000 C 
ATOM     36  C18 UNL     1      75.342  60.886 114.258  0.00  0.00    +0.000 C 
ATOM     37  C19 UNL     1      76.494  60.060 114.874  0.00  0.00    +0.000 C 
ATOM     38  C20 UNL     1      77.822  60.847 114.873  0.00  0.00    +0.000 C 
ATOM     39  C26 UNL     1      77.939  61.720 113.593  0.00  0.00    +0.000 C 
ATOM     40  C27 UNL     1      78.185  60.881 112.331  0.00  0.00    +0.000 C 
ATOM     41  O8  UNL     1      76.841  62.597 113.349  0.00  0.00    +0.000 OA
BRANCH  37  42
ATOM     42  N1  UNL     1      76.155  59.650 116.241  0.00  0.00    +0.000 NA
ATOM     43  H18 UNL     1      77.025  59.692 116.821  0.00  0.00    +0.000 HD
ATOM     44  H19 UNL     1      75.518  60.371 116.653  0.00  0.00    +0.000 HD
ENDBRANCH  37  42
BRANCH  38  45
ATOM     45  O6  UNL     1      78.908  59.930 114.934  0.00  0.00    +0.000 OA
BRANCH  45  46
ATOM     46  C21 UNL     1      79.990  60.425 115.710  0.00  0.00    +0.000 C 
ATOM     47  C22 UNL     1      79.446  61.107 116.990  0.00  0.00    +0.000 C 
ATOM     48  C23 UNL     1      79.935  60.408 118.258  0.00  0.00    +0.000 C 
ATOM     49  C24 UNL     1      79.746  58.900 118.128  0.00  0.00    +0.000 C 
ATOM     50  C25 UNL     1      80.326  58.373 116.799  0.00  0.00    +0.000 C 
ATOM     51  O7  UNL     1      80.920  59.391 116.009  0.00  0.00    +0.000 OA
ENDBRANCH  45  46
ENDBRANCH  38  45
ENDBRANCH  34  35
ENDBRANCH  16  34
TORSDOF 12
ENDMDL
MODEL 3
REMARK VINA RESULT:      -7.8      2.969      9.784
REMARK  Name = ./S1393.pdb
REMARK  14 active torsions:
REMARK  status: ('A' for Active; 'I' for Inactive)
REMARK    1  A    between atoms: C1_1  and  O1_2
REMARK    2  A    between atoms: O1_2  and  C2_3
REMARK    3  A    between atoms: C10_12  and  O3_13
REMARK    4  A    between atoms: C14_17  and  O4_18
REMARK    5  A    between atoms: C14_17  and  C28_37
REMARK    6  A    between atoms: C16_20  and  O5_21
REMARK    7  A    between atoms: O5_21  and  C17_22
REMARK    8  A    between atoms: C19_24  and  N1_25
REMARK    9  A    between atoms: C20_26  and  O6_27
REMARK   10  A    between atoms: O6_27  and  C21_28
REMARK   11  A    between atoms: C26_34  and  C27_35
REMARK   12  A    between atoms: C28_37  and  C29_39
REMARK   13  A    between atoms: C29_39  and  O10_40
REMARK   14  A    between atoms: C30_41  and  O12_45
REMARK                            x       y       z     vdW  Elec       q    Type
REMARK                         _______ _______ _______ _____ _____    ______ ____
ROOT
ATOM      1  C2  UNL     1      79.535  59.866 115.362  0.00  0.00    +0.000 A 
ATOM      2  C3  UNL     1      80.674  59.383 116.032  0.00  0.00    +0.000 A 
ATOM      3  C4  UNL     1      81.112  59.989 117.209  0.00  0.00    +0.000 A 
ATOM      4  C5  UNL     1      80.428  61.085 117.731  0.00  0.00    +0.000 A 
ATOM      5  C6  UNL     1      79.292  61.590 117.078  0.00  0.00    +0.000 A 
ATOM      6  C7  UNL     1      78.833  60.975 115.896  0.00  0.00    +0.000 A 
ATOM      7  C8  UNL     1      77.598  61.492 115.261  0.00  0.00    +0.000 C 
ATOM      8  O2  UNL     1      76.926  60.737 114.509  0.00  0.00    +0.000 OA
ATOM      9  C9  UNL     1      77.086  62.847 115.612  0.00  0.00    +0.000 A 
ATOM     10  C10 UNL     1      76.146  63.519 114.797  0.00  0.00    +0.000 A 
ATOM     11  C11 UNL     1      75.518  64.698 115.249  0.00  0.00    +0.000 A 
ATOM     12  C12 UNL     1      75.919  65.277 116.480  0.00  0.00    +0.000 A 
ATOM     13  C13 UNL     1      75.249  66.534 117.014  0.00  0.00    +0.000 C 
ATOM     14  C14 UNL     1      74.447  67.325 115.969  0.00  0.00    +0.000 C 
ATOM     15  C15 UNL     1      73.590  66.338 115.151  0.00  0.00    +0.000 C 
ATOM     16  C16 UNL     1      74.461  65.346 114.360  0.00  0.00    +0.000 C 
ATOM     17  C30 UNL     1      76.893  64.625 117.275  0.00  0.00    +0.000 A 
ATOM     18  C31 UNL     1      77.499  63.430 116.830  0.00  0.00    +0.000 A 
ATOM     19  C32 UNL     1      78.565  62.756 117.631  0.00  0.00    +0.000 C 
ATOM     20  O11 UNL     1      78.869  63.177 118.780  0.00  0.00    +0.000 OA
ENDROOT
BRANCH   1  22
ATOM     21  C1  UNL     1      78.862  57.882 113.986  0.00  0.00    +0.000 C 
ATOM     22  O1  UNL     1      79.086  59.277 114.168  0.00  0.00    +0.000 OA
ENDBRANCH   1  22
BRANCH  10  23
ATOM     23  O3  UNL     1      75.835  63.058 113.515  0.00  0.00    +0.000 OA
ATOM     24  H7  UNL     1      75.109  62.380 113.323  0.00  0.00    +0.000 HD
ENDBRANCH  10  23
BRANCH  14  25
ATOM     25  O4  UNL     1      75.358  68.001 115.130  0.00  0.00    +0.000 OA
ATOM     26  H10 UNL     1      75.059  68.944 115.050  0.00  0.00    +0.000 HD
ENDBRANCH  14  25
BRANCH  14  27
ATOM     27  C28 UNL     1      73.551  68.329 116.692  0.00  0.00    +0.000 C 
ATOM     28  O9  UNL     1      73.803  69.523 116.612  0.00  0.00    +0.000 OA
BRANCH  27  29
ATOM     29  C29 UNL     1      72.379  67.878 117.533  0.00  0.00    +0.000 C 
BRANCH  29  30
ATOM     30  O10 UNL     1      72.568  68.208 118.882  0.00  0.00    +0.000 OA
ATOM     31  H36 UNL     1      73.297  67.623 119.216  0.00  0.00    +0.000 HD
ENDBRANCH  29  30
ENDBRANCH  27  29
ENDBRANCH  14  27
BRANCH  17  32
ATOM     32  O12 UNL     1      77.259  65.138 118.527  0.00  0.00    +0.000 OA
ATOM     33  H37 UNL     1      76.962  64.756 119.415  0.00  0.00    +0.000 HD
ENDBRANCH  17  32
BRANCH  16  34
ATOM     34  O5  UNL     1      75.108  66.035 113.296  0.00  0.00    +0.000 OA
BRANCH  34  35
ATOM     35  C17 UNL     1      74.331  66.108 112.109  0.00  0.00    +0.000 C 
ATOM     36  C18 UNL     1      75.202  66.564 110.920  0.00  0.00    +0.000 C 
ATOM     37  C19 UNL     1      74.404  66.614 109.597  0.00  0.00    +0.000 C 
ATOM     38  C20 UNL     1      73.071  65.842 109.709  0.00  0.00    +0.000 C 
ATOM     39  C26 UNL     1      73.243  64.579 110.597  0.00  0.00    +0.000 C 
ATOM     40  C27 UNL     1      74.068  63.484 109.907  0.00  0.00    +0.000 C 
ATOM     41  O8  UNL     1      73.791  64.814 111.892  0.00  0.00    +0.000 OA
BRANCH  37  42
ATOM     42  N1  UNL     1      74.147  68.004 109.207  0.00  0.00    +0.000 NA
ATOM     43  H18 UNL     1      75.066  68.501 109.145  0.00  0.00    +0.000 HD
ATOM     44  H19 UNL     1      73.768  68.008 108.232  0.00  0.00    +0.000 HD
ENDBRANCH  37  42
BRANCH  38  45
ATOM     45  O6  UNL     1      72.641  65.463 108.406  0.00  0.00    +0.000 OA
BRANCH  45  46
ATOM     46  C21 UNL     1      71.254  65.693 108.208  0.00  0.00    +0.000 C 
ATOM     47  C22 UNL     1      70.767  66.812 109.162  0.00  0.00    +0.000 C 
ATOM     48  C23 UNL     1      70.237  68.023 108.395  0.00  0.00    +0.000 C 
ATOM     49  C24 UNL     1      71.218  68.412 107.293  0.00  0.00    +0.000 C 
ATOM     50  C25 UNL     1      71.617  67.191 106.438  0.00  0.00    +0.000 C 
ATOM     51  O7  UNL     1      70.975  65.993 106.845  0.00  0.00    +0.000 OA
ENDBRANCH  45  46
ENDBRANCH  38  45
ENDBRANCH  34  35
ENDBRANCH  16  34
TORSDOF 12
ENDMDL
MODEL 4
REMARK VINA RESULT:      -7.6      4.713      9.858
REMARK  Name = ./S1393.pdb
REMARK  14 active torsions:
REMARK  status: ('A' for Active; 'I' for Inactive)
REMARK    1  A    between atoms: C1_1  and  O1_2
REMARK    2  A    between atoms: O1_2  and  C2_3
REMARK    3  A    between atoms: C10_12  and  O3_13
REMARK    4  A    between atoms: C14_17  and  O4_18
REMARK    5  A    between atoms: C14_17  and  C28_37
REMARK    6  A    between atoms: C16_20  and  O5_21
REMARK    7  A    between atoms: O5_21  and  C17_22
REMARK    8  A    between atoms: C19_24  and  N1_25
REMARK    9  A    between atoms: C20_26  and  O6_27
REMARK   10  A    between atoms: O6_27  and  C21_28
REMARK   11  A    between atoms: C26_34  and  C27_35
REMARK   12  A    between atoms: C28_37  and  C29_39
REMARK   13  A    between atoms: C29_39  and  O10_40
REMARK   14  A    between atoms: C30_41  and  O12_45
REMARK                            x       y       z     vdW  Elec       q    Type
REMARK                         _______ _______ _______ _____ _____    ______ ____
ROOT
ATOM      1  C2  UNL     1      72.583  59.881 104.601  0.00  0.00    +0.000 A 
ATOM      2  C3  UNL     1      73.219  58.674 104.253  0.00  0.00    +0.000 A 
ATOM      3  C4  UNL     1      74.112  58.065 105.133  0.00  0.00    +0.000 A 
ATOM      4  C5  UNL     1      74.391  58.650 106.366  0.00  0.00    +0.000 A 
ATOM      5  C6  UNL     1      73.775  59.857 106.736  0.00  0.00    +0.000 A 
ATOM      6  C7  UNL     1      72.860  60.472 105.859  0.00  0.00    +0.000 A 
ATOM      7  C8  UNL     1      72.181  61.714 106.299  0.00  0.00    +0.000 C 
ATOM      8  O2  UNL     1      71.078  62.034 105.780  0.00  0.00    +0.000 OA
ATOM      9  C9  UNL     1      72.732  62.505 107.436  0.00  0.00    +0.000 A 
ATOM     10  C10 UNL     1      72.347  63.848 107.660  0.00  0.00    +0.000 A 
ATOM     11  C11 UNL     1      72.710  64.509 108.851  0.00  0.00    +0.000 A 
ATOM     12  C12 UNL     1      73.567  63.862 109.777  0.00  0.00    +0.000 A 
ATOM     13  C13 UNL     1      73.962  64.530 111.085  0.00  0.00    +0.000 C 
ATOM     14  C14 UNL     1      73.725  66.048 111.125  0.00  0.00    +0.000 C 
ATOM     15  C15 UNL     1      72.324  66.345 110.553  0.00  0.00    +0.000 C 
ATOM     16  C16 UNL     1      72.213  65.933 109.074  0.00  0.00    +0.000 C 
ATOM     17  C30 UNL     1      73.987  62.531 109.530  0.00  0.00    +0.000 A 
ATOM     18  C31 UNL     1      73.597  61.864 108.348  0.00  0.00    +0.000 A 
ATOM     19  C32 UNL     1      74.072  60.480 108.046  0.00  0.00    +0.000 C 
ATOM     20  O11 UNL     1      74.741  59.831 108.894  0.00  0.00    +0.000 OA
ENDROOT
BRANCH   1  22
ATOM     21  C1  UNL     1      72.064  61.137 102.495  0.00  0.00    +0.000 C 
ATOM     22  O1  UNL     1      71.691  60.516 103.722  0.00  0.00    +0.000 OA
ENDBRANCH   1  22
BRANCH  10  23
ATOM     23  O3  UNL     1      71.627  64.567 106.702  0.00  0.00    +0.000 OA
ATOM     24  H7  UNL     1      70.617  64.631 106.689  0.00  0.00    +0.000 HD
ENDBRANCH  10  23
BRANCH  14  25
ATOM     25  O4  UNL     1      74.720  66.673 110.344  0.00  0.00    +0.000 OA
ATOM     26  H10 UNL     1      75.137  67.387 110.894  0.00  0.00    +0.000 HD
ENDBRANCH  14  25
BRANCH  14  27
ATOM     27  C28 UNL     1      73.815  66.522 112.574  0.00  0.00    +0.000 C 
ATOM     28  O9  UNL     1      72.869  66.336 113.326  0.00  0.00    +0.000 OA
BRANCH  27  29
ATOM     29  C29 UNL     1      75.035  67.248 113.092  0.00  0.00    +0.000 C 
BRANCH  29  30
ATOM     30  O10 UNL     1      75.259  68.434 112.379  0.00  0.00    +0.000 OA
ATOM     31  H36 UNL     1      76.225  68.642 112.475  0.00  0.00    +0.000 HD
ENDBRANCH  29  30
ENDBRANCH  27  29
ENDBRANCH  14  27
BRANCH  17  32
ATOM     32  O12 UNL     1      74.777  61.842 110.461  0.00  0.00    +0.000 OA
ATOM     33  H37 UNL     1      75.431  62.278 111.096  0.00  0.00    +0.000 HD
ENDBRANCH  17  32
BRANCH  16  34
ATOM     34  O5  UNL     1      72.986  66.825 108.280  0.00  0.00    +0.000 OA
BRANCH  34  35
ATOM     35  C17 UNL     1      72.225  67.868 107.688  0.00  0.00    +0.000 C 
ATOM     36  C18 UNL     1      72.921  69.230 107.893  0.00  0.00    +0.000 C 
ATOM     37  C19 UNL     1      72.146  70.388 107.224  0.00  0.00    +0.000 C 
ATOM     38  C20 UNL     1      71.105  69.865 106.211  0.00  0.00    +0.000 C 
ATOM     39  C26 UNL     1      71.646  68.611 105.470  0.00  0.00    +0.000 C 
ATOM     40  C27 UNL     1      72.762  68.954 104.473  0.00  0.00    +0.000 C 
ATOM     41  O8  UNL     1      72.097  67.551 106.310  0.00  0.00    +0.000 OA
BRANCH  37  42
ATOM     42  N1  UNL     1      71.486  71.215 108.239  0.00  0.00    +0.000 NA
ATOM     43  H18 UNL     1      72.123  72.010 108.478  0.00  0.00    +0.000 HD
ATOM     44  H19 UNL     1      70.645  71.660 107.806  0.00  0.00    +0.000 HD
ENDBRANCH  37  42
BRANCH  38  45
ATOM     45  O6  UNL     1      70.810  70.892 105.272  0.00  0.00    +0.000 OA
BRANCH  45  46
ATOM     46  C21 UNL     1      69.426  70.958 104.962  0.00  0.00    +0.000 C 
ATOM     47  C22 UNL     1      68.590  70.645 106.228  0.00  0.00    +0.000 C 
ATOM     48  C23 UNL     1      67.713  71.827 106.638  0.00  0.00    +0.000 C 
ATOM     49  C24 UNL     1      68.536  73.112 106.635  0.00  0.00    +0.000 C 
ATOM     50  C25 UNL     1      69.319  73.276 105.316  0.00  0.00    +0.000 C 
ATOM     51  O7  UNL     1      69.089  72.220 104.397  0.00  0.00    +0.000 OA
ENDBRANCH  45  46
ENDBRANCH  38  45
ENDBRANCH  34  35
ENDBRANCH  16  34
TORSDOF 12
ENDMDL
MODEL 5
REMARK VINA RESULT:      -7.6      3.560      9.847
REMARK  Name = ./S1393.pdb
REMARK  14 active torsions:
REMARK  status: ('A' for Active; 'I' for Inactive)
REMARK    1  A    between atoms: C1_1  and  O1_2
REMARK    2  A    between atoms: O1_2  and  C2_3
REMARK    3  A    between atoms: C10_12  and  O3_13
REMARK    4  A    between atoms: C14_17  and  O4_18
REMARK    5  A    between atoms: C14_17  and  C28_37
REMARK    6  A    between atoms: C16_20  and  O5_21
REMARK    7  A    between atoms: O5_21  and  C17_22
REMARK    8  A    between atoms: C19_24  and  N1_25
REMARK    9  A    between atoms: C20_26  and  O6_27
REMARK   10  A    between atoms: O6_27  and  C21_28
REMARK   11  A    between atoms: C26_34  and  C27_35
REMARK   12  A    between atoms: C28_37  and  C29_39
REMARK   13  A    between atoms: C29_39  and  O10_40
REMARK   14  A    between atoms: C30_41  and  O12_45
REMARK                            x       y       z     vdW  Elec       q    Type
REMARK                         _______ _______ _______ _____ _____    ______ ____
ROOT
ATOM      1  C2  UNL     1      74.580  63.548 115.625  0.00  0.00    +0.000 A 
ATOM      2  C3  UNL     1      75.315  63.782 116.802  0.00  0.00    +0.000 A 
ATOM      3  C4  UNL     1      75.935  65.013 117.016  0.00  0.00    +0.000 A 
ATOM      4  C5  UNL     1      75.838  66.023 116.061  0.00  0.00    +0.000 A 
ATOM      5  C6  UNL     1      75.116  65.813 114.876  0.00  0.00    +0.000 A 
ATOM      6  C7  UNL     1      74.474  64.578 114.657  0.00  0.00    +0.000 A 
ATOM      7  C8  UNL     1      73.670  64.405 113.425  0.00  0.00    +0.000 C 
ATOM      8  O2  UNL     1      72.753  63.540 113.400  0.00  0.00    +0.000 OA
ATOM      9  C9  UNL     1      73.856  65.332 112.273  0.00  0.00    +0.000 A 
ATOM     10  C10 UNL     1      73.393  65.007 110.976  0.00  0.00    +0.000 A 
ATOM     11  C11 UNL     1      73.388  65.977 109.953  0.00  0.00    +0.000 A 
ATOM     12  C12 UNL     1      73.961  67.252 110.193  0.00  0.00    +0.000 A 
ATOM     13  C13 UNL     1      73.952  68.333 109.124  0.00  0.00    +0.000 C 
ATOM     14  C14 UNL     1      73.679  67.823 107.701  0.00  0.00    +0.000 C 
ATOM     15  C15 UNL     1      72.492  66.839 107.746  0.00  0.00    +0.000 C 
ATOM     16  C16 UNL     1      72.815  65.595 108.592  0.00  0.00    +0.000 C 
ATOM     17  C30 UNL     1      74.464  67.561 111.481  0.00  0.00    +0.000 A 
ATOM     18  C31 UNL     1      74.441  66.594 112.511  0.00  0.00    +0.000 A 
ATOM     19  C32 UNL     1      75.014  66.885 113.860  0.00  0.00    +0.000 C 
ATOM     20  O11 UNL     1      75.429  68.040 114.147  0.00  0.00    +0.000 OA
ENDROOT
BRANCH   1  22
ATOM     21  C1  UNL     1      74.652  61.087 115.156  0.00  0.00    +0.000 C 
ATOM     22  O1  UNL     1      73.960  62.310 115.386  0.00  0.00    +0.000 OA
ENDBRANCH   1  22
BRANCH  10  23
ATOM     23  O3  UNL     1      72.959  63.717 110.663  0.00  0.00    +0.000 OA
ATOM     24  H7  UNL     1      72.860  62.976 111.344  0.00  0.00    +0.000 HD
ENDBRANCH  10  23
BRANCH  14  25
ATOM     25  O4  UNL     1      74.840  67.174 107.231  0.00  0.00    +0.000 OA
ATOM     26  H10 UNL     1      75.598  67.811 107.306  0.00  0.00    +0.000 HD
ENDBRANCH  14  25
BRANCH  14  27
ATOM     27  C28 UNL     1      73.343  69.015 106.806  0.00  0.00    +0.000 C 
ATOM     28  O9  UNL     1      73.523  70.150 107.227  0.00  0.00    +0.000 OA
BRANCH  27  29
ATOM     29  C29 UNL     1      72.761  68.826 105.425  0.00  0.00    +0.000 C 
BRANCH  29  30
ATOM     30  O10 UNL     1      73.514  67.908 104.680  0.00  0.00    +0.000 OA
ATOM     31  H36 UNL     1      72.994  67.721 103.855  0.00  0.00    +0.000 HD
ENDBRANCH  29  30
ENDBRANCH  27  29
ENDBRANCH  14  27
BRANCH  17  32
ATOM     32  O12 UNL     1      74.972  68.835 111.767  0.00  0.00    +0.000 OA
ATOM     33  H37 UNL     1      75.483  69.412 111.113  0.00  0.00    +0.000 HD
ENDBRANCH  17  32
BRANCH  16  34
ATOM     34  O5  UNL     1      73.762  64.790 107.898  0.00  0.00    +0.000 OA
BRANCH  34  35
ATOM     35  C17 UNL     1      73.224  64.127 106.764  0.00  0.00    +0.000 C 
ATOM     36  C18 UNL     1      74.199  64.216 105.572  0.00  0.00    +0.000 C 
ATOM     37  C19 UNL     1      73.670  63.466 104.328  0.00  0.00    +0.000 C 
ATOM     38  C20 UNL     1      72.513  62.509 104.690  0.00  0.00    +0.000 C 
ATOM     39  C26 UNL     1      72.754  61.863 106.082  0.00  0.00    +0.000 C 
ATOM     40  C27 UNL     1      73.889  60.830 106.062  0.00  0.00    +0.000 C 
ATOM     41  O8  UNL     1      72.992  62.780 107.148  0.00  0.00    +0.000 OA
BRANCH  37  42
ATOM     42  N1  UNL     1      73.230  64.420 103.304  0.00  0.00    +0.000 NA
ATOM     43  H18 UNL     1      74.037  64.613 102.668  0.00  0.00    +0.000 HD
ATOM     44  H19 UNL     1      72.514  63.952 102.703  0.00  0.00    +0.000 HD
ENDBRANCH  37  42
BRANCH  38  45
ATOM     45  O6  UNL     1      72.417  61.495 103.696  0.00  0.00    +0.000 OA
BRANCH  45  46
ATOM     46  C21 UNL     1      71.071  61.152 103.403  0.00  0.00    +0.000 C 
ATOM     47  C22 UNL     1      70.185  62.421 103.450  0.00  0.00    +0.000 C 
ATOM     48  C23 UNL     1      69.539  62.714 102.097  0.00  0.00    +0.000 C 
ATOM     49  C24 UNL     1      70.584  62.624 100.989  0.00  0.00    +0.000 C 
ATOM     50  C25 UNL     1      71.391  61.312 101.084  0.00  0.00    +0.000 C 
ATOM     51  O7  UNL     1      70.975  60.479 102.154  0.00  0.00    +0.000 OA
ENDBRANCH  45  46
ENDBRANCH  38  45
ENDBRANCH  34  35
ENDBRANCH  16  34
TORSDOF 12
ENDMDL
MODEL 6
REMARK VINA RESULT:      -7.3      3.413      9.211
REMARK  Name = ./S1393.pdb
REMARK  14 active torsions:
REMARK  status: ('A' for Active; 'I' for Inactive)
REMARK    1  A    between atoms: C1_1  and  O1_2
REMARK    2  A    between atoms: O1_2  and  C2_3
REMARK    3  A    between atoms: C10_12  and  O3_13
REMARK    4  A    between atoms: C14_17  and  O4_18
REMARK    5  A    between atoms: C14_17  and  C28_37
REMARK    6  A    between atoms: C16_20  and  O5_21
REMARK    7  A    between atoms: O5_21  and  C17_22
REMARK    8  A    between atoms: C19_24  and  N1_25
REMARK    9  A    between atoms: C20_26  and  O6_27
REMARK   10  A    between atoms: O6_27  and  C21_28
REMARK   11  A    between atoms: C26_34  and  C27_35
REMARK   12  A    between atoms: C28_37  and  C29_39
REMARK   13  A    between atoms: C29_39  and  O10_40
REMARK   14  A    between atoms: C30_41  and  O12_45
REMARK                            x       y       z     vdW  Elec       q    Type
REMARK                         _______ _______ _______ _____ _____    ______ ____
ROOT
ATOM      1  C2  UNL     1      74.529  62.348 116.213  0.00  0.00    +0.000 A 
ATOM      2  C3  UNL     1      75.190  62.259 117.452  0.00  0.00    +0.000 A 
ATOM      3  C4  UNL     1      75.886  63.354 117.963  0.00  0.00    +0.000 A 
ATOM      4  C5  UNL     1      75.939  64.548 117.247  0.00  0.00    +0.000 A 
ATOM      5  C6  UNL     1      75.293  64.661 116.005  0.00  0.00    +0.000 A 
ATOM      6  C7  UNL     1      74.575  63.565 115.488  0.00  0.00    +0.000 A 
ATOM      7  C8  UNL     1      73.854  63.731 114.205  0.00  0.00    +0.000 C 
ATOM      8  O2  UNL     1      72.877  62.980 113.941  0.00  0.00    +0.000 OA
ATOM      9  C9  UNL     1      74.196  64.861 113.294  0.00  0.00    +0.000 A 
ATOM     10  C10 UNL     1      73.807  64.862 111.934  0.00  0.00    +0.000 A 
ATOM     11  C11 UNL     1      73.953  66.022 111.148  0.00  0.00    +0.000 A 
ATOM     12  C12 UNL     1      74.604  67.160 111.691  0.00  0.00    +0.000 A 
ATOM     13  C13 UNL     1      74.759  68.439 110.884  0.00  0.00    +0.000 C 
ATOM     14  C14 UNL     1      74.553  68.270 109.371  0.00  0.00    +0.000 C 
ATOM     15  C15 UNL     1      73.293  67.412 109.135  0.00  0.00    +0.000 C 
ATOM     16  C16 UNL     1      73.456  65.992 109.706  0.00  0.00    +0.000 C 
ATOM     17  C30 UNL     1      75.032  67.141 113.042  0.00  0.00    +0.000 A 
ATOM     18  C31 UNL     1      74.858  65.985 113.833  0.00  0.00    +0.000 A 
ATOM     19  C32 UNL     1      75.350  65.929 115.243  0.00  0.00    +0.000 C 
ATOM     20  O11 UNL     1      75.831  66.954 115.797  0.00  0.00    +0.000 OA
ENDROOT
BRANCH   1  22
ATOM     21  C1  UNL     1      74.450  60.086 115.137  0.00  0.00    +0.000 C 
ATOM     22  O1  UNL     1      73.834  61.251 115.676  0.00  0.00    +0.000 OA
ENDBRANCH   1  22
BRANCH  10  23
ATOM     23  O3  UNL     1      73.299  63.713 111.324  0.00  0.00    +0.000 OA
ATOM     24  H7  UNL     1      72.322  63.450 111.345  0.00  0.00    +0.000 HD
ENDBRANCH  10  23
BRANCH  14  25
ATOM     25  O4  UNL     1      75.692  67.631 108.837  0.00  0.00    +0.000 OA
ATOM     26  H10 UNL     1      76.161  67.171 109.581  0.00  0.00    +0.000 HD
ENDBRANCH  14  25
BRANCH  14  27
ATOM     27  C28 UNL     1      74.377  69.650 108.740  0.00  0.00    +0.000 C 
ATOM     28  O9  UNL     1      73.456  69.839 107.959  0.00  0.00    +0.000 OA
BRANCH  27  29
ATOM     29  C29 UNL     1      75.337  70.779 109.034  0.00  0.00    +0.000 C 
BRANCH  29  30
ATOM     30  O10 UNL     1      76.637  70.460 108.617  0.00  0.00    +0.000 OA
ATOM     31  H36 UNL     1      76.587  70.299 107.638  0.00  0.00    +0.000 HD
ENDBRANCH  29  30
ENDBRANCH  27  29
ENDBRANCH  14  27
BRANCH  17  32
ATOM     32  O12 UNL     1      75.615  68.274 113.626  0.00  0.00    +0.000 OA
ATOM     33  H37 UNL     1      75.148  69.162 113.754  0.00  0.00    +0.000 HD
ENDBRANCH  17  32
BRANCH  16  34
ATOM     34  O5  UNL     1      74.386  65.270 108.908  0.00  0.00    +0.000 OA
BRANCH  34  35
ATOM     35  C17 UNL     1      73.775  64.441 107.930  0.00  0.00    +0.000 C 
ATOM     36  C18 UNL     1      74.748  64.175 106.762  0.00  0.00    +0.000 C 
ATOM     37  C19 UNL     1      74.136  63.238 105.696  0.00  0.00    +0.000 C 
ATOM     38  C20 UNL     1      72.888  62.504 106.232  0.00  0.00    +0.000 C 
ATOM     39  C26 UNL     1      73.068  62.145 107.733  0.00  0.00    +0.000 C 
ATOM     40  C27 UNL     1      74.089  61.019 107.949  0.00  0.00    +0.000 C 
ATOM     41  O8  UNL     1      73.407  63.236 108.585  0.00  0.00    +0.000 OA
BRANCH  37  42
ATOM     42  N1  UNL     1      73.792  63.995 104.487  0.00  0.00    +0.000 NA
ATOM     43  H18 UNL     1      74.232  63.519 103.666  0.00  0.00    +0.000 HD
ATOM     44  H19 UNL     1      72.761  63.913 104.330  0.00  0.00    +0.000 HD
ENDBRANCH  37  42
BRANCH  38  45
ATOM     45  O6  UNL     1      72.681  61.318 105.472  0.00  0.00    +0.000 OA
BRANCH  45  46
ATOM     46  C21 UNL     1      71.309  61.092 105.188  0.00  0.00    +0.000 C 
ATOM     47  C22 UNL     1      70.541  62.437 105.207  0.00  0.00    +0.000 C 
ATOM     48  C23 UNL     1      69.921  62.758 103.847  0.00  0.00    +0.000 C 
ATOM     49  C24 UNL     1      70.952  62.549 102.742  0.00  0.00    +0.000 C 
ATOM     50  C25 UNL     1      71.637  61.172 102.865  0.00  0.00    +0.000 C 
ATOM     51  O7  UNL     1      71.150  60.403 103.953  0.00  0.00    +0.000 OA
ENDBRANCH  45  46
ENDBRANCH  38  45
ENDBRANCH  34  35
ENDBRANCH  16  34
TORSDOF 12
ENDMDL
MODEL 7
REMARK VINA RESULT:      -7.3     10.633     16.816
REMARK  Name = ./S1393.pdb
REMARK  14 active torsions:
REMARK  status: ('A' for Active; 'I' for Inactive)
REMARK    1  A    between atoms: C1_1  and  O1_2
REMARK    2  A    between atoms: O1_2  and  C2_3
REMARK    3  A    between atoms: C10_12  and  O3_13
REMARK    4  A    between atoms: C14_17  and  O4_18
REMARK    5  A    between atoms: C14_17  and  C28_37
REMARK    6  A    between atoms: C16_20  and  O5_21
REMARK    7  A    between atoms: O5_21  and  C17_22
REMARK    8  A    between atoms: C19_24  and  N1_25
REMARK    9  A    between atoms: C20_26  and  O6_27
REMARK   10  A    between atoms: O6_27  and  C21_28
REMARK   11  A    between atoms: C26_34  and  C27_35
REMARK   12  A    between atoms: C28_37  and  C29_39
REMARK   13  A    between atoms: C29_39  and  O10_40
REMARK   14  A    between atoms: C30_41  and  O12_45
REMARK                            x       y       z     vdW  Elec       q    Type
REMARK                         _______ _______ _______ _____ _____    ______ ____
ROOT
ATOM      1  C2  UNL     1      64.439  59.352 111.574  0.00  0.00    +0.000 A 
ATOM      2  C3  UNL     1      64.072  59.888 112.823  0.00  0.00    +0.000 A 
ATOM      3  C4  UNL     1      62.745  59.847 113.248  0.00  0.00    +0.000 A 
ATOM      4  C5  UNL     1      61.765  59.280 112.437  0.00  0.00    +0.000 A 
ATOM      5  C6  UNL     1      62.103  58.744 111.184  0.00  0.00    +0.000 A 
ATOM      6  C7  UNL     1      63.443  58.767 110.752  0.00  0.00    +0.000 A 
ATOM      7  C8  UNL     1      63.780  58.142 109.451  0.00  0.00    +0.000 C 
ATOM      8  O2  UNL     1      64.959  57.747 109.240  0.00  0.00    +0.000 OA
ATOM      9  C9  UNL     1      62.708  57.863 108.454  0.00  0.00    +0.000 A 
ATOM     10  C10 UNL     1      63.006  57.609 107.095  0.00  0.00    +0.000 A 
ATOM     11  C11 UNL     1      62.007  57.142 106.217  0.00  0.00    +0.000 A 
ATOM     12  C12 UNL     1      60.668  57.039 106.671  0.00  0.00    +0.000 A 
ATOM     13  C13 UNL     1      59.566  56.515 105.763  0.00  0.00    +0.000 C 
ATOM     14  C14 UNL     1      59.916  56.516 104.267  0.00  0.00    +0.000 C 
ATOM     15  C15 UNL     1      61.337  55.941 104.090  0.00  0.00    +0.000 C 
ATOM     16  C16 UNL     1      62.397  56.819 104.778  0.00  0.00    +0.000 C 
ATOM     17  C30 UNL     1      60.363  57.335 108.023  0.00  0.00    +0.000 A 
ATOM     18  C31 UNL     1      61.374  57.776 108.905  0.00  0.00    +0.000 A 
ATOM     19  C32 UNL     1      61.062  58.142 110.320  0.00  0.00    +0.000 C 
ATOM     20  O11 UNL     1      59.907  57.957 110.792  0.00  0.00    +0.000 OA
ENDROOT
BRANCH   1  22
ATOM     21  C1  UNL     1      66.886  59.763 111.925  0.00  0.00    +0.000 C 
ATOM     22  O1  UNL     1      65.768  59.396 111.122  0.00  0.00    +0.000 OA
ENDBRANCH   1  22
BRANCH  10  23
ATOM     23  O3  UNL     1      64.283  57.842 106.576  0.00  0.00    +0.000 OA
ATOM     24  H7  UNL     1      64.907  58.560 106.920  0.00  0.00    +0.000 HD
ENDBRANCH  10  23
BRANCH  14  25
ATOM     25  O4  UNL     1      59.860  57.846 103.799  0.00  0.00    +0.000 OA
ATOM     26  H10 UNL     1      60.789  58.193 103.751  0.00  0.00    +0.000 HD
ENDBRANCH  14  25
BRANCH  14  27
ATOM     27  C28 UNL     1      58.900  55.652 103.522  0.00  0.00    +0.000 C 
ATOM     28  O9  UNL     1      58.887  54.443 103.712  0.00  0.00    +0.000 OA
BRANCH  27  29
ATOM     29  C29 UNL     1      57.930  56.251 102.531  0.00  0.00    +0.000 C 
BRANCH  29  30
ATOM     30  O10 UNL     1      57.076  57.173 103.153  0.00  0.00    +0.000 OA
ATOM     31  H36 UNL     1      57.597  58.011 103.262  0.00  0.00    +0.000 HD
ENDBRANCH  29  30
ENDBRANCH  27  29
ENDBRANCH  14  27
BRANCH  17  32
ATOM     32  O12 UNL     1      59.062  57.175 108.518  0.00  0.00    +0.000 OA
ATOM     33  H37 UNL     1      58.801  56.540 109.261  0.00  0.00    +0.000 HD
ENDBRANCH  17  32
BRANCH  16  34
ATOM     34  O5  UNL     1      62.542  58.034 104.052  0.00  0.00    +0.000 OA
BRANCH  34  35
ATOM     35  C17 UNL     1      63.448  57.942 102.962  0.00  0.00    +0.000 C 
ATOM     36  C18 UNL     1      62.749  57.338 101.726  0.00  0.00    +0.000 C 
ATOM     37  C19 UNL     1      63.690  57.262 100.502  0.00  0.00    +0.000 C 
ATOM     38  C20 UNL     1      64.944  58.144 100.694  0.00  0.00    +0.000 C 
ATOM     39  C26 UNL     1      64.584  59.447 101.459  0.00  0.00    +0.000 C 
ATOM     40  C27 UNL     1      63.762  60.423 100.605  0.00  0.00    +0.000 C 
ATOM     41  O8  UNL     1      63.914  59.258 102.704  0.00  0.00    +0.000 OA
BRANCH  37  42
ATOM     42  N1  UNL     1      64.088  55.873 100.249  0.00  0.00    +0.000 NA
ATOM     43  H18 UNL     1      64.245  55.404 101.171  0.00  0.00    +0.000 HD
ATOM     44  H19 UNL     1      63.277  55.371  99.821  0.00  0.00    +0.000 HD
ENDBRANCH  37  42
BRANCH  38  45
ATOM     45  O6  UNL     1      65.486  58.466  99.418  0.00  0.00    +0.000 OA
BRANCH  45  46
ATOM     46  C21 UNL     1      66.857  58.114  99.310  0.00  0.00    +0.000 C 
ATOM     47  C22 UNL     1      67.234  57.926  97.820  0.00  0.00    +0.000 C 
ATOM     48  C23 UNL     1      68.304  58.921  97.373  0.00  0.00    +0.000 C 
ATOM     49  C24 UNL     1      67.935  60.327  97.836  0.00  0.00    +0.000 C 
ATOM     50  C25 UNL     1      67.574  60.348  99.336  0.00  0.00    +0.000 C 
ATOM     51  O7  UNL     1      67.685  59.076  99.953  0.00  0.00    +0.000 OA
ENDBRANCH  45  46
ENDBRANCH  38  45
ENDBRANCH  34  35
ENDBRANCH  16  34
TORSDOF 12
ENDMDL
MODEL 8
REMARK VINA RESULT:      -7.2      4.917     11.995
REMARK  Name = ./S1393.pdb
REMARK  14 active torsions:
REMARK  status: ('A' for Active; 'I' for Inactive)
REMARK    1  A    between atoms: C1_1  and  O1_2
REMARK    2  A    between atoms: O1_2  and  C2_3
REMARK    3  A    between atoms: C10_12  and  O3_13
REMARK    4  A    between atoms: C14_17  and  O4_18
REMARK    5  A    between atoms: C14_17  and  C28_37
REMARK    6  A    between atoms: C16_20  and  O5_21
REMARK    7  A    between atoms: O5_21  and  C17_22
REMARK    8  A    between atoms: C19_24  and  N1_25
REMARK    9  A    between atoms: C20_26  and  O6_27
REMARK   10  A    between atoms: O6_27  and  C21_28
REMARK   11  A    between atoms: C26_34  and  C27_35
REMARK   12  A    between atoms: C28_37  and  C29_39
REMARK   13  A    between atoms: C29_39  and  O10_40
REMARK   14  A    between atoms: C30_41  and  O12_45
REMARK                            x       y       z     vdW  Elec       q    Type
REMARK                         _______ _______ _______ _____ _____    ______ ____
ROOT
ATOM      1  C2  UNL     1      75.111  66.471 114.971  0.00  0.00    +0.000 A 
ATOM      2  C3  UNL     1      75.385  65.692 116.111  0.00  0.00    +0.000 A 
ATOM      3  C4  UNL     1      75.418  64.301 116.025  0.00  0.00    +0.000 A 
ATOM      4  C5  UNL     1      75.172  63.666 114.810  0.00  0.00    +0.000 A 
ATOM      5  C6  UNL     1      74.890  64.420 113.659  0.00  0.00    +0.000 A 
ATOM      6  C7  UNL     1      74.870  65.827 113.732  0.00  0.00    +0.000 A 
ATOM      7  C8  UNL     1      74.628  66.598 112.490  0.00  0.00    +0.000 C 
ATOM      8  O2  UNL     1      75.033  67.789 112.412  0.00  0.00    +0.000 OA
ATOM      9  C9  UNL     1      74.030  65.931 111.299  0.00  0.00    +0.000 A 
ATOM     10  C10 UNL     1      73.458  66.675 110.241  0.00  0.00    +0.000 A 
ATOM     11  C11 UNL     1      73.092  66.043 109.035  0.00  0.00    +0.000 A 
ATOM     12  C12 UNL     1      73.188  64.632 108.927  0.00  0.00    +0.000 A 
ATOM     13  C13 UNL     1      72.826  63.915 107.636  0.00  0.00    +0.000 C 
ATOM     14  C14 UNL     1      71.985  64.747 106.656  0.00  0.00    +0.000 C 
ATOM     15  C15 UNL     1      72.596  66.159 106.554  0.00  0.00    +0.000 C 
ATOM     16  C16 UNL     1      72.542  66.902 107.901  0.00  0.00    +0.000 C 
ATOM     17  C30 UNL     1      73.721  63.883 110.006  0.00  0.00    +0.000 A 
ATOM     18  C31 UNL     1      74.112  64.526 111.201  0.00  0.00    +0.000 A 
ATOM     19  C32 UNL     1      74.628  63.746 112.367  0.00  0.00    +0.000 C 
ATOM     20  O11 UNL     1      74.834  62.506 112.271  0.00  0.00    +0.000 OA
ENDROOT
BRANCH   1  22
ATOM     21  C1  UNL     1      74.777  68.618 116.221  0.00  0.00    +0.000 C 
ATOM     22  O1  UNL     1      75.061  67.874 115.040  0.00  0.00    +0.000 OA
ENDBRANCH   1  22
BRANCH  10  23
ATOM     23  O3  UNL     1      73.211  68.045 110.367  0.00  0.00    +0.000 OA
ATOM     24  H7  UNL     1      73.906  68.760 110.194  0.00  0.00    +0.000 HD
ENDBRANCH  10  23
BRANCH  14  25
ATOM     25  O4  UNL     1      70.665  64.814 107.150  0.00  0.00    +0.000 OA
ATOM     26  H10 UNL     1      70.548  65.696 107.590  0.00  0.00    +0.000 HD
ENDBRANCH  14  25
BRANCH  14  27
ATOM     27  C28 UNL     1      72.002  64.064 105.289  0.00  0.00    +0.000 C 
ATOM     28  O9  UNL     1      72.706  64.521 104.399  0.00  0.00    +0.000 OA
BRANCH  27  29
ATOM     29  C29 UNL     1      71.144  62.854 105.001  0.00  0.00    +0.000 C 
BRANCH  29  30
ATOM     30  O10 UNL     1      69.781  63.181 105.033  0.00  0.00    +0.000 OA
ATOM     31  H36 UNL     1      69.582  63.639 104.174  0.00  0.00    +0.000 HD
ENDBRANCH  29  30
ENDBRANCH  27  29
ENDBRANCH  14  27
BRANCH  17  32
ATOM     32  O12 UNL     1      73.892  62.496 109.901  0.00  0.00    +0.000 OA
ATOM     33  H37 UNL     1      73.589  61.824 110.593  0.00  0.00    +0.000 HD
ENDBRANCH  17  32
BRANCH  16  34
ATOM     34  O5  UNL     1      71.194  67.249 108.191  0.00  0.00    +0.000 OA
BRANCH  34  35
ATOM     35  C17 UNL     1      70.795  68.497 107.644  0.00  0.00    +0.000 C 
ATOM     36  C18 UNL     1      71.856  69.579 107.937  0.00  0.00    +0.000 C 
ATOM     37  C19 UNL     1      71.481  70.946 107.318  0.00  0.00    +0.000 C 
ATOM     38  C20 UNL     1      70.366  70.804 106.259  0.00  0.00    +0.000 C 
ATOM     39  C26 UNL     1      70.537  69.483 105.459  0.00  0.00    +0.000 C 
ATOM     40  C27 UNL     1      71.738  69.525 104.504  0.00  0.00    +0.000 C 
ATOM     41  O8  UNL     1      70.626  68.298 106.249  0.00  0.00    +0.000 OA
BRANCH  37  42
ATOM     42  N1  UNL     1      71.061  71.883 108.365  0.00  0.00    +0.000 NA
ATOM     43  H18 UNL     1      70.019  71.834 108.449  0.00  0.00    +0.000 HD
ATOM     44  H19 UNL     1      71.424  71.536 109.283  0.00  0.00    +0.000 HD
ENDBRANCH  37  42
BRANCH  38  45
ATOM     45  O6  UNL     1      70.420  71.916 105.373  0.00  0.00    +0.000 OA
BRANCH  45  46
ATOM     46  C21 UNL     1      69.144  72.251 104.849  0.00  0.00    +0.000 C 
ATOM     47  C22 UNL     1      68.081  72.174 105.973  0.00  0.00    +0.000 C 
ATOM     48  C23 UNL     1      67.420  73.529 106.226  0.00  0.00    +0.000 C 
ATOM     49  C24 UNL     1      68.485  74.615 106.336  0.00  0.00    +0.000 C 
ATOM     50  C25 UNL     1      69.475  74.555 105.153  0.00  0.00    +0.000 C 
ATOM     51  O7  UNL     1      69.168  73.529 104.223  0.00  0.00    +0.000 OA
ENDBRANCH  45  46
ENDBRANCH  38  45
ENDBRANCH  34  35
ENDBRANCH  16  34
TORSDOF 12
ENDMDL
MODEL 9
REMARK VINA RESULT:      -7.2      2.552      9.100
REMARK  Name = ./S1393.pdb
REMARK  14 active torsions:
REMARK  status: ('A' for Active; 'I' for Inactive)
REMARK    1  A    between atoms: C1_1  and  O1_2
REMARK    2  A    between atoms: O1_2  and  C2_3
REMARK    3  A    between atoms: C10_12  and  O3_13
REMARK    4  A    between atoms: C14_17  and  O4_18
REMARK    5  A    between atoms: C14_17  and  C28_37
REMARK    6  A    between atoms: C16_20  and  O5_21
REMARK    7  A    between atoms: O5_21  and  C17_22
REMARK    8  A    between atoms: C19_24  and  N1_25
REMARK    9  A    between atoms: C20_26  and  O6_27
REMARK   10  A    between atoms: O6_27  and  C21_28
REMARK   11  A    between atoms: C26_34  and  C27_35
REMARK   12  A    between atoms: C28_37  and  C29_39
REMARK   13  A    between atoms: C29_39  and  O10_40
REMARK   14  A    between atoms: C30_41  and  O12_45
REMARK                            x       y       z     vdW  Elec       q    Type
REMARK                         _______ _______ _______ _____ _____    ______ ____
ROOT
ATOM      1  C2  UNL     1      76.858  62.603 117.150  0.00  0.00    +0.000 A 
ATOM      2  C3  UNL     1      77.580  63.100 118.252  0.00  0.00    +0.000 A 
ATOM      3  C4  UNL     1      77.620  64.468 118.512  0.00  0.00    +0.000 A 
ATOM      4  C5  UNL     1      76.950  65.361 117.679  0.00  0.00    +0.000 A 
ATOM      5  C6  UNL     1      76.228  64.893 116.569  0.00  0.00    +0.000 A 
ATOM      6  C7  UNL     1      76.169  63.510 116.307  0.00  0.00    +0.000 A 
ATOM      7  C8  UNL     1      75.352  63.039 115.164  0.00  0.00    +0.000 C 
ATOM      8  O2  UNL     1      74.915  61.857 115.160  0.00  0.00    +0.000 OA
ATOM      9  C9  UNL     1      74.940  63.992 114.095  0.00  0.00    +0.000 A 
ATOM     10  C10 UNL     1      74.482  63.541 112.835  0.00  0.00    +0.000 A 
ATOM     11  C11 UNL     1      73.901  64.441 111.919  0.00  0.00    +0.000 A 
ATOM     12  C12 UNL     1      73.883  65.828 112.215  0.00  0.00    +0.000 A 
ATOM     13  C13 UNL     1      73.244  66.828 111.265  0.00  0.00    +0.000 C 
ATOM     14  C14 UNL     1      73.015  66.302 109.840  0.00  0.00    +0.000 C 
ATOM     15  C15 UNL     1      72.403  64.889 109.926  0.00  0.00    +0.000 C 
ATOM     16  C16 UNL     1      73.361  63.893 110.602  0.00  0.00    +0.000 C 
ATOM     17  C30 UNL     1      74.382  66.284 113.461  0.00  0.00    +0.000 A 
ATOM     18  C31 UNL     1      74.938  65.373 114.386  0.00  0.00    +0.000 A 
ATOM     19  C32 UNL     1      75.517  65.841 115.682  0.00  0.00    +0.000 C 
ATOM     20  O11 UNL     1      75.419  67.048 116.031  0.00  0.00    +0.000 OA
ENDROOT
BRANCH   1  22
ATOM     21  C1  UNL     1      77.877  60.313 117.124  0.00  0.00    +0.000 C 
ATOM     22  O1  UNL     1      76.817  61.228 116.864  0.00  0.00    +0.000 OA
ENDBRANCH   1  22
BRANCH  10  23
ATOM     23  O3  UNL     1      74.618  62.205 112.449  0.00  0.00    +0.000 OA
ATOM     24  H7  UNL     1      74.134  61.796 111.660  0.00  0.00    +0.000 HD
ENDBRANCH  10  23
BRANCH  14  25
ATOM     25  O4  UNL     1      74.261  66.261 109.178  0.00  0.00    +0.000 OA
ATOM     26  H10 UNL     1      74.156  65.705 108.362  0.00  0.00    +0.000 HD
ENDBRANCH  14  25
BRANCH  14  27
ATOM     27  C28 UNL     1      72.062  67.248 109.112  0.00  0.00    +0.000 C 
ATOM     28  O9  UNL     1      72.511  68.035 108.290  0.00  0.00    +0.000 OA
BRANCH  27  29
ATOM     29  C29 UNL     1      70.581  67.257 109.407  0.00  0.00    +0.000 C 
BRANCH  29  30
ATOM     30  O10 UNL     1      69.828  67.210 108.225  0.00  0.00    +0.000 OA
ATOM     31  H36 UNL     1      70.432  67.508 107.495  0.00  0.00    +0.000 HD
ENDBRANCH  29  30
ENDBRANCH  27  29
ENDBRANCH  14  27
BRANCH  17  32
ATOM     32  O12 UNL     1      74.315  67.639 113.809  0.00  0.00    +0.000 OA
ATOM     33  H37 UNL     1      74.383  68.407 113.155  0.00  0.00    +0.000 HD
ENDBRANCH  17  32
BRANCH  16  34
ATOM     34  O5  UNL     1      74.451  63.624 109.729  0.00  0.00    +0.000 OA
BRANCH  34  35
ATOM     35  C17 UNL     1      74.106  62.805 108.621  0.00  0.00    +0.000 C 
ATOM     36  C18 UNL     1      75.367  62.412 107.824  0.00  0.00    +0.000 C 
ATOM     37  C19 UNL     1      75.039  61.482 106.633  0.00  0.00    +0.000 C 
ATOM     38  C20 UNL     1      73.626  60.874 106.760  0.00  0.00    +0.000 C 
ATOM     39  C26 UNL     1      73.294  60.567 108.246  0.00  0.00    +0.000 C 
ATOM     40  C27 UNL     1      74.091  59.373 108.791  0.00  0.00    +0.000 C 
ATOM     41  O8  UNL     1      73.445  61.663 109.145  0.00  0.00    +0.000 OA
BRANCH  37  42
ATOM     42  N1  UNL     1      75.160  62.212 105.366  0.00  0.00    +0.000 NA
ATOM     43  H18 UNL     1      76.015  61.868 104.871  0.00  0.00    +0.000 HD
ATOM     44  H19 UNL     1      74.359  61.938 104.751  0.00  0.00    +0.000 HD
ENDBRANCH  37  42
BRANCH  38  45
ATOM     45  O6  UNL     1      73.562  59.677 105.992  0.00  0.00    +0.000 OA
BRANCH  45  46
ATOM     46  C21 UNL     1      72.312  59.521 105.338  0.00  0.00    +0.000 C 
ATOM     47  C22 UNL     1      71.621  60.900 105.193  0.00  0.00    +0.000 C 
ATOM     48  C23 UNL     1      71.408  61.279 103.728  0.00  0.00    +0.000 C 
ATOM     49  C24 UNL     1      72.692  61.046 102.938  0.00  0.00    +0.000 C 
ATOM     50  C25 UNL     1      73.264  59.637 103.196  0.00  0.00    +0.000 C 
ATOM     51  O7  UNL     1      72.469  58.868 104.085  0.00  0.00    +0.000 OA
ENDBRANCH  45  46
ENDBRANCH  38  45
ENDBRANCH  34  35
ENDBRANCH  16  34
TORSDOF 12
ENDMDL
MODEL 10
REMARK VINA RESULT:      -7.1      2.364      9.722
REMARK  Name = ./S1393.pdb
REMARK  14 active torsions:
REMARK  status: ('A' for Active; 'I' for Inactive)
REMARK    1  A    between atoms: C1_1  and  O1_2
REMARK    2  A    between atoms: O1_2  and  C2_3
REMARK    3  A    between atoms: C10_12  and  O3_13
REMARK    4  A    between atoms: C14_17  and  O4_18
REMARK    5  A    between atoms: C14_17  and  C28_37
REMARK    6  A    between atoms: C16_20  and  O5_21
REMARK    7  A    between atoms: O5_21  and  C17_22
REMARK    8  A    between atoms: C19_24  and  N1_25
REMARK    9  A    between atoms: C20_26  and  O6_27
REMARK   10  A    between atoms: O6_27  and  C21_28
REMARK   11  A    between atoms: C26_34  and  C27_35
REMARK   12  A    between atoms: C28_37  and  C29_39
REMARK   13  A    between atoms: C29_39  and  O10_40
REMARK   14  A    between atoms: C30_41  and  O12_45
REMARK                            x       y       z     vdW  Elec       q    Type
REMARK                         _______ _______ _______ _____ _____    ______ ____
ROOT
ATOM      1  C2  UNL     1      77.157  61.665 115.223  0.00  0.00    +0.000 A 
ATOM      2  C3  UNL     1      77.885  61.989 116.383  0.00  0.00    +0.000 A 
ATOM      3  C4  UNL     1      77.750  63.243 116.977  0.00  0.00    +0.000 A 
ATOM      4  C5  UNL     1      76.895  64.193 116.423  0.00  0.00    +0.000 A 
ATOM      5  C6  UNL     1      76.161  63.898 115.263  0.00  0.00    +0.000 A 
ATOM      6  C7  UNL     1      76.280  62.628 114.665  0.00  0.00    +0.000 A 
ATOM      7  C8  UNL     1      75.449  62.324 113.475  0.00  0.00    +0.000 C 
ATOM      8  O2  UNL     1      75.188  61.124 113.193  0.00  0.00    +0.000 OA
ATOM      9  C9  UNL     1      74.822  63.430 112.698  0.00  0.00    +0.000 A 
ATOM     10  C10 UNL     1      74.333  63.230 111.386  0.00  0.00    +0.000 A 
ATOM     11  C11 UNL     1      73.558  64.221 110.750  0.00  0.00    +0.000 A 
ATOM     12  C12 UNL     1      73.367  65.474 111.385  0.00  0.00    +0.000 A 
ATOM     13  C13 UNL     1      72.517  66.560 110.745  0.00  0.00    +0.000 C 
ATOM     14  C14 UNL     1      72.253  66.365 109.244  0.00  0.00    +0.000 C 
ATOM     15  C15 UNL     1      71.857  64.894 108.998  0.00  0.00    +0.000 C 
ATOM     16  C16 UNL     1      72.999  63.929 109.361  0.00  0.00    +0.000 C 
ATOM     17  C30 UNL     1      73.893  65.689 112.683  0.00  0.00    +0.000 A 
ATOM     18  C31 UNL     1      74.646  64.681 113.326  0.00  0.00    +0.000 A 
ATOM     19  C32 UNL     1      75.253  64.908 114.673  0.00  0.00    +0.000 C 
ATOM     20  O11 UNL     1      75.012  65.964 115.317  0.00  0.00    +0.000 OA
ENDROOT
BRANCH   1  22
ATOM     21  C1  UNL     1      78.498  59.909 114.041  0.00  0.00    +0.000 C 
ATOM     22  O1  UNL     1      77.290  60.411 114.604  0.00  0.00    +0.000 OA
ENDBRANCH   1  22
BRANCH  10  23
ATOM     23  O3  UNL     1      74.628  62.066 110.671  0.00  0.00    +0.000 OA
ATOM     24  H7  UNL     1      75.520  61.889 110.228  0.00  0.00    +0.000 HD
ENDBRANCH  10  23
BRANCH  14  25
ATOM     25  O4  UNL     1      73.435  66.682 108.541  0.00  0.00    +0.000 OA
ATOM     26  H10 UNL     1      73.480  67.670 108.448  0.00  0.00    +0.000 HD
ENDBRANCH  14  25
BRANCH  14  27
ATOM     27  C28 UNL     1      71.119  67.295 108.817  0.00  0.00    +0.000 C 
ATOM     28  O9  UNL     1      70.161  67.452 109.560  0.00  0.00    +0.000 OA
BRANCH  27  29
ATOM     29  C29 UNL     1      71.139  68.001 107.481  0.00  0.00    +0.000 C 
BRANCH  29  30
ATOM     30  O10 UNL     1      71.336  67.093 106.431  0.00  0.00    +0.000 OA
ATOM     31  H36 UNL     1      72.300  66.857 106.441  0.00  0.00    +0.000 HD
ENDBRANCH  29  30
ENDBRANCH  27  29
ENDBRANCH  14  27
BRANCH  17  32
ATOM     32  O12 UNL     1      73.660  66.891 113.364  0.00  0.00    +0.000 OA
ATOM     33  H37 UNL     1      73.288  67.730 112.940  0.00  0.00    +0.000 HD
ENDBRANCH  17  32
BRANCH  16  34
ATOM     34  O5  UNL     1      74.043  64.055 108.404  0.00  0.00    +0.000 OA
BRANCH  34  35
ATOM     35  C17 UNL     1      73.757  63.428 107.162  0.00  0.00    +0.000 C 
ATOM     36  C18 UNL     1      73.192  62.011 107.388  0.00  0.00    +0.000 C 
ATOM     37  C19 UNL     1      72.825  61.310 106.060  0.00  0.00    +0.000 C 
ATOM     38  C20 UNL     1      72.747  62.314 104.890  0.00  0.00    +0.000 C 
ATOM     39  C26 UNL     1      72.161  63.670 105.371  0.00  0.00    +0.000 C 
ATOM     40  C27 UNL     1      70.660  63.585 105.682  0.00  0.00    +0.000 C 
ATOM     41  O8  UNL     1      72.824  64.259 106.488  0.00  0.00    +0.000 OA
BRANCH  37  42
ATOM     42  N1  UNL     1      73.798  60.256 105.752  0.00  0.00    +0.000 NA
ATOM     43  H18 UNL     1      73.481  59.373 106.215  0.00  0.00    +0.000 HD
ATOM     44  H19 UNL     1      73.754  60.057 104.727  0.00  0.00    +0.000 HD
ENDBRANCH  37  42
BRANCH  38  45
ATOM     45  O6  UNL     1      71.927  61.771 103.862  0.00  0.00    +0.000 OA
BRANCH  45  46
ATOM     46  C21 UNL     1      72.384  62.121 102.564  0.00  0.00    +0.000 C 
ATOM     47  C22 UNL     1      72.397  60.866 101.657  0.00  0.00    +0.000 C 
ATOM     48  C23 UNL     1      71.451  61.015 100.466  0.00  0.00    +0.000 C 
ATOM     49  C24 UNL     1      70.095  61.530 100.939  0.00  0.00    +0.000 C 
ATOM     50  C25 UNL     1      70.248  62.772 101.840  0.00  0.00    +0.000 C 
ATOM     51  O7  UNL     1      71.599  63.171 102.013  0.00  0.00    +0.000 OA
ENDBRANCH  45  46
ENDBRANCH  38  45
ENDBRANCH  34  35
ENDBRANCH  16  34
TORSDOF 12
ENDMDL
MODEL 11
REMARK VINA RESULT:      -7.1      6.233     10.144
REMARK  Name = ./S1393.pdb
REMARK  14 active torsions:
REMARK  status: ('A' for Active; 'I' for Inactive)
REMARK    1  A    between atoms: C1_1  and  O1_2
REMARK    2  A    between atoms: O1_2  and  C2_3
REMARK    3  A    between atoms: C10_12  and  O3_13
REMARK    4  A    between atoms: C14_17  and  O4_18
REMARK    5  A    between atoms: C14_17  and  C28_37
REMARK    6  A    between atoms: C16_20  and  O5_21
REMARK    7  A    between atoms: O5_21  and  C17_22
REMARK    8  A    between atoms: C19_24  and  N1_25
REMARK    9  A    between atoms: C20_26  and  O6_27
REMARK   10  A    between atoms: O6_27  and  C21_28
REMARK   11  A    between atoms: C26_34  and  C27_35
REMARK   12  A    between atoms: C28_37  and  C29_39
REMARK   13  A    between atoms: C29_39  and  O10_40
REMARK   14  A    between atoms: C30_41  and  O12_45
REMARK                            x       y       z     vdW  Elec       q    Type
REMARK                         _______ _______ _______ _____ _____    ______ ____
ROOT
ATOM      1  C2  UNL     1      68.228  73.812 107.821  0.00  0.00    +0.000 A 
ATOM      2  C3  UNL     1      67.638  75.032 108.201  0.00  0.00    +0.000 A 
ATOM      3  C4  UNL     1      68.415  76.054 108.743  0.00  0.00    +0.000 A 
ATOM      4  C5  UNL     1      69.785  75.876 108.921  0.00  0.00    +0.000 A 
ATOM      5  C6  UNL     1      70.398  74.667 108.555  0.00  0.00    +0.000 A 
ATOM      6  C7  UNL     1      69.624  73.633 107.993  0.00  0.00    +0.000 A 
ATOM      7  C8  UNL     1      70.306  72.390 107.562  0.00  0.00    +0.000 C 
ATOM      8  O2  UNL     1      69.770  71.662 106.684  0.00  0.00    +0.000 OA
ATOM      9  C9  UNL     1      71.672  72.073 108.066  0.00  0.00    +0.000 A 
ATOM     10  C10 UNL     1      72.211  70.768 107.979  0.00  0.00    +0.000 A 
ATOM     11  C11 UNL     1      73.571  70.533 108.264  0.00  0.00    +0.000 A 
ATOM     12  C12 UNL     1      74.377  71.592 108.754  0.00  0.00    +0.000 A 
ATOM     13  C13 UNL     1      75.855  71.385 109.048  0.00  0.00    +0.000 C 
ATOM     14  C14 UNL     1      76.282  69.915 109.178  0.00  0.00    +0.000 C 
ATOM     15  C15 UNL     1      75.655  69.113 108.020  0.00  0.00    +0.000 C 
ATOM     16  C16 UNL     1      74.117  69.119 108.090  0.00  0.00    +0.000 C 
ATOM     17  C30 UNL     1      73.825  72.890 108.881  0.00  0.00    +0.000 A 
ATOM     18  C31 UNL     1      72.467  73.125 108.568  0.00  0.00    +0.000 A 
ATOM     19  C32 UNL     1      71.854  74.476 108.745  0.00  0.00    +0.000 C 
ATOM     20  O11 UNL     1      72.563  75.467 109.070  0.00  0.00    +0.000 OA
ENDROOT
BRANCH   1  22
ATOM     21  C1  UNL     1      66.107  72.490 107.635  0.00  0.00    +0.000 C 
ATOM     22  O1  UNL     1      67.460  72.765 107.285  0.00  0.00    +0.000 OA
ENDBRANCH   1  22
BRANCH  10  23
ATOM     23  O3  UNL     1      71.410  69.673 107.643  0.00  0.00    +0.000 OA
ATOM     24  H7  UNL     1      71.177  68.928 108.286  0.00  0.00    +0.000 HD
ENDBRANCH  10  23
BRANCH  14  25
ATOM     25  O4  UNL     1      75.825  69.429 110.421  0.00  0.00    +0.000 OA
ATOM     26  H10 UNL     1      74.903  69.770 110.562  0.00  0.00    +0.000 HD
ENDBRANCH  14  25
BRANCH  14  27
ATOM     27  C28 UNL     1      77.806  69.837 109.109  0.00  0.00    +0.000 C 
ATOM     28  O9  UNL     1      78.332  69.016 108.371  0.00  0.00    +0.000 OA
BRANCH  27  29
ATOM     29  C29 UNL     1      78.681  70.730 109.958  0.00  0.00    +0.000 C 
BRANCH  29  30
ATOM     30  O10 UNL     1      78.858  70.194 111.241  0.00  0.00    +0.000 OA
ATOM     31  H36 UNL     1      77.952  70.114 111.640  0.00  0.00    +0.000 HD
ENDBRANCH  29  30
ENDBRANCH  27  29
ENDBRANCH  14  27
BRANCH  17  32
ATOM     32  O12 UNL     1      74.615  73.970 109.296  0.00  0.00    +0.000 OA
ATOM     33  H37 UNL     1      75.380  74.363 108.763  0.00  0.00    +0.000 HD
ENDBRANCH  17  32
BRANCH  16  34
ATOM     34  O5  UNL     1      73.695  68.319 109.188  0.00  0.00    +0.000 OA
BRANCH  34  35
ATOM     35  C17 UNL     1      73.435  66.967 108.841  0.00  0.00    +0.000 C 
ATOM     36  C18 UNL     1      72.660  66.257 109.971  0.00  0.00    +0.000 C 
ATOM     37  C19 UNL     1      72.318  64.792 109.613  0.00  0.00    +0.000 C 
ATOM     38  C20 UNL     1      72.485  64.522 108.102  0.00  0.00    +0.000 C 
ATOM     39  C26 UNL     1      72.053  65.764 107.274  0.00  0.00    +0.000 C 
ATOM     40  C27 UNL     1      70.533  65.980 107.288  0.00  0.00    +0.000 C 
ATOM     41  O8  UNL     1      72.689  66.988 107.633  0.00  0.00    +0.000 OA
BRANCH  37  42
ATOM     42  N1  UNL     1      73.158  63.869 110.383  0.00  0.00    +0.000 NA
ATOM     43  H18 UNL     1      73.913  64.424 110.850  0.00  0.00    +0.000 HD
ATOM     44  H19 UNL     1      72.585  63.476 111.165  0.00  0.00    +0.000 HD
ENDBRANCH  37  42
BRANCH  38  45
ATOM     45  O6  UNL     1      71.691  63.399 107.739  0.00  0.00    +0.000 OA
BRANCH  45  46
ATOM     46  C21 UNL     1      72.251  62.669 106.657  0.00  0.00    +0.000 C 
ATOM     47  C22 UNL     1      72.170  61.151 106.952  0.00  0.00    +0.000 C 
ATOM     48  C23 UNL     1      71.310  60.416 105.924  0.00  0.00    +0.000 C 
ATOM     49  C24 UNL     1      69.998  61.166 105.712  0.00  0.00    +0.000 C 
ATOM     50  C25 UNL     1      70.243  62.665 105.442  0.00  0.00    +0.000 C 
ATOM     51  O7  UNL     1      71.619  63.009 105.429  0.00  0.00    +0.000 OA
ENDBRANCH  45  46
ENDBRANCH  38  45
ENDBRANCH  34  35
ENDBRANCH  16  34
TORSDOF 12
ENDMDL
MODEL 12
REMARK VINA RESULT:      -7.1     12.520     13.688
REMARK  Name = ./S1393.pdb
REMARK  14 active torsions:
REMARK  status: ('A' for Active; 'I' for Inactive)
REMARK    1  A    between atoms: C1_1  and  O1_2
REMARK    2  A    between atoms: O1_2  and  C2_3
REMARK    3  A    between atoms: C10_12  and  O3_13
REMARK    4  A    between atoms: C14_17  and  O4_18
REMARK    5  A    between atoms: C14_17  and  C28_37
REMARK    6  A    between atoms: C16_20  and  O5_21
REMARK    7  A    between atoms: O5_21  and  C17_22
REMARK    8  A    between atoms: C19_24  and  N1_25
REMARK    9  A    between atoms: C20_26  and  O6_27
REMARK   10  A    between atoms: O6_27  and  C21_28
REMARK   11  A    between atoms: C26_34  and  C27_35
REMARK   12  A    between atoms: C28_37  and  C29_39
REMARK   13  A    between atoms: C29_39  and  O10_40
REMARK   14  A    between atoms: C30_41  and  O12_45
REMARK                            x       y       z     vdW  Elec       q    Type
REMARK                         _______ _______ _______ _____ _____    ______ ____
ROOT
ATOM      1  C2  UNL     1      65.844  55.462 105.025  0.00  0.00    +0.000 A 
ATOM      2  C3  UNL     1      65.804  55.071 103.673  0.00  0.00    +0.000 A 
ATOM      3  C4  UNL     1      65.035  55.781 102.753  0.00  0.00    +0.000 A 
ATOM      4  C5  UNL     1      64.291  56.885 103.164  0.00  0.00    +0.000 A 
ATOM      5  C6  UNL     1      64.308  57.293 104.508  0.00  0.00    +0.000 A 
ATOM      6  C7  UNL     1      65.094  56.590 105.442  0.00  0.00    +0.000 A 
ATOM      7  C8  UNL     1      65.140  57.079 106.840  0.00  0.00    +0.000 C 
ATOM      8  O2  UNL     1      66.126  56.784 107.567  0.00  0.00    +0.000 OA
ATOM      9  C9  UNL     1      64.095  58.016 107.340  0.00  0.00    +0.000 A 
ATOM     10  C10 UNL     1      63.886  58.225 108.724  0.00  0.00    +0.000 A 
ATOM     11  C11 UNL     1      63.046  59.264 109.173  0.00  0.00    +0.000 A 
ATOM     12  C12 UNL     1      62.314  60.030 108.231  0.00  0.00    +0.000 A 
ATOM     13  C13 UNL     1      61.417  61.176 108.674  0.00  0.00    +0.000 C 
ATOM     14  C14 UNL     1      61.051  61.162 110.166  0.00  0.00    +0.000 C 
ATOM     15  C15 UNL     1      62.326  60.880 110.986  0.00  0.00    +0.000 C 
ATOM     16  C16 UNL     1      62.908  59.490 110.676  0.00  0.00    +0.000 C 
ATOM     17  C30 UNL     1      62.492  59.791 106.845  0.00  0.00    +0.000 A 
ATOM     18  C31 UNL     1      63.356  58.766 106.401  0.00  0.00    +0.000 A 
ATOM     19  C32 UNL     1      63.516  58.465 104.946  0.00  0.00    +0.000 C 
ATOM     20  O11 UNL     1      62.971  59.195 104.074  0.00  0.00    +0.000 OA
ENDROOT
BRANCH   1  22
ATOM     21  C1  UNL     1      67.277  53.524 105.709  0.00  0.00    +0.000 C 
ATOM     22  O1  UNL     1      66.603  54.751 105.969  0.00  0.00    +0.000 OA
ENDBRANCH   1  22
BRANCH  10  23
ATOM     23  O3  UNL     1      64.475  57.395 109.681  0.00  0.00    +0.000 OA
ATOM     24  H7  UNL     1      65.420  57.513 110.022  0.00  0.00    +0.000 HD
ENDBRANCH  10  23
BRANCH  14  25
ATOM     25  O4  UNL     1      60.093  60.148 110.377  0.00  0.00    +0.000 OA
ATOM     26  H10 UNL     1      59.841  60.160 111.337  0.00  0.00    +0.000 HD
ENDBRANCH  14  25
BRANCH  14  27
ATOM     27  C28 UNL     1      60.470  62.523 110.543  0.00  0.00    +0.000 C 
ATOM     28  O9  UNL     1      61.188  63.513 110.507  0.00  0.00    +0.000 OA
BRANCH  27  29
ATOM     29  C29 UNL     1      59.035  62.672 110.993  0.00  0.00    +0.000 C 
BRANCH  29  30
ATOM     30  O10 UNL     1      58.145  62.342 109.961  0.00  0.00    +0.000 OA
ATOM     31  H36 UNL     1      57.996  63.175 109.441  0.00  0.00    +0.000 HD
ENDBRANCH  29  30
ENDBRANCH  27  29
ENDBRANCH  14  27
BRANCH  17  32
ATOM     32  O12 UNL     1      61.835  60.578 105.890  0.00  0.00    +0.000 OA
ATOM     33  H37 UNL     1      61.636  61.564 105.994  0.00  0.00    +0.000 HD
ENDBRANCH  17  32
BRANCH  16  34
ATOM     34  O5  UNL     1      62.052  58.491 111.219  0.00  0.00    +0.000 OA
BRANCH  34  35
ATOM     35  C17 UNL     1      62.026  58.474 112.639  0.00  0.00    +0.000 C 
ATOM     36  C18 UNL     1      63.058  59.468 113.211  0.00  0.00    +0.000 C 
ATOM     37  C19 UNL     1      63.030  59.512 114.757  0.00  0.00    +0.000 C 
ATOM     38  C20 UNL     1      61.748  58.863 115.321  0.00  0.00    +0.000 C 
ATOM     39  C26 UNL     1      60.532  59.163 114.401  0.00  0.00    +0.000 C 
ATOM     40  C27 UNL     1      60.084  60.629 114.479  0.00  0.00    +0.000 C 
ATOM     41  O8  UNL     1      60.704  58.813 113.029  0.00  0.00    +0.000 OA
BRANCH  37  42
ATOM     42  N1  UNL     1      64.214  58.845 115.308  0.00  0.00    +0.000 NA
ATOM     43  H18 UNL     1      64.371  59.206 116.278  0.00  0.00    +0.000 HD
ATOM     44  H19 UNL     1      63.995  57.830 115.428  0.00  0.00    +0.000 HD
ENDBRANCH  37  42
BRANCH  38  45
ATOM     45  O6  UNL     1      61.502  59.371 116.627  0.00  0.00    +0.000 OA
BRANCH  45  46
ATOM     46  C21 UNL     1      60.950  58.391 117.493  0.00  0.00    +0.000 C 
ATOM     47  C22 UNL     1      61.148  56.982 116.882  0.00  0.00    +0.000 C 
ATOM     48  C23 UNL     1      62.015  56.092 117.774  0.00  0.00    +0.000 C 
ATOM     49  C24 UNL     1      63.262  56.852 118.214  0.00  0.00    +0.000 C 
ATOM     50  C25 UNL     1      62.902  58.239 118.787  0.00  0.00    +0.000 C 
ATOM     51  O7  UNL     1      61.507  58.491 118.799  0.00  0.00    +0.000 OA
ENDBRANCH  45  46
ENDBRANCH  38  45
ENDBRANCH  34  35
ENDBRANCH  16  34
TORSDOF 12
ENDMDL
MODEL 13
REMARK VINA RESULT:      -7.1      4.104      7.019
REMARK  Name = ./S1393.pdb
REMARK  14 active torsions:
REMARK  status: ('A' for Active; 'I' for Inactive)
REMARK    1  A    between atoms: C1_1  and  O1_2
REMARK    2  A    between atoms: O1_2  and  C2_3
REMARK    3  A    between atoms: C10_12  and  O3_13
REMARK    4  A    between atoms: C14_17  and  O4_18
REMARK    5  A    between atoms: C14_17  and  C28_37
REMARK    6  A    between atoms: C16_20  and  O5_21
REMARK    7  A    between atoms: O5_21  and  C17_22
REMARK    8  A    between atoms: C19_24  and  N1_25
REMARK    9  A    between atoms: C20_26  and  O6_27
REMARK   10  A    between atoms: O6_27  and  C21_28
REMARK   11  A    between atoms: C26_34  and  C27_35
REMARK   12  A    between atoms: C28_37  and  C29_39
REMARK   13  A    between atoms: C29_39  and  O10_40
REMARK   14  A    between atoms: C30_41  and  O12_45
REMARK                            x       y       z     vdW  Elec       q    Type
REMARK                         _______ _______ _______ _____ _____    ______ ____
ROOT
ATOM      1  C2  UNL     1      80.376  62.352 105.474  0.00  0.00    +0.000 A 
ATOM      2  C3  UNL     1      80.844  61.568 104.402  0.00  0.00    +0.000 A 
ATOM      3  C4  UNL     1      80.005  61.260 103.332  0.00  0.00    +0.000 A 
ATOM      4  C5  UNL     1      78.691  61.721 103.315  0.00  0.00    +0.000 A 
ATOM      5  C6  UNL     1      78.197  62.500 104.374  0.00  0.00    +0.000 A 
ATOM      6  C7  UNL     1      79.041  62.828 105.453  0.00  0.00    +0.000 A 
ATOM      7  C8  UNL     1      78.512  63.701 106.528  0.00  0.00    +0.000 C 
ATOM      8  O2  UNL     1      79.314  64.364 107.238  0.00  0.00    +0.000 OA
ATOM      9  C9  UNL     1      77.042  63.892 106.681  0.00  0.00    +0.000 A 
ATOM     10  C10 UNL     1      76.481  64.406 107.873  0.00  0.00    +0.000 A 
ATOM     11  C11 UNL     1      75.122  64.776 107.925  0.00  0.00    +0.000 A 
ATOM     12  C12 UNL     1      74.284  64.522 106.809  0.00  0.00    +0.000 A 
ATOM     13  C13 UNL     1      72.819  64.929 106.815  0.00  0.00    +0.000 C 
ATOM     14  C14 UNL     1      72.244  65.230 108.208  0.00  0.00    +0.000 C 
ATOM     15  C15 UNL     1      73.246  66.114 108.978  0.00  0.00    +0.000 C 
ATOM     16  C16 UNL     1      74.582  65.388 109.214  0.00  0.00    +0.000 C 
ATOM     17  C30 UNL     1      74.839  63.967 105.629  0.00  0.00    +0.000 A 
ATOM     18  C31 UNL     1      76.208  63.623 105.575  0.00  0.00    +0.000 A 
ATOM     19  C32 UNL     1      76.800  62.989 104.358  0.00  0.00    +0.000 C 
ATOM     20  O11 UNL     1      76.116  62.850 103.308  0.00  0.00    +0.000 OA
ENDROOT
BRANCH   1  22
ATOM     21  C1  UNL     1      82.150  61.769 107.146  0.00  0.00    +0.000 C 
ATOM     22  O1  UNL     1      81.202  62.661 106.567  0.00  0.00    +0.000 OA
ENDBRANCH   1  22
BRANCH  10  23
ATOM     23  O3  UNL     1      77.242  64.532 109.039  0.00  0.00    +0.000 OA
ATOM     24  H7  UNL     1      78.230  64.748 109.044  0.00  0.00    +0.000 HD
ENDBRANCH  10  23
BRANCH  14  25
ATOM     25  O4  UNL     1      72.049  64.004 108.880  0.00  0.00    +0.000 OA
ATOM     26  H10 UNL     1      71.317  64.130 109.539  0.00  0.00    +0.000 HD
ENDBRANCH  14  25
BRANCH  14  27
ATOM     27  C28 UNL     1      70.912  65.959 108.045  0.00  0.00    +0.000 C 
ATOM     28  O9  UNL     1      70.048  65.476 107.326  0.00  0.00    +0.000 OA
BRANCH  27  29
ATOM     29  C29 UNL     1      70.649  67.283 108.724  0.00  0.00    +0.000 C 
BRANCH  29  30
ATOM     30  O10 UNL     1      70.202  67.097 110.040  0.00  0.00    +0.000 OA
ATOM     31  H36 UNL     1      70.341  66.137 110.251  0.00  0.00    +0.000 HD
ENDBRANCH  29  30
ENDBRANCH  27  29
ENDBRANCH  14  27
BRANCH  17  32
ATOM     32  O12 UNL     1      74.051  63.769 104.488  0.00  0.00    +0.000 OA
ATOM     33  H37 UNL     1      74.116  62.969 103.873  0.00  0.00    +0.000 HD
ENDBRANCH  17  32
BRANCH  16  34
ATOM     34  O5  UNL     1      74.392  64.357 110.174  0.00  0.00    +0.000 OA
BRANCH  34  35
ATOM     35  C17 UNL     1      74.508  64.800 111.518  0.00  0.00    +0.000 C 
ATOM     36  C18 UNL     1      73.210  64.506 112.299  0.00  0.00    +0.000 C 
ATOM     37  C19 UNL     1      73.311  64.934 113.781  0.00  0.00    +0.000 C 
ATOM     38  C20 UNL     1      74.775  65.184 114.203  0.00  0.00    +0.000 C 
ATOM     39  C26 UNL     1      75.726  64.174 113.502  0.00  0.00    +0.000 C 
ATOM     40  C27 UNL     1      75.582  62.750 114.057  0.00  0.00    +0.000 C 
ATOM     41  O8  UNL     1      75.620  64.121 112.081  0.00  0.00    +0.000 OA
BRANCH  37  42
ATOM     42  N1  UNL     1      72.508  66.137 114.021  0.00  0.00    +0.000 NA
ATOM     43  H18 UNL     1      71.499  65.861 114.031  0.00  0.00    +0.000 HD
ATOM     44  H19 UNL     1      72.706  66.478 114.990  0.00  0.00    +0.000 HD
ENDBRANCH  37  42
BRANCH  38  45
ATOM     45  O6  UNL     1      74.884  65.050 115.615  0.00  0.00    +0.000 OA
BRANCH  45  46
ATOM     46  C21 UNL     1      75.692  66.065 116.192  0.00  0.00    +0.000 C 
ATOM     47  C22 UNL     1      75.557  67.372 115.373  0.00  0.00    +0.000 C 
ATOM     48  C23 UNL     1      74.972  68.510 116.209  0.00  0.00    +0.000 C 
ATOM     49  C24 UNL     1      73.742  68.022 116.967  0.00  0.00    +0.000 C 
ATOM     50  C25 UNL     1      74.031  66.707 117.721  0.00  0.00    +0.000 C 
ATOM     51  O7  UNL     1      75.368  66.258 117.564  0.00  0.00    +0.000 OA
ENDBRANCH  45  46
ENDBRANCH  38  45
ENDBRANCH  34  35
ENDBRANCH  16  34
TORSDOF 12
ENDMDL
MODEL 14
REMARK VINA RESULT:      -7.0      4.272      9.845
REMARK  Name = ./S1393.pdb
REMARK  14 active torsions:
REMARK  status: ('A' for Active; 'I' for Inactive)
REMARK    1  A    between atoms: C1_1  and  O1_2
REMARK    2  A    between atoms: O1_2  and  C2_3
REMARK    3  A    between atoms: C10_12  and  O3_13
REMARK    4  A    between atoms: C14_17  and  O4_18
REMARK    5  A    between atoms: C14_17  and  C28_37
REMARK    6  A    between atoms: C16_20  and  O5_21
REMARK    7  A    between atoms: O5_21  and  C17_22
REMARK    8  A    between atoms: C19_24  and  N1_25
REMARK    9  A    between atoms: C20_26  and  O6_27
REMARK   10  A    between atoms: O6_27  and  C21_28
REMARK   11  A    between atoms: C26_34  and  C27_35
REMARK   12  A    between atoms: C28_37  and  C29_39
REMARK   13  A    between atoms: C29_39  and  O10_40
REMARK   14  A    between atoms: C30_41  and  O12_45
REMARK                            x       y       z     vdW  Elec       q    Type
REMARK                         _______ _______ _______ _____ _____    ______ ____
ROOT
ATOM      1  C2  UNL     1      75.659  67.132 110.878  0.00  0.00    +0.000 A 
ATOM      2  C3  UNL     1      75.256  67.553 112.160  0.00  0.00    +0.000 A 
ATOM      3  C4  UNL     1      74.722  66.640 113.068  0.00  0.00    +0.000 A 
ATOM      4  C5  UNL     1      74.575  65.301 112.713  0.00  0.00    +0.000 A 
ATOM      5  C6  UNL     1      74.963  64.857 111.439  0.00  0.00    +0.000 A 
ATOM      6  C7  UNL     1      75.518  65.769 110.520  0.00  0.00    +0.000 A 
ATOM      7  C8  UNL     1      75.974  65.261 109.204  0.00  0.00    +0.000 C 
ATOM      8  O2  UNL     1      76.847  65.903 108.561  0.00  0.00    +0.000 OA
ATOM      9  C9  UNL     1      75.502  63.937 108.709  0.00  0.00    +0.000 A 
ATOM     10  C10 UNL     1      75.611  63.573 107.346  0.00  0.00    +0.000 A 
ATOM     11  C11 UNL     1      75.358  62.249 106.935  0.00  0.00    +0.000 A 
ATOM     12  C12 UNL     1      74.876  61.304 107.876  0.00  0.00    +0.000 A 
ATOM     13  C13 UNL     1      74.615  59.859 107.478  0.00  0.00    +0.000 C 
ATOM     14  C14 UNL     1      74.507  59.622 105.963  0.00  0.00    +0.000 C 
ATOM     15  C15 UNL     1      75.658  60.371 105.261  0.00  0.00    +0.000 C 
ATOM     16  C16 UNL     1      75.555  61.893 105.465  0.00  0.00    +0.000 C 
ATOM     17  C30 UNL     1      74.726  61.682 109.233  0.00  0.00    +0.000 A 
ATOM     18  C31 UNL     1      75.008  63.003 109.644  0.00  0.00    +0.000 A 
ATOM     19  C32 UNL     1      74.807  63.434 111.060  0.00  0.00    +0.000 C 
ATOM     20  O11 UNL     1      74.489  62.597 111.948  0.00  0.00    +0.000 OA
ENDROOT
BRANCH   1  22
ATOM     21  C1  UNL     1      75.593  69.288 109.601  0.00  0.00    +0.000 C 
ATOM     22  O1  UNL     1      76.187  68.040 109.945  0.00  0.00    +0.000 OA
ENDBRANCH   1  22
BRANCH  10  23
ATOM     23  O3  UNL     1      75.940  64.515 106.367  0.00  0.00    +0.000 OA
ATOM     24  H7  UNL     1      76.816  64.518 105.862  0.00  0.00    +0.000 HD
ENDBRANCH  10  23
BRANCH  14  25
ATOM     25  O4  UNL     1      73.258  60.114 105.526  0.00  0.00    +0.000 OA
ATOM     26  H10 UNL     1      73.169  59.906 104.559  0.00  0.00    +0.000 HD
ENDBRANCH  14  25
BRANCH  14  27
ATOM     27  C28 UNL     1      74.608  58.123 105.691  0.00  0.00    +0.000 C 
ATOM     28  O9  UNL     1      75.710  57.592 105.660  0.00  0.00    +0.000 OA
BRANCH  27  29
ATOM     29  C29 UNL     1      73.380  57.284 105.425  0.00  0.00    +0.000 C 
BRANCH  29  30
ATOM     30  O10 UNL     1      72.813  57.596 104.182  0.00  0.00    +0.000 OA
ATOM     31  H36 UNL     1      73.254  58.431 103.873  0.00  0.00    +0.000 HD
ENDBRANCH  29  30
ENDBRANCH  27  29
ENDBRANCH  14  27
BRANCH  17  32
ATOM     32  O12 UNL     1      74.319  60.750 110.197  0.00  0.00    +0.000 OA
ATOM     33  H37 UNL     1      74.281  60.929 111.192  0.00  0.00    +0.000 HD
ENDBRANCH  17  32
BRANCH  16  34
ATOM     34  O5  UNL     1      74.455  62.393 104.713  0.00  0.00    +0.000 OA
BRANCH  34  35
ATOM     35  C17 UNL     1      73.661  63.333 105.422  0.00  0.00    +0.000 C 
ATOM     36  C18 UNL     1      73.308  64.534 104.520  0.00  0.00    +0.000 C 
ATOM     37  C19 UNL     1      72.404  65.560 105.242  0.00  0.00    +0.000 C 
ATOM     38  C20 UNL     1      71.772  64.963 106.518  0.00  0.00    +0.000 C 
ATOM     39  C26 UNL     1      71.421  63.465 106.304  0.00  0.00    +0.000 C 
ATOM     40  C27 UNL     1      70.226  63.270 105.361  0.00  0.00    +0.000 C 
ATOM     41  O8  UNL     1      72.496  62.644 105.852  0.00  0.00    +0.000 OA
BRANCH  37  42
ATOM     42  N1  UNL     1      73.168  66.766 105.578  0.00  0.00    +0.000 NA
ATOM     43  H18 UNL     1      72.538  67.419 106.098  0.00  0.00    +0.000 HD
ATOM     44  H19 UNL     1      73.914  66.504 106.263  0.00  0.00    +0.000 HD
ENDBRANCH  37  42
BRANCH  38  45
ATOM     45  O6  UNL     1      70.595  65.694 106.842  0.00  0.00    +0.000 OA
BRANCH  45  46
ATOM     46  C21 UNL     1      70.451  65.893 108.240  0.00  0.00    +0.000 C 
ATOM     47  C22 UNL     1      71.819  65.698 108.940  0.00  0.00    +0.000 C 
ATOM     48  C23 UNL     1      72.286  66.974 109.641  0.00  0.00    +0.000 C 
ATOM     49  C24 UNL     1      72.137  68.168 108.703  0.00  0.00    +0.000 C 
ATOM     50  C25 UNL     1      70.728  68.217 108.076  0.00  0.00    +0.000 C 
ATOM     51  O7  UNL     1      69.884  67.167 108.519  0.00  0.00    +0.000 OA
ENDBRANCH  45  46
ENDBRANCH  38  45
ENDBRANCH  34  35
ENDBRANCH  16  34
TORSDOF 12
ENDMDL
MODEL 15
REMARK VINA RESULT:      -7.0      1.939      3.490
REMARK  Name = ./S1393.pdb
REMARK  14 active torsions:
REMARK  status: ('A' for Active; 'I' for Inactive)
REMARK    1  A    between atoms: C1_1  and  O1_2
REMARK    2  A    between atoms: O1_2  and  C2_3
REMARK    3  A    between atoms: C10_12  and  O3_13
REMARK    4  A    between atoms: C14_17  and  O4_18
REMARK    5  A    between atoms: C14_17  and  C28_37
REMARK    6  A    between atoms: C16_20  and  O5_21
REMARK    7  A    between atoms: O5_21  and  C17_22
REMARK    8  A    between atoms: C19_24  and  N1_25
REMARK    9  A    between atoms: C20_26  and  O6_27
REMARK   10  A    between atoms: O6_27  and  C21_28
REMARK   11  A    between atoms: C26_34  and  C27_35
REMARK   12  A    between atoms: C28_37  and  C29_39
REMARK   13  A    between atoms: C29_39  and  O10_40
REMARK   14  A    between atoms: C30_41  and  O12_45
REMARK                            x       y       z     vdW  Elec       q    Type
REMARK                         _______ _______ _______ _____ _____    ______ ____
ROOT
ATOM      1  C2  UNL     1      72.676  63.220 107.549  0.00  0.00    +0.000 A 
ATOM      2  C3  UNL     1      71.584  63.809 106.884  0.00  0.00    +0.000 A 
ATOM      3  C4  UNL     1      70.921  64.901 107.443  0.00  0.00    +0.000 A 
ATOM      4  C5  UNL     1      71.328  65.416 108.671  0.00  0.00    +0.000 A 
ATOM      5  C6  UNL     1      72.411  64.843 109.358  0.00  0.00    +0.000 A 
ATOM      6  C7  UNL     1      73.097  63.749 108.794  0.00  0.00    +0.000 A 
ATOM      7  C8  UNL     1      74.272  63.202 109.513  0.00  0.00    +0.000 C 
ATOM      8  O2  UNL     1      75.149  62.564 108.870  0.00  0.00    +0.000 OA
ATOM      9  C9  UNL     1      74.481  63.516 110.954  0.00  0.00    +0.000 A 
ATOM     10  C10 UNL     1      75.357  62.753 111.761  0.00  0.00    +0.000 A 
ATOM     11  C11 UNL     1      75.703  63.189 113.056  0.00  0.00    +0.000 A 
ATOM     12  C12 UNL     1      75.074  64.338 113.599  0.00  0.00    +0.000 A 
ATOM     13  C13 UNL     1      75.437  64.855 114.982  0.00  0.00    +0.000 C 
ATOM     14  C14 UNL     1      76.180  63.844 115.869  0.00  0.00    +0.000 C 
ATOM     15  C15 UNL     1      77.288  63.171 115.032  0.00  0.00    +0.000 C 
ATOM     16  C16 UNL     1      76.705  62.365 113.858  0.00  0.00    +0.000 C 
ATOM     17  C30 UNL     1      74.163  65.078 112.805  0.00  0.00    +0.000 A 
ATOM     18  C31 UNL     1      73.842  64.651 111.497  0.00  0.00    +0.000 A 
ATOM     19  C32 UNL     1      72.844  65.389 110.665  0.00  0.00    +0.000 C 
ATOM     20  O11 UNL     1      72.349  66.476 111.067  0.00  0.00    +0.000 OA
ENDROOT
BRANCH   1  22
ATOM     21  C1  UNL     1      73.640  61.936 105.624  0.00  0.00    +0.000 C 
ATOM     22  O1  UNL     1      73.349  62.112 107.007  0.00  0.00    +0.000 OA
ENDBRANCH   1  22
BRANCH  10  23
ATOM     23  O3  UNL     1      75.881  61.537 111.314  0.00  0.00    +0.000 OA
ATOM     24  H7  UNL     1      76.152  61.360 110.356  0.00  0.00    +0.000 HD
ENDBRANCH  10  23
BRANCH  14  25
ATOM     25  O4  UNL     1      75.250  62.883 116.320  0.00  0.00    +0.000 OA
ATOM     26  H10 UNL     1      75.456  62.681 117.270  0.00  0.00    +0.000 HD
ENDBRANCH  14  25
BRANCH  14  27
ATOM     27  C28 UNL     1      76.791  64.585 117.056  0.00  0.00    +0.000 C 
ATOM     28  O9  UNL     1      76.565  65.779 117.199  0.00  0.00    +0.000 OA
BRANCH  27  29
ATOM     29  C29 UNL     1      77.697  63.885 118.042  0.00  0.00    +0.000 C 
BRANCH  29  30
ATOM     30  O10 UNL     1      77.135  62.675 118.475  0.00  0.00    +0.000 OA
ATOM     31  H36 UNL     1      76.338  62.914 119.018  0.00  0.00    +0.000 HD
ENDBRANCH  29  30
ENDBRANCH  27  29
ENDBRANCH  14  27
BRANCH  17  32
ATOM     32  O12 UNL     1      73.580  66.256 113.289  0.00  0.00    +0.000 OA
ATOM     33  H37 UNL     1      73.755  66.653 114.203  0.00  0.00    +0.000 HD
ENDBRANCH  17  32
BRANCH  16  34
ATOM     34  O5  UNL     1      76.054  61.205 114.364  0.00  0.00    +0.000 OA
BRANCH  34  35
ATOM     35  C17 UNL     1      76.949  60.174 114.754  0.00  0.00    +0.000 C 
ATOM     36  C18 UNL     1      78.200  60.171 113.851  0.00  0.00    +0.000 C 
ATOM     37  C19 UNL     1      79.221  59.090 114.272  0.00  0.00    +0.000 C 
ATOM     38  C20 UNL     1      78.930  58.554 115.691  0.00  0.00    +0.000 C 
ATOM     39  C26 UNL     1      78.411  59.694 116.610  0.00  0.00    +0.000 C 
ATOM     40  C27 UNL     1      79.513  60.696 116.981  0.00  0.00    +0.000 C 
ATOM     41  O8  UNL     1      77.288  60.417 116.111  0.00  0.00    +0.000 OA
BRANCH  37  42
ATOM     42  N1  UNL     1      79.222  57.984 113.309  0.00  0.00    +0.000 NA
ATOM     43  H18 UNL     1      79.829  58.254 112.500  0.00  0.00    +0.000 HD
ATOM     44  H19 UNL     1      79.702  57.165 113.748  0.00  0.00    +0.000 HD
ENDBRANCH  37  42
BRANCH  38  45
ATOM     45  O6  UNL     1      80.122  57.998 116.234  0.00  0.00    +0.000 OA
BRANCH  45  46
ATOM     46  C21 UNL     1      80.115  56.579 116.211  0.00  0.00    +0.000 C 
ATOM     47  C22 UNL     1      81.493  56.057 115.733  0.00  0.00    +0.000 C 
ATOM     48  C23 UNL     1      82.186  55.216 116.804  0.00  0.00    +0.000 C 
ATOM     49  C24 UNL     1      82.132  55.935 118.148  0.00  0.00    +0.000 C 
ATOM     50  C25 UNL     1      80.699  56.404 118.477  0.00  0.00    +0.000 C 
ATOM     51  O7  UNL     1      79.754  56.049 117.481  0.00  0.00    +0.000 OA
ENDBRANCH  45  46
ENDBRANCH  38  45
ENDBRANCH  34  35
ENDBRANCH  16  34
TORSDOF 12
ENDMDL
MODEL 16
REMARK VINA RESULT:      -7.0      3.082      8.805
REMARK  Name = ./S1393.pdb
REMARK  14 active torsions:
REMARK  status: ('A' for Active; 'I' for Inactive)
REMARK    1  A    between atoms: C1_1  and  O1_2
REMARK    2  A    between atoms: O1_2  and  C2_3
REMARK    3  A    between atoms: C10_12  and  O3_13
REMARK    4  A    between atoms: C14_17  and  O4_18
REMARK    5  A    between atoms: C14_17  and  C28_37
REMARK    6  A    between atoms: C16_20  and  O5_21
REMARK    7  A    between atoms: O5_21  and  C17_22
REMARK    8  A    between atoms: C19_24  and  N1_25
REMARK    9  A    between atoms: C20_26  and  O6_27
REMARK   10  A    between atoms: O6_27  and  C21_28
REMARK   11  A    between atoms: C26_34  and  C27_35
REMARK   12  A    between atoms: C28_37  and  C29_39
REMARK   13  A    between atoms: C29_39  and  O10_40
REMARK   14  A    between atoms: C30_41  and  O12_45
REMARK                            x       y       z     vdW  Elec       q    Type
REMARK                         _______ _______ _______ _____ _____    ______ ____
ROOT
ATOM      1  C2  UNL     1      75.102  63.563 115.734  0.00  0.00    +0.000 A 
ATOM      2  C3  UNL     1      75.717  63.935 116.945  0.00  0.00    +0.000 A 
ATOM      3  C4  UNL     1      76.110  65.255 117.162  0.00  0.00    +0.000 A 
ATOM      4  C5  UNL     1      75.904  66.220 116.179  0.00  0.00    +0.000 A 
ATOM      5  C6  UNL     1      75.299  65.874 114.960  0.00  0.00    +0.000 A 
ATOM      6  C7  UNL     1      74.885  64.546 114.737  0.00  0.00    +0.000 A 
ATOM      7  C8  UNL     1      74.196  64.222 113.465  0.00  0.00    +0.000 C 
ATOM      8  O2  UNL     1      73.438  63.216 113.410  0.00  0.00    +0.000 OA
ATOM      9  C9  UNL     1      74.294  65.150 112.303  0.00  0.00    +0.000 A 
ATOM     10  C10 UNL     1      73.969  64.732 110.991  0.00  0.00    +0.000 A 
ATOM     11  C11 UNL     1      73.864  65.671 109.945  0.00  0.00    +0.000 A 
ATOM     12  C12 UNL     1      74.202  67.028 110.185  0.00  0.00    +0.000 A 
ATOM     13  C13 UNL     1      74.078  68.076 109.091  0.00  0.00    +0.000 C 
ATOM     14  C14 UNL     1      73.978  67.506 107.667  0.00  0.00    +0.000 C 
ATOM     15  C15 UNL     1      72.971  66.338 107.671  0.00  0.00    +0.000 C 
ATOM     16  C16 UNL     1      73.446  65.179 108.564  0.00  0.00    +0.000 C 
ATOM     17  C30 UNL     1      74.569  67.437 111.492  0.00  0.00    +0.000 A 
ATOM     18  C31 UNL     1      74.645  66.495 112.542  0.00  0.00    +0.000 A 
ATOM     19  C32 UNL     1      75.081  66.898 113.913  0.00  0.00    +0.000 C 
ATOM     20  O11 UNL     1      75.280  68.111 114.194  0.00  0.00    +0.000 OA
ENDROOT
BRANCH   1  22
ATOM     21  C1  UNL     1      75.610  61.142 115.332  0.00  0.00    +0.000 C 
ATOM     22  O1  UNL     1      74.712  62.235 115.492  0.00  0.00    +0.000 OA
ENDBRANCH   1  22
BRANCH  10  23
ATOM     23  O3  UNL     1      73.775  63.383 110.686  0.00  0.00    +0.000 OA
ATOM     24  H7  UNL     1      74.476  62.668 110.828  0.00  0.00    +0.000 HD
ENDBRANCH  10  23
BRANCH  14  25
ATOM     25  O4  UNL     1      75.257  67.054 107.280  0.00  0.00    +0.000 OA
ATOM     26  H10 UNL     1      75.826  67.012 108.093  0.00  0.00    +0.000 HD
ENDBRANCH  14  25
BRANCH  14  27
ATOM     27  C28 UNL     1      73.503  68.611 106.726  0.00  0.00    +0.000 C 
ATOM     28  O9  UNL     1      74.250  69.547 106.475  0.00  0.00    +0.000 OA
BRANCH  27  29
ATOM     29  C29 UNL     1      72.118  68.593 106.124  0.00  0.00    +0.000 C 
BRANCH  29  30
ATOM     30  O10 UNL     1      71.322  69.619 106.653  0.00  0.00    +0.000 OA
ATOM     31  H36 UNL     1      71.938  70.237 107.128  0.00  0.00    +0.000 HD
ENDBRANCH  29  30
ENDBRANCH  27  29
ENDBRANCH  14  27
BRANCH  17  32
ATOM     32  O12 UNL     1      74.840  68.782 111.774  0.00  0.00    +0.000 OA
ATOM     33  H37 UNL     1      75.733  69.233 111.629  0.00  0.00    +0.000 HD
ENDBRANCH  17  32
BRANCH  16  34
ATOM     34  O5  UNL     1      74.552  64.533 107.945  0.00  0.00    +0.000 OA
BRANCH  34  35
ATOM     35  C17 UNL     1      74.209  63.330 107.274  0.00  0.00    +0.000 C 
ATOM     36  C18 UNL     1      72.807  62.850 107.706  0.00  0.00    +0.000 C 
ATOM     37  C19 UNL     1      72.376  61.565 106.964  0.00  0.00    +0.000 C 
ATOM     38  C20 UNL     1      73.258  61.300 105.725  0.00  0.00    +0.000 C 
ATOM     39  C26 UNL     1      73.646  62.637 105.035  0.00  0.00    +0.000 C 
ATOM     40  C27 UNL     1      72.458  63.295 104.318  0.00  0.00    +0.000 C 
ATOM     41  O8  UNL     1      74.258  63.607 105.883  0.00  0.00    +0.000 OA
BRANCH  37  42
ATOM     42  N1  UNL     1      72.425  60.411 107.870  0.00  0.00    +0.000 NA
ATOM     43  H18 UNL     1      73.428  60.211 108.091  0.00  0.00    +0.000 HD
ATOM     44  H19 UNL     1      71.995  60.689 108.782  0.00  0.00    +0.000 HD
ENDBRANCH  37  42
BRANCH  38  45
ATOM     45  O6  UNL     1      72.545  60.474 104.812  0.00  0.00    +0.000 OA
BRANCH  45  46
ATOM     46  C21 UNL     1      73.386  59.528 104.170  0.00  0.00    +0.000 C 
ATOM     47  C22 UNL     1      74.763  59.486 104.878  0.00  0.00    +0.000 C 
ATOM     48  C23 UNL     1      75.054  58.109 105.475  0.00  0.00    +0.000 C 
ATOM     49  C24 UNL     1      73.843  57.613 106.258  0.00  0.00    +0.000 C 
ATOM     50  C25 UNL     1      72.549  57.730 105.425  0.00  0.00    +0.000 C 
ATOM     51  O7  UNL     1      72.770  58.246 104.123  0.00  0.00    +0.000 OA
ENDBRANCH  45  46
ENDBRANCH  38  45
ENDBRANCH  34  35
ENDBRANCH  16  34
TORSDOF 12
ENDMDL
MODEL 17
REMARK VINA RESULT:      -7.0      6.633     12.177
REMARK  Name = ./S1393.pdb
REMARK  14 active torsions:
REMARK  status: ('A' for Active; 'I' for Inactive)
REMARK    1  A    between atoms: C1_1  and  O1_2
REMARK    2  A    between atoms: O1_2  and  C2_3
REMARK    3  A    between atoms: C10_12  and  O3_13
REMARK    4  A    between atoms: C14_17  and  O4_18
REMARK    5  A    between atoms: C14_17  and  C28_37
REMARK    6  A    between atoms: C16_20  and  O5_21
REMARK    7  A    between atoms: O5_21  and  C17_22
REMARK    8  A    between atoms: C19_24  and  N1_25
REMARK    9  A    between atoms: C20_26  and  O6_27
REMARK   10  A    between atoms: O6_27  and  C21_28
REMARK   11  A    between atoms: C26_34  and  C27_35
REMARK   12  A    between atoms: C28_37  and  C29_39
REMARK   13  A    between atoms: C29_39  and  O10_40
REMARK   14  A    between atoms: C30_41  and  O12_45
REMARK                            x       y       z     vdW  Elec       q    Type
REMARK                         _______ _______ _______ _____ _____    ______ ____
ROOT
ATOM      1  C2  UNL     1      72.966  68.707 105.010  0.00  0.00    +0.000 A 
ATOM      2  C3  UNL     1      72.722  69.814 105.846  0.00  0.00    +0.000 A 
ATOM      3  C4  UNL     1      72.419  69.629 107.194  0.00  0.00    +0.000 A 
ATOM      4  C5  UNL     1      72.347  68.344 107.728  0.00  0.00    +0.000 A 
ATOM      5  C6  UNL     1      72.580  67.223 106.915  0.00  0.00    +0.000 A 
ATOM      6  C7  UNL     1      72.902  67.400 105.555  0.00  0.00    +0.000 A 
ATOM      7  C8  UNL     1      73.200  66.203 104.735  0.00  0.00    +0.000 C 
ATOM      8  O2  UNL     1      73.902  66.323 103.694  0.00  0.00    +0.000 OA
ATOM      9  C9  UNL     1      72.787  64.851 105.205  0.00  0.00    +0.000 A 
ATOM     10  C10 UNL     1      72.723  63.745 104.325  0.00  0.00    +0.000 A 
ATOM     11  C11 UNL     1      72.537  62.440 104.824  0.00  0.00    +0.000 A 
ATOM     12  C12 UNL     1      72.294  62.248 106.208  0.00  0.00    +0.000 A 
ATOM     13  C13 UNL     1      72.114  60.855 106.790  0.00  0.00    +0.000 C 
ATOM     14  C14 UNL     1      71.802  59.764 105.754  0.00  0.00    +0.000 C 
ATOM     15  C15 UNL     1      72.758  59.931 104.555  0.00  0.00    +0.000 C 
ATOM     16  C16 UNL     1      72.544  61.276 103.839  0.00  0.00    +0.000 C 
ATOM     17  C30 UNL     1      72.315  63.362 107.084  0.00  0.00    +0.000 A 
ATOM     18  C31 UNL     1      72.530  64.665 106.580  0.00  0.00    +0.000 A 
ATOM     19  C32 UNL     1      72.503  65.857 107.481  0.00  0.00    +0.000 C 
ATOM     20  O11 UNL     1      72.403  65.718 108.730  0.00  0.00    +0.000 OA
ENDROOT
BRANCH   1  22
ATOM     21  C1  UNL     1      74.110  69.885 103.117  0.00  0.00    +0.000 C 
ATOM     22  O1  UNL     1      73.259  68.873 103.646  0.00  0.00    +0.000 OA
ENDBRANCH   1  22
BRANCH  10  23
ATOM     23  O3  UNL     1      72.811  63.914 102.940  0.00  0.00    +0.000 OA
ATOM     24  H7  UNL     1      72.529  64.758 102.458  0.00  0.00    +0.000 HD
ENDBRANCH  10  23
BRANCH  14  25
ATOM     25  O4  UNL     1      70.461  59.916 105.341  0.00  0.00    +0.000 OA
ATOM     26  H10 UNL     1      69.981  59.071 105.545  0.00  0.00    +0.000 HD
ENDBRANCH  14  25
BRANCH  14  27
ATOM     27  C28 UNL     1      72.002  58.396 106.403  0.00  0.00    +0.000 C 
ATOM     28  O9  UNL     1      71.350  57.441 106.004  0.00  0.00    +0.000 OA
BRANCH  27  29
ATOM     29  C29 UNL     1      72.965  58.200 107.551  0.00  0.00    +0.000 C 
BRANCH  29  30
ATOM     30  O10 UNL     1      74.250  57.885 107.086  0.00  0.00    +0.000 OA
ATOM     31  H36 UNL     1      74.200  56.962 106.724  0.00  0.00    +0.000 HD
ENDBRANCH  29  30
ENDBRANCH  27  29
ENDBRANCH  14  27
BRANCH  17  32
ATOM     32  O12 UNL     1      72.147  63.194 108.464  0.00  0.00    +0.000 OA
ATOM     33  H37 UNL     1      71.798  63.905 109.094  0.00  0.00    +0.000 HD
ENDBRANCH  17  32
BRANCH  16  34
ATOM     34  O5  UNL     1      71.302  61.246 103.146  0.00  0.00    +0.000 OA
BRANCH  34  35
ATOM     35  C17 UNL     1      71.424  60.922 101.769  0.00  0.00    +0.000 C 
ATOM     36  C18 UNL     1      70.774  62.015 100.896  0.00  0.00    +0.000 C 
ATOM     37  C19 UNL     1      70.925  61.722  99.386  0.00  0.00    +0.000 C 
ATOM     38  C20 UNL     1      71.998  60.644  99.120  0.00  0.00    +0.000 C 
ATOM     39  C26 UNL     1      73.178  60.789 100.121  0.00  0.00    +0.000 C 
ATOM     40  C27 UNL     1      74.041  62.026  99.835  0.00  0.00    +0.000 C 
ATOM     41  O8  UNL     1      72.812  60.797 101.499  0.00  0.00    +0.000 OA
BRANCH  37  42
ATOM     42  N1  UNL     1      69.641  61.303  98.815  0.00  0.00    +0.000 NA
ATOM     43  H18 UNL     1      69.561  60.264  98.917  0.00  0.00    +0.000 HD
ATOM     44  H19 UNL     1      68.873  61.695  99.407  0.00  0.00    +0.000 HD
ENDBRANCH  37  42
BRANCH  38  45
ATOM     45  O6  UNL     1      72.475  60.778  97.786  0.00  0.00    +0.000 OA
BRANCH  45  46
ATOM     46  C21 UNL     1      72.592  59.527  97.126  0.00  0.00    +0.000 C 
ATOM     47  C22 UNL     1      71.556  58.532  97.704  0.00  0.00    +0.000 C 
ATOM     48  C23 UNL     1      70.559  58.068  96.642  0.00  0.00    +0.000 C 
ATOM     49  C24 UNL     1      70.028  59.269  95.865  0.00  0.00    +0.000 C 
ATOM     50  C25 UNL     1      71.178  60.169  95.367  0.00  0.00    +0.000 C 
ATOM     51  O7  UNL     1      72.461  59.678  95.718  0.00  0.00    +0.000 OA
ENDBRANCH  45  46
ENDBRANCH  38  45
ENDBRANCH  34  35
ENDBRANCH  16  34
TORSDOF 12
ENDMDL
MODEL 18
REMARK VINA RESULT:      -6.9     11.407     17.309
REMARK  Name = ./S1393.pdb
REMARK  14 active torsions:
REMARK  status: ('A' for Active; 'I' for Inactive)
REMARK    1  A    between atoms: C1_1  and  O1_2
REMARK    2  A    between atoms: O1_2  and  C2_3
REMARK    3  A    between atoms: C10_12  and  O3_13
REMARK    4  A    between atoms: C14_17  and  O4_18
REMARK    5  A    between atoms: C14_17  and  C28_37
REMARK    6  A    between atoms: C16_20  and  O5_21
REMARK    7  A    between atoms: O5_21  and  C17_22
REMARK    8  A    between atoms: C19_24  and  N1_25
REMARK    9  A    between atoms: C20_26  and  O6_27
REMARK   10  A    between atoms: O6_27  and  C21_28
REMARK   11  A    between atoms: C26_34  and  C27_35
REMARK   12  A    between atoms: C28_37  and  C29_39
REMARK   13  A    between atoms: C29_39  and  O10_40
REMARK   14  A    between atoms: C30_41  and  O12_45
REMARK                            x       y       z     vdW  Elec       q    Type
REMARK                         _______ _______ _______ _____ _____    ______ ____
ROOT
ATOM      1  C2  UNL     1      64.013  57.995 108.933  0.00  0.00    +0.000 A 
ATOM      2  C3  UNL     1      63.514  58.336 110.204  0.00  0.00    +0.000 A 
ATOM      3  C4  UNL     1      62.147  58.273 110.469  0.00  0.00    +0.000 A 
ATOM      4  C5  UNL     1      61.257  57.877 109.472  0.00  0.00    +0.000 A 
ATOM      5  C6  UNL     1      61.727  57.538 108.193  0.00  0.00    +0.000 A 
ATOM      6  C7  UNL     1      63.109  57.584 107.921  0.00  0.00    +0.000 A 
ATOM      7  C8  UNL     1      63.582  57.164 106.582  0.00  0.00    +0.000 C 
ATOM      8  O2  UNL     1      64.771  56.769 106.440  0.00  0.00    +0.000 OA
ATOM      9  C9  UNL     1      62.627  57.086 105.441  0.00  0.00    +0.000 A 
ATOM     10  C10 UNL     1      63.074  57.043 104.099  0.00  0.00    +0.000 A 
ATOM     11  C11 UNL     1      62.175  56.758 103.052  0.00  0.00    +0.000 A 
ATOM     12  C12 UNL     1      60.791  56.628 103.333  0.00  0.00    +0.000 A 
ATOM     13  C13 UNL     1      59.793  56.296 102.235  0.00  0.00    +0.000 C 
ATOM     14  C14 UNL     1      60.311  56.524 100.807  0.00  0.00    +0.000 C 
ATOM     15  C15 UNL     1      61.733  55.937 100.696  0.00  0.00    +0.000 C 
ATOM     16  C16 UNL     1      62.721  56.657 101.631  0.00  0.00    +0.000 C 
ATOM     17  C30 UNL     1      60.338  56.714 104.673  0.00  0.00    +0.000 A 
ATOM     18  C31 UNL     1      61.249  56.973 105.721  0.00  0.00    +0.000 A 
ATOM     19  C32 UNL     1      60.782  57.119 107.133  0.00  0.00    +0.000 C 
ATOM     20  O11 UNL     1      59.579  56.900 107.439  0.00  0.00    +0.000 OA
ENDROOT
BRANCH   1  22
ATOM     21  C1  UNL     1      66.365  58.648 109.498  0.00  0.00    +0.000 C 
ATOM     22  O1  UNL     1      65.386  58.066 108.644  0.00  0.00    +0.000 OA
ENDBRANCH   1  22
BRANCH  10  23
ATOM     23  O3  UNL     1      64.405  57.312 103.769  0.00  0.00    +0.000 OA
ATOM     24  H7  UNL     1      64.937  58.080 104.159  0.00  0.00    +0.000 HD
ENDBRANCH  10  23
BRANCH  14  25
ATOM     25  O4  UNL     1      60.330  57.913 100.560  0.00  0.00    +0.000 OA
ATOM     26  H10 UNL     1      59.793  58.357 101.267  0.00  0.00    +0.000 HD
ENDBRANCH  14  25
BRANCH  14  27
ATOM     27  C28 UNL     1      59.373  55.826  99.824  0.00  0.00    +0.000 C 
ATOM     28  O9  UNL     1      59.139  54.633  99.963  0.00  0.00    +0.000 OA
BRANCH  27  29
ATOM     29  C29 UNL     1      58.753  56.567  98.663  0.00  0.00    +0.000 C 
BRANCH  29  30
ATOM     30  O10 UNL     1      59.737  57.138  97.843  0.00  0.00    +0.000 OA
ATOM     31  H36 UNL     1      60.339  57.652  98.443  0.00  0.00    +0.000 HD
ENDBRANCH  29  30
ENDBRANCH  27  29
ENDBRANCH  14  27
BRANCH  17  32
ATOM     32  O12 UNL     1      58.987  56.521 104.988  0.00  0.00    +0.000 OA
ATOM     33  H37 UNL     1      58.257  57.206 104.842  0.00  0.00    +0.000 HD
ENDBRANCH  17  32
BRANCH  16  34
ATOM     34  O5  UNL     1      62.968  57.967 101.134  0.00  0.00    +0.000 OA
BRANCH  34  35
ATOM     35  C17 UNL     1      64.205  58.093 100.448  0.00  0.00    +0.000 C 
ATOM     36  C18 UNL     1      65.131  59.086 101.179  0.00  0.00    +0.000 C 
ATOM     37  C19 UNL     1      66.508  59.218 100.488  0.00  0.00    +0.000 C 
ATOM     38  C20 UNL     1      66.756  58.066  99.491  0.00  0.00    +0.000 C 
ATOM     39  C26 UNL     1      66.155  56.738 100.029  0.00  0.00    +0.000 C 
ATOM     40  C27 UNL     1      66.949  56.172 101.215  0.00  0.00    +0.000 C 
ATOM     41  O8  UNL     1      64.776  56.794 100.391  0.00  0.00    +0.000 OA
BRANCH  37  42
ATOM     42  N1  UNL     1      66.612  60.509  99.799  0.00  0.00    +0.000 NA
ATOM     43  H18 UNL     1      66.485  61.269 100.506  0.00  0.00    +0.000 HD
ATOM     44  H19 UNL     1      67.592  60.619  99.452  0.00  0.00    +0.000 HD
ENDBRANCH  37  42
BRANCH  38  45
ATOM     45  O6  UNL     1      68.157  57.916  99.290  0.00  0.00    +0.000 OA
BRANCH  45  46
ATOM     46  C21 UNL     1      68.490  57.741  97.921  0.00  0.00    +0.000 C 
ATOM     47  C22 UNL     1      67.409  58.403  97.030  0.00  0.00    +0.000 C 
ATOM     48  C23 UNL     1      67.987  59.531  96.176  0.00  0.00    +0.000 C 
ATOM     49  C24 UNL     1      68.850  60.447  97.038  0.00  0.00    +0.000 C 
ATOM     50  C25 UNL     1      69.867  59.641  97.873  0.00  0.00    +0.000 C 
ATOM     51  O7  UNL     1      69.792  58.244  97.644  0.00  0.00    +0.000 OA
ENDBRANCH  45  46
ENDBRANCH  38  45
ENDBRANCH  34  35
ENDBRANCH  16  34
TORSDOF 12
ENDMDL
MODEL 19
REMARK VINA RESULT:      -6.9     10.508     11.694
REMARK  Name = ./S1393.pdb
REMARK  14 active torsions:
REMARK  status: ('A' for Active; 'I' for Inactive)
REMARK    1  A    between atoms: C1_1  and  O1_2
REMARK    2  A    between atoms: O1_2  and  C2_3
REMARK    3  A    between atoms: C10_12  and  O3_13
REMARK    4  A    between atoms: C14_17  and  O4_18
REMARK    5  A    between atoms: C14_17  and  C28_37
REMARK    6  A    between atoms: C16_20  and  O5_21
REMARK    7  A    between atoms: O5_21  and  C17_22
REMARK    8  A    between atoms: C19_24  and  N1_25
REMARK    9  A    between atoms: C20_26  and  O6_27
REMARK   10  A    between atoms: O6_27  and  C21_28
REMARK   11  A    between atoms: C26_34  and  C27_35
REMARK   12  A    between atoms: C28_37  and  C29_39
REMARK   13  A    between atoms: C29_39  and  O10_40
REMARK   14  A    between atoms: C30_41  and  O12_45
REMARK                            x       y       z     vdW  Elec       q    Type
REMARK                         _______ _______ _______ _____ _____    ______ ____
ROOT
ATOM      1  C2  UNL     1      64.319  58.170 107.502  0.00  0.00    +0.000 A 
ATOM      2  C3  UNL     1      63.793  57.571 106.341  0.00  0.00    +0.000 A 
ATOM      3  C4  UNL     1      62.437  57.257 106.261  0.00  0.00    +0.000 A 
ATOM      4  C5  UNL     1      61.589  57.526 107.333  0.00  0.00    +0.000 A 
ATOM      5  C6  UNL     1      62.090  58.116 108.504  0.00  0.00    +0.000 A 
ATOM      6  C7  UNL     1      63.455  58.452 108.589  0.00  0.00    +0.000 A 
ATOM      7  C8  UNL     1      63.945  59.127 109.814  0.00  0.00    +0.000 C 
ATOM      8  O2  UNL     1      64.994  59.824 109.760  0.00  0.00    +0.000 OA
ATOM      9  C9  UNL     1      63.134  59.092 111.064  0.00  0.00    +0.000 A 
ATOM     10  C10 UNL     1      63.698  59.398 112.324  0.00  0.00    +0.000 A 
ATOM     11  C11 UNL     1      62.876  59.565 113.457  0.00  0.00    +0.000 A 
ATOM     12  C12 UNL     1      61.485  59.308 113.356  0.00  0.00    +0.000 A 
ATOM     13  C13 UNL     1      60.561  59.501 114.548  0.00  0.00    +0.000 C 
ATOM     14  C14 UNL     1      61.275  59.575 115.907  0.00  0.00    +0.000 C 
ATOM     15  C15 UNL     1      62.494  60.511 115.775  0.00  0.00    +0.000 C 
ATOM     16  C16 UNL     1      63.529  59.962 114.777  0.00  0.00    +0.000 C 
ATOM     17  C30 UNL     1      60.927  58.958 112.102  0.00  0.00    +0.000 A 
ATOM     18  C31 UNL     1      61.753  58.820 110.964  0.00  0.00    +0.000 A 
ATOM     19  C32 UNL     1      61.190  58.401 109.645  0.00  0.00    +0.000 C 
ATOM     20  O11 UNL     1      59.945  58.273 109.488  0.00  0.00    +0.000 OA
ENDROOT
BRANCH   1  22
ATOM     21  C1  UNL     1      66.738  57.523 107.613  0.00  0.00    +0.000 C 
ATOM     22  O1  UNL     1      65.685  58.482 107.606  0.00  0.00    +0.000 OA
ENDBRANCH   1  22
BRANCH  10  23
ATOM     23  O3  UNL     1      65.081  59.514 112.491  0.00  0.00    +0.000 OA
ATOM     24  H7  UNL     1      65.684  60.017 111.854  0.00  0.00    +0.000 HD
ENDBRANCH  10  23
BRANCH  14  25
ATOM     25  O4  UNL     1      61.688  58.273 116.262  0.00  0.00    +0.000 OA
ATOM     26  H10 UNL     1      61.831  57.759 115.425  0.00  0.00    +0.000 HD
ENDBRANCH  14  25
BRANCH  14  27
ATOM     27  C28 UNL     1      60.299  60.121 116.947  0.00  0.00    +0.000 C 
ATOM     28  O9  UNL     1      59.940  61.288 116.878  0.00  0.00    +0.000 OA
BRANCH  27  29
ATOM     29  C29 UNL     1      59.792  59.261 118.081  0.00  0.00    +0.000 C 
BRANCH  29  30
ATOM     30  O10 UNL     1      59.103  58.140 117.597  0.00  0.00    +0.000 OA
ATOM     31  H36 UNL     1      59.632  57.793 116.832  0.00  0.00    +0.000 HD
ENDBRANCH  29  30
ENDBRANCH  27  29
ENDBRANCH  14  27
BRANCH  17  32
ATOM     32  O12 UNL     1      59.547  58.766 111.958  0.00  0.00    +0.000 OA
ATOM     33  H37 UNL     1      59.112  58.243 111.210  0.00  0.00    +0.000 HD
ENDBRANCH  17  32
BRANCH  16  34
ATOM     34  O5  UNL     1      64.166  58.823 115.342  0.00  0.00    +0.000 OA
BRANCH  34  35
ATOM     35  C17 UNL     1      65.449  59.098 115.885  0.00  0.00    +0.000 C 
ATOM     36  C18 UNL     1      65.966  57.888 116.692  0.00  0.00    +0.000 C 
ATOM     37  C19 UNL     1      67.382  58.131 117.264  0.00  0.00    +0.000 C 
ATOM     38  C20 UNL     1      68.072  59.332 116.582  0.00  0.00    +0.000 C 
ATOM     39  C26 UNL     1      67.700  59.393 115.075  0.00  0.00    +0.000 C 
ATOM     40  C27 UNL     1      68.362  58.273 114.260  0.00  0.00    +0.000 C 
ATOM     41  O8  UNL     1      66.303  59.397 114.791  0.00  0.00    +0.000 OA
BRANCH  37  42
ATOM     42  N1  UNL     1      67.317  58.347 118.714  0.00  0.00    +0.000 NA
ATOM     43  H18 UNL     1      68.211  58.004 119.136  0.00  0.00    +0.000 HD
ATOM     44  H19 UNL     1      67.308  59.377 118.893  0.00  0.00    +0.000 HD
ENDBRANCH  37  42
BRANCH  38  45
ATOM     45  O6  UNL     1      69.482  59.203 116.727  0.00  0.00    +0.000 OA
BRANCH  45  46
ATOM     46  C21 UNL     1      70.101  60.428 117.090  0.00  0.00    +0.000 C 
ATOM     47  C22 UNL     1      71.348  60.146 117.965  0.00  0.00    +0.000 C 
ATOM     48  C23 UNL     1      72.632  60.644 117.303  0.00  0.00    +0.000 C 
ATOM     49  C24 UNL     1      72.676  60.194 115.846  0.00  0.00    +0.000 C 
ATOM     50  C25 UNL     1      71.362  60.533 115.113  0.00  0.00    +0.000 C 
ATOM     51  O7  UNL     1      70.420  61.200 115.939  0.00  0.00    +0.000 OA
ENDBRANCH  45  46
ENDBRANCH  38  45
ENDBRANCH  34  35
ENDBRANCH  16  34
TORSDOF 12
ENDMDL
MODEL 20
REMARK VINA RESULT:      -6.9      6.336     10.693
REMARK  Name = ./S1393.pdb
REMARK  14 active torsions:
REMARK  status: ('A' for Active; 'I' for Inactive)
REMARK    1  A    between atoms: C1_1  and  O1_2
REMARK    2  A    between atoms: O1_2  and  C2_3
REMARK    3  A    between atoms: C10_12  and  O3_13
REMARK    4  A    between atoms: C14_17  and  O4_18
REMARK    5  A    between atoms: C14_17  and  C28_37
REMARK    6  A    between atoms: C16_20  and  O5_21
REMARK    7  A    between atoms: O5_21  and  C17_22
REMARK    8  A    between atoms: C19_24  and  N1_25
REMARK    9  A    between atoms: C20_26  and  O6_27
REMARK   10  A    between atoms: O6_27  and  C21_28
REMARK   11  A    between atoms: C26_34  and  C27_35
REMARK   12  A    between atoms: C28_37  and  C29_39
REMARK   13  A    between atoms: C29_39  and  O10_40
REMARK   14  A    between atoms: C30_41  and  O12_45
REMARK                            x       y       z     vdW  Elec       q    Type
REMARK                         _______ _______ _______ _____ _____    ______ ____
ROOT
ATOM      1  C2  UNL     1      71.787  69.233 105.056  0.00  0.00    +0.000 A 
ATOM      2  C3  UNL     1      70.988  70.245 105.619  0.00  0.00    +0.000 A 
ATOM      3  C4  UNL     1      70.335  70.038 106.833  0.00  0.00    +0.000 A 
ATOM      4  C5  UNL     1      70.461  68.822 107.499  0.00  0.00    +0.000 A 
ATOM      5  C6  UNL     1      71.247  67.792 106.957  0.00  0.00    +0.000 A 
ATOM      6  C7  UNL     1      71.923  67.998 105.738  0.00  0.00    +0.000 A 
ATOM      7  C8  UNL     1      72.793  66.916 105.219  0.00  0.00    +0.000 C 
ATOM      8  O2  UNL     1      73.726  67.201 104.421  0.00  0.00    +0.000 OA
ATOM      9  C9  UNL     1      72.648  65.526 105.736  0.00  0.00    +0.000 A 
ATOM     10  C10 UNL     1      73.183  64.416 105.041  0.00  0.00    +0.000 A 
ATOM     11  C11 UNL     1      73.223  63.143 105.644  0.00  0.00    +0.000 A 
ATOM     12  C12 UNL     1      72.614  62.949 106.910  0.00  0.00    +0.000 A 
ATOM     13  C13 UNL     1      72.657  61.597 107.606  0.00  0.00    +0.000 C 
ATOM     14  C14 UNL     1      73.013  60.417 106.690  0.00  0.00    +0.000 C 
ATOM     15  C15 UNL     1      74.215  60.818 105.810  0.00  0.00    +0.000 C 
ATOM     16  C16 UNL     1      73.872  61.994 104.879  0.00  0.00    +0.000 C 
ATOM     17  C30 UNL     1      72.040  64.054 107.587  0.00  0.00    +0.000 A 
ATOM     18  C31 UNL     1      72.028  65.333 106.988  0.00  0.00    +0.000 A 
ATOM     19  C32 UNL     1      71.381  66.498 107.664  0.00  0.00    +0.000 C 
ATOM     20  O11 UNL     1      70.930  66.393 108.836  0.00  0.00    +0.000 OA
ENDROOT
BRANCH   1  22
ATOM     21  C1  UNL     1      73.115  70.612 103.438  0.00  0.00    +0.000 C 
ATOM     22  O1  UNL     1      72.443  69.418 103.827  0.00  0.00    +0.000 OA
ENDBRANCH   1  22
BRANCH  10  23
ATOM     23  O3  UNL     1      73.658  64.539 103.732  0.00  0.00    +0.000 OA
ATOM     24  H7  UNL     1      73.837  65.426 103.280  0.00  0.00    +0.000 HD
ENDBRANCH  10  23
BRANCH  14  25
ATOM     25  O4  UNL     1      71.890  60.124 105.888  0.00  0.00    +0.000 OA
ATOM     26  H10 UNL     1      71.945  59.169 105.621  0.00  0.00    +0.000 HD
ENDBRANCH  14  25
BRANCH  14  27
ATOM     27  C28 UNL     1      73.372  59.211 107.556  0.00  0.00    +0.000 C 
ATOM     28  O9  UNL     1      73.247  59.287 108.771  0.00  0.00    +0.000 OA
BRANCH  27  29
ATOM     29  C29 UNL     1      73.909  57.936 106.950  0.00  0.00    +0.000 C 
BRANCH  29  30
ATOM     30  O10 UNL     1      72.888  57.198 106.334  0.00  0.00    +0.000 OA
ATOM     31  H36 UNL     1      72.583  56.529 107.001  0.00  0.00    +0.000 HD
ENDBRANCH  29  30
ENDBRANCH  27  29
ENDBRANCH  14  27
BRANCH  17  32
ATOM     32  O12 UNL     1      71.494  63.906 108.869  0.00  0.00    +0.000 OA
ATOM     33  H37 UNL     1      71.666  64.531 109.645  0.00  0.00    +0.000 HD
ENDBRANCH  17  32
BRANCH  16  34
ATOM     34  O5  UNL     1      72.978  61.546 103.867  0.00  0.00    +0.000 OA
BRANCH  34  35
ATOM     35  C17 UNL     1      73.628  60.939 102.759  0.00  0.00    +0.000 C 
ATOM     36  C18 UNL     1      72.644  60.764 101.584  0.00  0.00    +0.000 C 
ATOM     37  C19 UNL     1      73.325  60.147 100.340  0.00  0.00    +0.000 C 
ATOM     38  C20 UNL     1      74.864  60.217 100.441  0.00  0.00    +0.000 C 
ATOM     39  C26 UNL     1      75.306  61.535 101.135  0.00  0.00    +0.000 C 
ATOM     40  C27 UNL     1      75.092  62.768 100.246  0.00  0.00    +0.000 C 
ATOM     41  O8  UNL     1      74.713  61.784 102.408  0.00  0.00    +0.000 OA
BRANCH  37  42
ATOM     42  N1  UNL     1      72.897  58.755 100.162  0.00  0.00    +0.000 NA
ATOM     43  H18 UNL     1      72.795  58.573  99.137  0.00  0.00    +0.000 HD
ATOM     44  H19 UNL     1      73.675  58.129 100.474  0.00  0.00    +0.000 HD
ENDBRANCH  37  42
BRANCH  38  45
ATOM     45  O6  UNL     1      75.421  60.149  99.133  0.00  0.00    +0.000 OA
BRANCH  45  46
ATOM     46  C21 UNL     1      76.601  59.360  99.090  0.00  0.00    +0.000 C 
ATOM     47  C22 UNL     1      76.565  58.302 100.221  0.00  0.00    +0.000 C 
ATOM     48  C23 UNL     1      76.580  56.878  99.667  0.00  0.00    +0.000 C 
ATOM     49  C24 UNL     1      75.558  56.744  98.543  0.00  0.00    +0.000 C 
ATOM     50  C25 UNL     1      75.712  57.875  97.505  0.00  0.00    +0.000 C 
ATOM     51  O7  UNL     1      76.772  58.768  97.808  0.00  0.00    +0.000 OA
ENDBRANCH  45  46
ENDBRANCH  38  45
ENDBRANCH  34  35
ENDBRANCH  16  34
TORSDOF 12
ENDMDL
