MODEL 1
REMARK VINA RESULT:      -7.4      0.000      0.000
REMARK  Name = ./S1514.pdb
REMARK  40 active torsions:
REMARK  status: ('A' for Active; 'I' for Inactive)
REMARK    1  A    between atoms: C1_1  and  C2_2
REMARK    2  A    between atoms: C2_2  and  C3_3
REMARK    3  A    between atoms: C5_7  and  C6_8
REMARK    4  A    between atoms: C6_8  and  O2_9
REMARK    5  A    between atoms: C6_8  and  C7_10
REMARK    6  A    between atoms: C7_10  and  C8_11
REMARK    7  A    between atoms: C7_10  and  C9_12
REMARK    8  A    between atoms: C9_12  and  C10_13
REMARK    9  A    between atoms: C11_14  and  C12_15
REMARK   10  A    between atoms: N2_16  and  C13_17
REMARK   11  A    between atoms: C15_20  and  C16_21
REMARK   12  A    between atoms: C16_21  and  C17_22
REMARK   13  A    between atoms: C16_21  and  C18_23
REMARK   14  A    between atoms: N3_24  and  C19_25
REMARK   15  A    between atoms: C21_28  and  C22_29
REMARK   16  A    between atoms: C22_29  and  C23_30
REMARK   17  A    between atoms: C23_30  and  C24_31
REMARK   18  A    between atoms: C23_30  and  C25_32
REMARK   19  A    between atoms: N4_33  and  C26_34
REMARK   20  A    between atoms: C28_37  and  C29_38
REMARK   21  A    between atoms: C29_38  and  C30_39
REMARK   22  A    between atoms: C30_39  and  C31_40
REMARK   23  A    between atoms: C30_39  and  C32_41
REMARK   24  A    between atoms: N5_42  and  C33_43
REMARK   25  A    between atoms: C35_46  and  C36_47
REMARK   26  A    between atoms: C38_51  and  C39_52
REMARK   27  A    between atoms: C41_56  and  C42_57
REMARK   28  A    between atoms: C42_57  and  C43_58
REMARK   29  A    between atoms: C43_58  and  C44_59
REMARK   30  A    between atoms: C43_58  and  C45_60
REMARK   31  A    between atoms: N8_61  and  C46_62
REMARK   32  A    between atoms: C48_65  and  C60_83
REMARK   33  A    between atoms: C50_69  and  C51_70
REMARK   34  A    between atoms: C51_70  and  C52_71
REMARK   35  A    between atoms: C52_71  and  C53_72
REMARK   36  A    between atoms: C52_71  and  C54_73
REMARK   37  A    between atoms: N10_74  and  C55_75
REMARK   38  A    between atoms: N11_79  and  C58_80
REMARK   39  A    between atoms: C60_83  and  C61_84
REMARK   40  A    between atoms: C60_83  and  C62_85
REMARK                            x       y       z     vdW  Elec       q    Type
REMARK                         _______ _______ _______ _____ _____    ______ ____
ROOT
ATOM      1  C3  UNL     1      79.249  73.291  99.923  0.00  0.00    +0.000 C 
ATOM      2  N1  UNL     1      77.812  73.595  99.837  0.00  0.00    +0.000 N 
ATOM      3  C4  UNL     1      76.790  72.694 100.294  0.00  0.00    +0.000 C 
ATOM      4  O1  UNL     1      77.077  71.496 100.560  0.00  0.00    +0.000 OA
ATOM      5  C5  UNL     1      75.377  73.195 100.496  0.00  0.00    +0.000 C 
ATOM      6  N2  UNL     1      75.035  73.126 101.937  0.00  0.00    +0.000 N 
ATOM      7  C13 UNL     1      75.654  74.141 102.803  0.00  0.00    +0.000 C 
ATOM      8  C14 UNL     1      74.414  71.958 102.530  0.00  0.00    +0.000 C 
ATOM      9  O3  UNL     1      74.722  70.817 102.092  0.00  0.00    +0.000 OA
ATOM     10  C15 UNL     1      73.505  72.042 103.756  0.00  0.00    +0.000 C 
ATOM     11  N3  UNL     1      72.751  70.777 103.971  0.00  0.00    +0.000 N 
ATOM     12  C19 UNL     1      71.958  70.168 102.892  0.00  0.00    +0.000 C 
ATOM     13  C20 UNL     1      73.190  69.906 105.030  0.00  0.00    +0.000 C 
ATOM     14  O4  UNL     1      74.393  69.518 105.029  0.00  0.00    +0.000 OA
ATOM     15  C21 UNL     1      72.319  69.574 106.234  0.00  0.00    +0.000 C 
ATOM     16  N4  UNL     1      72.928  68.469 107.011  0.00  0.00    +0.000 N 
ATOM     17  C26 UNL     1      73.735  68.771 108.199  0.00  0.00    +0.000 C 
ATOM     18  C27 UNL     1      72.851  67.108 106.526  0.00  0.00    +0.000 C 
ATOM     19  O5  UNL     1      72.786  66.897 105.284  0.00  0.00    +0.000 OA
ATOM     20  C28 UNL     1      72.748  65.930 107.475  0.00  0.00    +0.000 C 
ATOM     21  N5  UNL     1      73.467  64.767 106.911  0.00  0.00    +0.000 N 
ATOM     22  C33 UNL     1      74.928  64.720 107.064  0.00  0.00    +0.000 C 
ATOM     23  C34 UNL     1      72.816  63.800 106.050  0.00  0.00    +0.000 C 
ATOM     24  O6  UNL     1      71.908  64.179 105.259  0.00  0.00    +0.000 OA
ATOM     25  C35 UNL     1      73.174  62.332 106.082  0.00  0.00    +0.000 C 
ATOM     26  C36 UNL     1      72.950  61.776 107.496  0.00  0.00    +0.000 C 
ATOM     27  N6  UNL     1      74.542  62.147 105.569  0.00  0.00    +0.000 N 
ATOM     28  C37 UNL     1      75.410  61.024 105.815  0.00  0.00    +0.000 C 
ATOM     29  O7  UNL     1      75.221  60.252 106.791  0.00  0.00    +0.000 OA
ATOM     30  C38 UNL     1      76.601  60.787 104.918  0.00  0.00    +0.000 C 
ATOM     31  C39 UNL     1      76.133  60.477 103.491  0.00  0.00    +0.000 C 
ATOM     32  N7  UNL     1      77.489  61.956 104.925  0.00  0.00    +0.000 N 
ATOM     33  C40 UNL     1      78.804  61.931 104.349  0.00  0.00    +0.000 C 
ATOM     34  O8  UNL     1      79.280  60.844 103.920  0.00  0.00    +0.000 OA
ATOM     35  C41 UNL     1      79.595  63.223 104.239  0.00  0.00    +0.000 C 
ATOM     36  N8  UNL     1      80.560  63.194 103.115  0.00  0.00    +0.000 N 
ATOM     37  C46 UNL     1      81.664  62.226 103.097  0.00  0.00    +0.000 C 
ATOM     38  C47 UNL     1      80.579  64.291 102.174  0.00  0.00    +0.000 C 
ATOM     39  O9  UNL     1      80.121  65.414 102.520  0.00  0.00    +0.000 OA
ATOM     40  C48 UNL     1      81.096  64.114 100.760  0.00  0.00    +0.000 C 
ATOM     41  N9  UNL     1      81.546  65.406 100.228  0.00  0.00    +0.000 N 
ATOM     42  C49 UNL     1      82.928  65.805 100.237  0.00  0.00    +0.000 C 
ATOM     43  O10 UNL     1      83.805  64.993 100.646  0.00  0.00    +0.000 OA
ATOM     44  C50 UNL     1      83.339  67.224  99.887  0.00  0.00    +0.000 C 
ATOM     45  N10 UNL     1      82.322  67.872  99.029  0.00  0.00    +0.000 N 
ATOM     46  C55 UNL     1      82.047  67.354  97.680  0.00  0.00    +0.000 C 
ATOM     47  C56 UNL     1      81.452  68.880  99.584  0.00  0.00    +0.000 C 
ATOM     48  O11 UNL     1      81.194  68.879 100.819  0.00  0.00    +0.000 OA
ATOM     49  C57 UNL     1      80.790  69.913  98.705  0.00  0.00    +0.000 C 
ATOM     50  N11 UNL     1      80.729  71.239  99.342  0.00  0.00    +0.000 N 
ATOM     51  C58 UNL     1      81.943  71.822  99.932  0.00  0.00    +0.000 C 
ATOM     52  C59 UNL     1      79.615  72.110  99.035  0.00  0.00    +0.000 C 
ATOM     53  O12 UNL     1      78.945  71.911  97.984  0.00  0.00    +0.000 OA
ATOM     54  H7  UNL     1      77.512  74.554  99.554  0.00  0.00    +0.000 HD
ATOM     55  H66 UNL     1      74.808  62.765 104.768  0.00  0.00    +0.000 HD
ATOM     56  H71 UNL     1      77.168  62.849 105.367  0.00  0.00    +0.000 HD
ATOM     57  H86 UNL     1      80.819  66.125 100.020  0.00  0.00    +0.000 HD
ENDROOT
BRANCH  10  58
ATOM     58  C16 UNL     1      72.578  73.311 103.809  0.00  0.00    +0.000 C 
ATOM     59  C17 UNL     1      71.674  73.523 102.585  0.00  0.00    +0.000 C 
ATOM     60  C18 UNL     1      71.738  73.313 105.094  0.00  0.00    +0.000 C 
ENDBRANCH  10  58
BRANCH  40  61
ATOM     61  C60 UNL     1      80.030  63.455  99.843  0.00  0.00    +0.000 C 
ATOM     62  C61 UNL     1      79.053  62.535 100.590  0.00  0.00    +0.000 C 
ATOM     63  C62 UNL     1      79.255  64.521  99.055  0.00  0.00    +0.000 C 
ENDBRANCH  40  61
BRANCH   1  65
ATOM     64  C1  UNL     1      79.593  75.300  98.339  0.00  0.00    +0.000 C 
ATOM     65  C2  UNL     1      80.077  74.556  99.590  0.00  0.00    +0.000 C 
ENDBRANCH   1  65
BRANCH   5  66
ATOM     66  C6  UNL     1      74.342  72.471  99.579  0.00  0.00    +0.000 C 
BRANCH  66  67
ATOM     67  O2  UNL     1      73.196  73.271  99.475  0.00  0.00    +0.000 OA
ATOM     68  H10 UNL     1      73.009  73.646 100.376  0.00  0.00    +0.000 HD
ENDBRANCH  66  67
BRANCH  66  69
ATOM     69  C7  UNL     1      74.827  72.103  98.137  0.00  0.00    +0.000 C 
ATOM     70  C8  UNL     1      74.846  73.288  97.160  0.00  0.00    +0.000 C 
BRANCH  69  71
ATOM     71  C9  UNL     1      74.196  70.821  97.531  0.00  0.00    +0.000 C 
BRANCH  71  72
ATOM     72  C10 UNL     1      73.640  70.983  96.137  0.00  0.00    +0.000 C 
ATOM     73  C11 UNL     1      73.859  70.067  95.181  0.00  0.00    +0.000 C 
ATOM     74  C12 UNL     1      73.340  70.265  93.789  0.00  0.00    +0.000 C 
ENDBRANCH  71  72
ENDBRANCH  69  71
ENDBRANCH  66  69
ENDBRANCH   5  66
BRANCH  15  75
ATOM     75  C22 UNL     1      70.845  69.213 105.893  0.00  0.00    +0.000 C 
BRANCH  75  76
ATOM     76  C23 UNL     1      69.785  69.897 106.787  0.00  0.00    +0.000 C 
ATOM     77  C24 UNL     1      68.634  70.495 105.959  0.00  0.00    +0.000 C 
ATOM     78  C25 UNL     1      70.440  71.005 107.625  0.00  0.00    +0.000 C 
ENDBRANCH  75  76
ENDBRANCH  15  75
BRANCH  20  79
ATOM     79  C29 UNL     1      71.266  65.602 107.800  0.00  0.00    +0.000 C 
BRANCH  79  80
ATOM     80  C30 UNL     1      70.864  65.916 109.263  0.00  0.00    +0.000 C 
ATOM     81  C31 UNL     1      70.484  67.393 109.439  0.00  0.00    +0.000 C 
ATOM     82  C32 UNL     1      72.013  65.559 110.218  0.00  0.00    +0.000 C 
ENDBRANCH  79  80
ENDBRANCH  20  79
BRANCH  35  83
ATOM     83  C42 UNL     1      80.281  63.732 105.545  0.00  0.00    +0.000 C 
BRANCH  83  84
ATOM     84  C43 UNL     1      80.417  62.744 106.737  0.00  0.00    +0.000 C 
ATOM     85  C44 UNL     1      81.791  62.063 106.764  0.00  0.00    +0.000 C 
ATOM     86  C45 UNL     1      80.192  63.495 108.059  0.00  0.00    +0.000 C 
ENDBRANCH  83  84
ENDBRANCH  35  83
BRANCH  44  87
ATOM     87  C51 UNL     1      84.755  67.261  99.230  0.00  0.00    +0.000 C 
BRANCH  87  88
ATOM     88  C52 UNL     1      85.257  68.641  98.732  0.00  0.00    +0.000 C 
ATOM     89  C53 UNL     1      86.233  69.324  99.701  0.00  0.00    +0.000 C 
ATOM     90  C54 UNL     1      85.828  68.596  97.307  0.00  0.00    +0.000 C 
ENDBRANCH  87  88
ENDBRANCH  44  87
TORSDOF 16
ENDMDL
MODEL 2
REMARK VINA RESULT:      -6.9      2.448      7.114
REMARK  Name = ./S1514.pdb
REMARK  40 active torsions:
REMARK  status: ('A' for Active; 'I' for Inactive)
REMARK    1  A    between atoms: C1_1  and  C2_2
REMARK    2  A    between atoms: C2_2  and  C3_3
REMARK    3  A    between atoms: C5_7  and  C6_8
REMARK    4  A    between atoms: C6_8  and  O2_9
REMARK    5  A    between atoms: C6_8  and  C7_10
REMARK    6  A    between atoms: C7_10  and  C8_11
REMARK    7  A    between atoms: C7_10  and  C9_12
REMARK    8  A    between atoms: C9_12  and  C10_13
REMARK    9  A    between atoms: C11_14  and  C12_15
REMARK   10  A    between atoms: N2_16  and  C13_17
REMARK   11  A    between atoms: C15_20  and  C16_21
REMARK   12  A    between atoms: C16_21  and  C17_22
REMARK   13  A    between atoms: C16_21  and  C18_23
REMARK   14  A    between atoms: N3_24  and  C19_25
REMARK   15  A    between atoms: C21_28  and  C22_29
REMARK   16  A    between atoms: C22_29  and  C23_30
REMARK   17  A    between atoms: C23_30  and  C24_31
REMARK   18  A    between atoms: C23_30  and  C25_32
REMARK   19  A    between atoms: N4_33  and  C26_34
REMARK   20  A    between atoms: C28_37  and  C29_38
REMARK   21  A    between atoms: C29_38  and  C30_39
REMARK   22  A    between atoms: C30_39  and  C31_40
REMARK   23  A    between atoms: C30_39  and  C32_41
REMARK   24  A    between atoms: N5_42  and  C33_43
REMARK   25  A    between atoms: C35_46  and  C36_47
REMARK   26  A    between atoms: C38_51  and  C39_52
REMARK   27  A    between atoms: C41_56  and  C42_57
REMARK   28  A    between atoms: C42_57  and  C43_58
REMARK   29  A    between atoms: C43_58  and  C44_59
REMARK   30  A    between atoms: C43_58  and  C45_60
REMARK   31  A    between atoms: N8_61  and  C46_62
REMARK   32  A    between atoms: C48_65  and  C60_83
REMARK   33  A    between atoms: C50_69  and  C51_70
REMARK   34  A    between atoms: C51_70  and  C52_71
REMARK   35  A    between atoms: C52_71  and  C53_72
REMARK   36  A    between atoms: C52_71  and  C54_73
REMARK   37  A    between atoms: N10_74  and  C55_75
REMARK   38  A    between atoms: N11_79  and  C58_80
REMARK   39  A    between atoms: C60_83  and  C61_84
REMARK   40  A    between atoms: C60_83  and  C62_85
REMARK                            x       y       z     vdW  Elec       q    Type
REMARK                         _______ _______ _______ _____ _____    ______ ____
ROOT
ATOM      1  C3  UNL     1      81.427  67.466  98.386  0.00  0.00    +0.000 C 
ATOM      2  N1  UNL     1      80.511  68.154  97.464  0.00  0.00    +0.000 N 
ATOM      3  C4  UNL     1      79.164  68.510  97.816  0.00  0.00    +0.000 C 
ATOM      4  O1  UNL     1      78.631  68.022  98.847  0.00  0.00    +0.000 OA
ATOM      5  C5  UNL     1      78.400  69.504  96.968  0.00  0.00    +0.000 C 
ATOM      6  N2  UNL     1      78.136  70.726  97.766  0.00  0.00    +0.000 N 
ATOM      7  C13 UNL     1      79.285  71.614  97.997  0.00  0.00    +0.000 C 
ATOM      8  C14 UNL     1      76.933  70.890  98.557  0.00  0.00    +0.000 C 
ATOM      9  O3  UNL     1      76.431  69.877  99.117  0.00  0.00    +0.000 OA
ATOM     10  C15 UNL     1      76.323  72.259  98.856  0.00  0.00    +0.000 C 
ATOM     11  N3  UNL     1      74.944  72.141  99.402  0.00  0.00    +0.000 N 
ATOM     12  C19 UNL     1      73.912  71.356  98.706  0.00  0.00    +0.000 C 
ATOM     13  C20 UNL     1      74.760  72.356 100.813  0.00  0.00    +0.000 C 
ATOM     14  O4  UNL     1      75.440  71.659 101.620  0.00  0.00    +0.000 OA
ATOM     15  C21 UNL     1      73.914  73.494 101.368  0.00  0.00    +0.000 C 
ATOM     16  N4  UNL     1      73.705  73.307 102.823  0.00  0.00    +0.000 N 
ATOM     17  C26 UNL     1      74.555  74.024 103.780  0.00  0.00    +0.000 C 
ATOM     18  C27 UNL     1      72.765  72.317 103.302  0.00  0.00    +0.000 C 
ATOM     19  O5  UNL     1      72.542  71.289 102.608  0.00  0.00    +0.000 OA
ATOM     20  C28 UNL     1      71.964  72.530 104.573  0.00  0.00    +0.000 C 
ATOM     21  N5  UNL     1      71.762  71.237 105.261  0.00  0.00    +0.000 N 
ATOM     22  C33 UNL     1      72.862  70.713 106.081  0.00  0.00    +0.000 C 
ATOM     23  C34 UNL     1      70.618  70.390 104.989  0.00  0.00    +0.000 C 
ATOM     24  O6  UNL     1      70.134  70.346 103.823  0.00  0.00    +0.000 OA
ATOM     25  C35 UNL     1      69.961  69.563 106.070  0.00  0.00    +0.000 C 
ATOM     26  C36 UNL     1      69.478  70.481 107.202  0.00  0.00    +0.000 C 
ATOM     27  N6  UNL     1      70.881  68.499 106.506  0.00  0.00    +0.000 N 
ATOM     28  C37 UNL     1      70.844  67.785 107.756  0.00  0.00    +0.000 C 
ATOM     29  O7  UNL     1      70.237  68.249 108.757  0.00  0.00    +0.000 OA
ATOM     30  C38 UNL     1      71.583  66.476 107.895  0.00  0.00    +0.000 C 
ATOM     31  C39 UNL     1      70.981  65.427 106.951  0.00  0.00    +0.000 C 
ATOM     32  N7  UNL     1      73.011  66.662 107.612  0.00  0.00    +0.000 N 
ATOM     33  C40 UNL     1      73.992  65.648 107.886  0.00  0.00    +0.000 C 
ATOM     34  O8  UNL     1      73.654  64.599 108.498  0.00  0.00    +0.000 OA
ATOM     35  C41 UNL     1      75.420  65.844 107.407  0.00  0.00    +0.000 C 
ATOM     36  N8  UNL     1      76.111  64.555 107.168  0.00  0.00    +0.000 N 
ATOM     37  C46 UNL     1      76.345  63.612 108.268  0.00  0.00    +0.000 C 
ATOM     38  C47 UNL     1      76.795  64.346 105.911  0.00  0.00    +0.000 C 
ATOM     39  O9  UNL     1      77.167  65.342 105.233  0.00  0.00    +0.000 OA
ATOM     40  C48 UNL     1      77.037  62.953 105.363  0.00  0.00    +0.000 C 
ATOM     41  N9  UNL     1      78.189  62.968 104.454  0.00  0.00    +0.000 N 
ATOM     42  C49 UNL     1      79.509  62.580 104.876  0.00  0.00    +0.000 C 
ATOM     43  O10 UNL     1      79.680  62.135 106.045  0.00  0.00    +0.000 OA
ATOM     44  C50 UNL     1      80.718  62.812 103.987  0.00  0.00    +0.000 C 
ATOM     45  N10 UNL     1      80.320  62.891 102.564  0.00  0.00    +0.000 N 
ATOM     46  C55 UNL     1      79.737  61.723 101.887  0.00  0.00    +0.000 C 
ATOM     47  C56 UNL     1      80.308  64.168 101.892  0.00  0.00    +0.000 C 
ATOM     48  O11 UNL     1      80.147  65.229 102.558  0.00  0.00    +0.000 OA
ATOM     49  C57 UNL     1      80.428  64.265 100.391  0.00  0.00    +0.000 C 
ATOM     50  N11 UNL     1      81.245  65.413  99.964  0.00  0.00    +0.000 N 
ATOM     51  C58 UNL     1      82.570  65.630 100.563  0.00  0.00    +0.000 C 
ATOM     52  C59 UNL     1      80.931  66.065  98.710  0.00  0.00    +0.000 C 
ATOM     53  O12 UNL     1      80.255  65.445  97.843  0.00  0.00    +0.000 OA
ATOM     54  H7  UNL     1      80.880  68.521  96.559  0.00  0.00    +0.000 HD
ATOM     55  H66 UNL     1      71.456  68.064 105.747  0.00  0.00    +0.000 HD
ATOM     56  H71 UNL     1      73.345  67.564 107.200  0.00  0.00    +0.000 HD
ATOM     57  H86 UNL     1      78.081  63.460 103.541  0.00  0.00    +0.000 HD
ENDROOT
BRANCH  10  58
ATOM     58  C16 UNL     1      76.418  73.298  97.679  0.00  0.00    +0.000 C 
ATOM     59  C17 UNL     1      75.077  73.850  97.173  0.00  0.00    +0.000 C 
ATOM     60  C18 UNL     1      77.358  74.453  98.054  0.00  0.00    +0.000 C 
ENDBRANCH  10  58
BRANCH  40  61
ATOM     61  C60 UNL     1      75.768  62.385 104.672  0.00  0.00    +0.000 C 
ATOM     62  C61 UNL     1      75.985  61.998 103.201  0.00  0.00    +0.000 C 
ATOM     63  C62 UNL     1      75.209  61.190 105.457  0.00  0.00    +0.000 C 
ENDBRANCH  40  61
BRANCH   1  65
ATOM     64  C1  UNL     1      82.944  66.898  96.376  0.00  0.00    +0.000 C 
ATOM     65  C2  UNL     1      82.860  67.461  97.799  0.00  0.00    +0.000 C 
ENDBRANCH   1  65
BRANCH   5  66
ATOM     66  C6  UNL     1      77.113  68.892  96.331  0.00  0.00    +0.000 C 
BRANCH  66  67
ATOM     67  O2  UNL     1      76.435  69.898  95.630  0.00  0.00    +0.000 OA
ATOM     68  H10 UNL     1      76.949  70.741  95.743  0.00  0.00    +0.000 HD
ENDBRANCH  66  67
BRANCH  66  69
ATOM     69  C7  UNL     1      77.323  67.672  95.374  0.00  0.00    +0.000 C 
ATOM     70  C8  UNL     1      77.353  66.313  96.088  0.00  0.00    +0.000 C 
BRANCH  69  71
ATOM     71  C9  UNL     1      78.454  67.837  94.325  0.00  0.00    +0.000 C 
BRANCH  71  72
ATOM     72  C10 UNL     1      79.530  66.778  94.376  0.00  0.00    +0.000 C 
ATOM     73  C11 UNL     1      80.279  66.484  93.303  0.00  0.00    +0.000 C 
ATOM     74  C12 UNL     1      81.311  65.398  93.356  0.00  0.00    +0.000 C 
ENDBRANCH  71  72
ENDBRANCH  69  71
ENDBRANCH  66  69
ENDBRANCH   5  66
BRANCH  15  75
ATOM     75  C22 UNL     1      72.538  73.684 100.669  0.00  0.00    +0.000 C 
BRANCH  75  76
ATOM     76  C23 UNL     1      72.452  74.907  99.727  0.00  0.00    +0.000 C 
ATOM     77  C24 UNL     1      73.634  75.872  99.928  0.00  0.00    +0.000 C 
ATOM     78  C25 UNL     1      71.133  75.659  99.960  0.00  0.00    +0.000 C 
ENDBRANCH  75  76
ENDBRANCH  15  75
BRANCH  20  79
ATOM     79  C29 UNL     1      70.624  73.253 104.274  0.00  0.00    +0.000 C 
BRANCH  79  80
ATOM     80  C30 UNL     1      70.580  74.719 104.776  0.00  0.00    +0.000 C 
ATOM     81  C31 UNL     1      69.174  75.108 105.257  0.00  0.00    +0.000 C 
ATOM     82  C32 UNL     1      71.030  75.676 103.663  0.00  0.00    +0.000 C 
ENDBRANCH  79  80
ENDBRANCH  20  79
BRANCH  35  83
ATOM     83  C42 UNL     1      76.313  66.802 108.257  0.00  0.00    +0.000 C 
BRANCH  83  84
ATOM     84  C43 UNL     1      76.405  68.293 107.829  0.00  0.00    +0.000 C 
ATOM     85  C44 UNL     1      75.992  68.497 106.367  0.00  0.00    +0.000 C 
ATOM     86  C45 UNL     1      75.506  69.147 108.738  0.00  0.00    +0.000 C 
ENDBRANCH  83  84
ENDBRANCH  35  83
BRANCH  44  87
ATOM     87  C51 UNL     1      81.813  61.723 104.219  0.00  0.00    +0.000 C 
BRANCH  87  88
ATOM     88  C52 UNL     1      83.211  62.224 104.664  0.00  0.00    +0.000 C 
ATOM     89  C53 UNL     1      83.509  63.668 104.237  0.00  0.00    +0.000 C 
ATOM     90  C54 UNL     1      83.473  62.023 106.164  0.00  0.00    +0.000 C 
ENDBRANCH  87  88
ENDBRANCH  44  87
TORSDOF 16
ENDMDL
MODEL 3
REMARK VINA RESULT:      -6.9      2.988     10.327
REMARK  Name = ./S1514.pdb
REMARK  40 active torsions:
REMARK  status: ('A' for Active; 'I' for Inactive)
REMARK    1  A    between atoms: C1_1  and  C2_2
REMARK    2  A    between atoms: C2_2  and  C3_3
REMARK    3  A    between atoms: C5_7  and  C6_8
REMARK    4  A    between atoms: C6_8  and  O2_9
REMARK    5  A    between atoms: C6_8  and  C7_10
REMARK    6  A    between atoms: C7_10  and  C8_11
REMARK    7  A    between atoms: C7_10  and  C9_12
REMARK    8  A    between atoms: C9_12  and  C10_13
REMARK    9  A    between atoms: C11_14  and  C12_15
REMARK   10  A    between atoms: N2_16  and  C13_17
REMARK   11  A    between atoms: C15_20  and  C16_21
REMARK   12  A    between atoms: C16_21  and  C17_22
REMARK   13  A    between atoms: C16_21  and  C18_23
REMARK   14  A    between atoms: N3_24  and  C19_25
REMARK   15  A    between atoms: C21_28  and  C22_29
REMARK   16  A    between atoms: C22_29  and  C23_30
REMARK   17  A    between atoms: C23_30  and  C24_31
REMARK   18  A    between atoms: C23_30  and  C25_32
REMARK   19  A    between atoms: N4_33  and  C26_34
REMARK   20  A    between atoms: C28_37  and  C29_38
REMARK   21  A    between atoms: C29_38  and  C30_39
REMARK   22  A    between atoms: C30_39  and  C31_40
REMARK   23  A    between atoms: C30_39  and  C32_41
REMARK   24  A    between atoms: N5_42  and  C33_43
REMARK   25  A    between atoms: C35_46  and  C36_47
REMARK   26  A    between atoms: C38_51  and  C39_52
REMARK   27  A    between atoms: C41_56  and  C42_57
REMARK   28  A    between atoms: C42_57  and  C43_58
REMARK   29  A    between atoms: C43_58  and  C44_59
REMARK   30  A    between atoms: C43_58  and  C45_60
REMARK   31  A    between atoms: N8_61  and  C46_62
REMARK   32  A    between atoms: C48_65  and  C60_83
REMARK   33  A    between atoms: C50_69  and  C51_70
REMARK   34  A    between atoms: C51_70  and  C52_71
REMARK   35  A    between atoms: C52_71  and  C53_72
REMARK   36  A    between atoms: C52_71  and  C54_73
REMARK   37  A    between atoms: N10_74  and  C55_75
REMARK   38  A    between atoms: N11_79  and  C58_80
REMARK   39  A    between atoms: C60_83  and  C61_84
REMARK   40  A    between atoms: C60_83  and  C62_85
REMARK                            x       y       z     vdW  Elec       q    Type
REMARK                         _______ _______ _______ _____ _____    ______ ____
ROOT
ATOM      1  C3  UNL     1      72.818  74.107 107.126  0.00  0.00    +0.000 C 
ATOM      2  N1  UNL     1      72.116  72.825 107.292  0.00  0.00    +0.000 N 
ATOM      3  C4  UNL     1      72.364  71.681 106.459  0.00  0.00    +0.000 C 
ATOM      4  O1  UNL     1      73.015  71.808 105.389  0.00  0.00    +0.000 OA
ATOM      5  C5  UNL     1      71.876  70.314 106.889  0.00  0.00    +0.000 C 
ATOM      6  N2  UNL     1      73.044  69.439 107.152  0.00  0.00    +0.000 N 
ATOM      7  C13 UNL     1      73.790  69.703 108.391  0.00  0.00    +0.000 C 
ATOM      8  C14 UNL     1      73.633  68.604 106.124  0.00  0.00    +0.000 C 
ATOM      9  O3  UNL     1      73.652  69.026 104.936  0.00  0.00    +0.000 OA
ATOM     10  C15 UNL     1      74.355  67.294 106.440  0.00  0.00    +0.000 C 
ATOM     11  N3  UNL     1      74.582  66.481 105.215  0.00  0.00    +0.000 N 
ATOM     12  C19 UNL     1      73.476  66.150 104.302  0.00  0.00    +0.000 C 
ATOM     13  C20 UNL     1      75.912  66.450 104.666  0.00  0.00    +0.000 C 
ATOM     14  O4  UNL     1      76.469  67.549 104.379  0.00  0.00    +0.000 OA
ATOM     15  C21 UNL     1      76.735  65.172 104.577  0.00  0.00    +0.000 C 
ATOM     16  N4  UNL     1      77.940  65.401 103.747  0.00  0.00    +0.000 N 
ATOM     17  C26 UNL     1      79.226  65.694 104.390  0.00  0.00    +0.000 C 
ATOM     18  C27 UNL     1      77.827  65.480 102.306  0.00  0.00    +0.000 C 
ATOM     19  O5  UNL     1      76.753  65.894 101.791  0.00  0.00    +0.000 OA
ATOM     20  C28 UNL     1      78.932  64.984 101.393  0.00  0.00    +0.000 C 
ATOM     21  N5  UNL     1      79.002  65.832 100.184  0.00  0.00    +0.000 N 
ATOM     22  C33 UNL     1      79.708  67.118 100.284  0.00  0.00    +0.000 C 
ATOM     23  C34 UNL     1      78.237  65.538  98.989  0.00  0.00    +0.000 C 
ATOM     24  O6  UNL     1      77.091  65.018  99.093  0.00  0.00    +0.000 OA
ATOM     25  C35 UNL     1      78.777  65.814  97.605  0.00  0.00    +0.000 C 
ATOM     26  C36 UNL     1      80.090  65.045  97.399  0.00  0.00    +0.000 C 
ATOM     27  N6  UNL     1      78.889  67.268  97.400  0.00  0.00    +0.000 N 
ATOM     28  C37 UNL     1      79.726  67.941  96.440  0.00  0.00    +0.000 C 
ATOM     29  O7  UNL     1      80.719  67.367  95.921  0.00  0.00    +0.000 OA
ATOM     30  C38 UNL     1      79.443  69.379  96.078  0.00  0.00    +0.000 C 
ATOM     31  C39 UNL     1      78.076  69.492  95.392  0.00  0.00    +0.000 C 
ATOM     32  N7  UNL     1      79.489  70.228  97.275  0.00  0.00    +0.000 N 
ATOM     33  C40 UNL     1      79.485  71.662  97.205  0.00  0.00    +0.000 C 
ATOM     34  O8  UNL     1      79.563  72.236  96.085  0.00  0.00    +0.000 OA
ATOM     35  C41 UNL     1      79.358  72.470  98.486  0.00  0.00    +0.000 C 
ATOM     36  N8  UNL     1      78.735  73.794  98.251  0.00  0.00    +0.000 N 
ATOM     37  C46 UNL     1      79.386  74.791  97.393  0.00  0.00    +0.000 C 
ATOM     38  C47 UNL     1      77.625  74.207  99.082  0.00  0.00    +0.000 C 
ATOM     39  O9  UNL     1      77.471  73.682 100.219  0.00  0.00    +0.000 OA
ATOM     40  C48 UNL     1      76.611  75.225  98.600  0.00  0.00    +0.000 C 
ATOM     41  N9  UNL     1      75.979  75.883  99.750  0.00  0.00    +0.000 N 
ATOM     42  C49 UNL     1      76.413  77.164 100.241  0.00  0.00    +0.000 C 
ATOM     43  O10 UNL     1      77.317  77.791  99.621  0.00  0.00    +0.000 OA
ATOM     44  C50 UNL     1      75.895  77.718 101.556  0.00  0.00    +0.000 C 
ATOM     45  N10 UNL     1      74.580  77.132 101.895  0.00  0.00    +0.000 N 
ATOM     46  C55 UNL     1      73.409  77.386 101.043  0.00  0.00    +0.000 C 
ATOM     47  C56 UNL     1      74.483  76.144 102.943  0.00  0.00    +0.000 C 
ATOM     48  O11 UNL     1      75.483  75.428 103.227  0.00  0.00    +0.000 OA
ATOM     49  C57 UNL     1      73.186  75.903 103.676  0.00  0.00    +0.000 C 
ATOM     50  N11 UNL     1      73.390  75.638 105.109  0.00  0.00    +0.000 N 
ATOM     51  C58 UNL     1      74.228  76.545 105.908  0.00  0.00    +0.000 C 
ATOM     52  C59 UNL     1      72.470  74.754 105.793  0.00  0.00    +0.000 C 
ATOM     53  O12 UNL     1      71.332  74.538 105.292  0.00  0.00    +0.000 OA
ATOM     54  H7  UNL     1      71.506  72.684 108.127  0.00  0.00    +0.000 HD
ATOM     55  H66 UNL     1      78.122  67.841  97.820  0.00  0.00    +0.000 HD
ATOM     56  H71 UNL     1      79.531  69.786  98.222  0.00  0.00    +0.000 HD
ATOM     57  H86 UNL     1      75.335  75.313 100.341  0.00  0.00    +0.000 HD
ENDROOT
BRANCH  10  58
ATOM     58  C16 UNL     1      73.724  66.456 107.611  0.00  0.00    +0.000 C 
ATOM     59  C17 UNL     1      72.337  65.860 107.327  0.00  0.00    +0.000 C 
ATOM     60  C18 UNL     1      74.690  65.352 108.066  0.00  0.00    +0.000 C 
ENDBRANCH  10  58
BRANCH  40  61
ATOM     61  C60 UNL     1      75.558  74.579  97.659  0.00  0.00    +0.000 C 
ATOM     62  C61 UNL     1      74.489  73.758  98.396  0.00  0.00    +0.000 C 
ATOM     63  C62 UNL     1      74.892  75.644  96.776  0.00  0.00    +0.000 C 
ENDBRANCH  40  61
BRANCH   1  65
ATOM     64  C1  UNL     1      73.645  75.099 109.361  0.00  0.00    +0.000 C 
ATOM     65  C2  UNL     1      72.514  75.035 108.327  0.00  0.00    +0.000 C 
ENDBRANCH   1  65
BRANCH   5  66
ATOM     66  C6  UNL     1      70.852  69.695 105.887  0.00  0.00    +0.000 C 
BRANCH  66  67
ATOM     67  O2  UNL     1      70.227  68.601 106.501  0.00  0.00    +0.000 OA
ATOM     68  H10 UNL     1      70.897  68.164 107.090  0.00  0.00    +0.000 HD
ENDBRANCH  66  67
BRANCH  66  69
ATOM     69  C7  UNL     1      69.748  70.657 105.336  0.00  0.00    +0.000 C 
ATOM     70  C8  UNL     1      68.445  70.647 106.148  0.00  0.00    +0.000 C 
BRANCH  69  71
ATOM     71  C9  UNL     1      69.514  70.591 103.803  0.00  0.00    +0.000 C 
BRANCH  71  72
ATOM     72  C10 UNL     1      70.768  70.655 102.965  0.00  0.00    +0.000 C 
ATOM     73  C11 UNL     1      70.719  70.656 101.624  0.00  0.00    +0.000 C 
ATOM     74  C12 UNL     1      71.974  70.673 100.805  0.00  0.00    +0.000 C 
ENDBRANCH  71  72
ENDBRANCH  69  71
ENDBRANCH  66  69
ENDBRANCH   5  66
BRANCH  15  75
ATOM     75  C22 UNL     1      75.962  63.935 104.036  0.00  0.00    +0.000 C 
BRANCH  75  76
ATOM     76  C23 UNL     1      75.800  62.777 105.047  0.00  0.00    +0.000 C 
ATOM     77  C24 UNL     1      74.361  62.679 105.582  0.00  0.00    +0.000 C 
ATOM     78  C25 UNL     1      76.770  62.965 106.223  0.00  0.00    +0.000 C 
ENDBRANCH  75  76
ENDBRANCH  15  75
BRANCH  20  79
ATOM     79  C29 UNL     1      78.740  63.483 101.047  0.00  0.00    +0.000 C 
BRANCH  79  80
ATOM     80  C30 UNL     1      79.709  62.540 101.805  0.00  0.00    +0.000 C 
ATOM     81  C31 UNL     1      79.067  61.980 103.082  0.00  0.00    +0.000 C 
ATOM     82  C32 UNL     1      81.006  63.282 102.158  0.00  0.00    +0.000 C 
ENDBRANCH  79  80
ENDBRANCH  20  79
BRANCH  35  83
ATOM     83  C42 UNL     1      80.650  72.611  99.350  0.00  0.00    +0.000 C 
BRANCH  83  84
ATOM     84  C43 UNL     1      80.895  71.572 100.479  0.00  0.00    +0.000 C 
ATOM     85  C44 UNL     1      79.597  70.881 100.915  0.00  0.00    +0.000 C 
ATOM     86  C45 UNL     1      81.901  70.514  99.998  0.00  0.00    +0.000 C 
ENDBRANCH  83  84
ENDBRANCH  35  83
BRANCH  44  87
ATOM     87  C51 UNL     1      75.842  79.279 101.535  0.00  0.00    +0.000 C 
BRANCH  87  88
ATOM     88  C52 UNL     1      76.597  80.018 102.669  0.00  0.00    +0.000 C 
ATOM     89  C53 UNL     1      76.191  79.559 104.076  0.00  0.00    +0.000 C 
ATOM     90  C54 UNL     1      78.123  79.990 102.493  0.00  0.00    +0.000 C 
ENDBRANCH  87  88
ENDBRANCH  44  87
TORSDOF 16
ENDMDL
MODEL 4
REMARK VINA RESULT:      -6.8      2.606     12.093
REMARK  Name = ./S1514.pdb
REMARK  40 active torsions:
REMARK  status: ('A' for Active; 'I' for Inactive)
REMARK    1  A    between atoms: C1_1  and  C2_2
REMARK    2  A    between atoms: C2_2  and  C3_3
REMARK    3  A    between atoms: C5_7  and  C6_8
REMARK    4  A    between atoms: C6_8  and  O2_9
REMARK    5  A    between atoms: C6_8  and  C7_10
REMARK    6  A    between atoms: C7_10  and  C8_11
REMARK    7  A    between atoms: C7_10  and  C9_12
REMARK    8  A    between atoms: C9_12  and  C10_13
REMARK    9  A    between atoms: C11_14  and  C12_15
REMARK   10  A    between atoms: N2_16  and  C13_17
REMARK   11  A    between atoms: C15_20  and  C16_21
REMARK   12  A    between atoms: C16_21  and  C17_22
REMARK   13  A    between atoms: C16_21  and  C18_23
REMARK   14  A    between atoms: N3_24  and  C19_25
REMARK   15  A    between atoms: C21_28  and  C22_29
REMARK   16  A    between atoms: C22_29  and  C23_30
REMARK   17  A    between atoms: C23_30  and  C24_31
REMARK   18  A    between atoms: C23_30  and  C25_32
REMARK   19  A    between atoms: N4_33  and  C26_34
REMARK   20  A    between atoms: C28_37  and  C29_38
REMARK   21  A    between atoms: C29_38  and  C30_39
REMARK   22  A    between atoms: C30_39  and  C31_40
REMARK   23  A    between atoms: C30_39  and  C32_41
REMARK   24  A    between atoms: N5_42  and  C33_43
REMARK   25  A    between atoms: C35_46  and  C36_47
REMARK   26  A    between atoms: C38_51  and  C39_52
REMARK   27  A    between atoms: C41_56  and  C42_57
REMARK   28  A    between atoms: C42_57  and  C43_58
REMARK   29  A    between atoms: C43_58  and  C44_59
REMARK   30  A    between atoms: C43_58  and  C45_60
REMARK   31  A    between atoms: N8_61  and  C46_62
REMARK   32  A    between atoms: C48_65  and  C60_83
REMARK   33  A    between atoms: C50_69  and  C51_70
REMARK   34  A    between atoms: C51_70  and  C52_71
REMARK   35  A    between atoms: C52_71  and  C53_72
REMARK   36  A    between atoms: C52_71  and  C54_73
REMARK   37  A    between atoms: N10_74  and  C55_75
REMARK   38  A    between atoms: N11_79  and  C58_80
REMARK   39  A    between atoms: C60_83  and  C61_84
REMARK   40  A    between atoms: C60_83  and  C62_85
REMARK                            x       y       z     vdW  Elec       q    Type
REMARK                         _______ _______ _______ _____ _____    ______ ____
ROOT
ATOM      1  C3  UNL     1      80.349  63.294 105.107  0.00  0.00    +0.000 C 
ATOM      2  N1  UNL     1      80.376  63.047 103.657  0.00  0.00    +0.000 N 
ATOM      3  C4  UNL     1      79.624  63.828 102.714  0.00  0.00    +0.000 C 
ATOM      4  O1  UNL     1      78.712  64.598 103.116  0.00  0.00    +0.000 OA
ATOM      5  C5  UNL     1      79.955  63.754 101.239  0.00  0.00    +0.000 C 
ATOM      6  N2  UNL     1      80.464  65.070 100.786  0.00  0.00    +0.000 N 
ATOM      7  C13 UNL     1      81.830  65.420 101.205  0.00  0.00    +0.000 C 
ATOM      8  C14 UNL     1      79.590  66.100 100.259  0.00  0.00    +0.000 C 
ATOM      9  O3  UNL     1      78.429  66.213 100.737  0.00  0.00    +0.000 OA
ATOM     10  C15 UNL     1      80.062  67.142  99.246  0.00  0.00    +0.000 C 
ATOM     11  N3  UNL     1      78.919  67.871  98.632  0.00  0.00    +0.000 N 
ATOM     12  C19 UNL     1      77.798  67.148  98.011  0.00  0.00    +0.000 C 
ATOM     13  C20 UNL     1      78.662  69.215  99.078  0.00  0.00    +0.000 C 
ATOM     14  O4  UNL     1      78.487  69.413 100.315  0.00  0.00    +0.000 OA
ATOM     15  C21 UNL     1      78.759  70.420  98.154  0.00  0.00    +0.000 C 
ATOM     16  N4  UNL     1      78.197  71.618  98.820  0.00  0.00    +0.000 N 
ATOM     17  C26 UNL     1      79.093  72.573  99.482  0.00  0.00    +0.000 C 
ATOM     18  C27 UNL     1      76.764  71.776  98.947  0.00  0.00    +0.000 C 
ATOM     19  O5  UNL     1      76.032  70.751  99.013  0.00  0.00    +0.000 OA
ATOM     20  C28 UNL     1      76.107  73.142  98.903  0.00  0.00    +0.000 C 
ATOM     21  N5  UNL     1      74.932  73.163  99.800  0.00  0.00    +0.000 N 
ATOM     22  C33 UNL     1      75.166  73.358 101.238  0.00  0.00    +0.000 C 
ATOM     23  C34 UNL     1      73.606  72.797  99.344  0.00  0.00    +0.000 C 
ATOM     24  O6  UNL     1      73.472  71.897  98.468  0.00  0.00    +0.000 OA
ATOM     25  C35 UNL     1      72.363  73.478  99.869  0.00  0.00    +0.000 C 
ATOM     26  C36 UNL     1      72.444  74.986  99.593  0.00  0.00    +0.000 C 
ATOM     27  N6  UNL     1      72.173  73.132 101.288  0.00  0.00    +0.000 N 
ATOM     28  C37 UNL     1      71.403  73.866 102.259  0.00  0.00    +0.000 C 
ATOM     29  O7  UNL     1      71.109  75.077 102.080  0.00  0.00    +0.000 OA
ATOM     30  C38 UNL     1      70.977  73.194 103.541  0.00  0.00    +0.000 C 
ATOM     31  C39 UNL     1      70.019  72.036 103.237  0.00  0.00    +0.000 C 
ATOM     32  N7  UNL     1      72.149  72.711 104.281  0.00  0.00    +0.000 N 
ATOM     33  C40 UNL     1      72.067  72.237 105.634  0.00  0.00    +0.000 C 
ATOM     34  O8  UNL     1      70.983  72.340 106.270  0.00  0.00    +0.000 OA
ATOM     35  C41 UNL     1      73.285  71.591 106.273  0.00  0.00    +0.000 C 
ATOM     36  N8  UNL     1      72.913  70.618 107.327  0.00  0.00    +0.000 N 
ATOM     37  C46 UNL     1      72.202  71.053 108.534  0.00  0.00    +0.000 C 
ATOM     38  C47 UNL     1      73.489  69.292 107.295  0.00  0.00    +0.000 C 
ATOM     39  O9  UNL     1      74.573  69.100 106.680  0.00  0.00    +0.000 OA
ATOM     40  C48 UNL     1      72.797  68.112 107.948  0.00  0.00    +0.000 C 
ATOM     41  N9  UNL     1      73.783  67.079 108.286  0.00  0.00    +0.000 N 
ATOM     42  C49 UNL     1      74.341  66.948 109.606  0.00  0.00    +0.000 C 
ATOM     43  O10 UNL     1      73.919  67.692 110.534  0.00  0.00    +0.000 OA
ATOM     44  C50 UNL     1      75.514  66.021 109.874  0.00  0.00    +0.000 C 
ATOM     45  N10 UNL     1      75.576  64.941 108.865  0.00  0.00    +0.000 N 
ATOM     46  C55 UNL     1      74.495  63.949 108.768  0.00  0.00    +0.000 C 
ATOM     47  C56 UNL     1      76.589  64.976 107.837  0.00  0.00    +0.000 C 
ATOM     48  O11 UNL     1      77.082  66.081 107.477  0.00  0.00    +0.000 OA
ATOM     49  C57 UNL     1      77.036  63.718 107.134  0.00  0.00    +0.000 C 
ATOM     50  N11 UNL     1      78.483  63.707 106.864  0.00  0.00    +0.000 N 
ATOM     51  C58 UNL     1      79.431  64.012 107.946  0.00  0.00    +0.000 C 
ATOM     52  C59 UNL     1      78.967  63.022 105.684  0.00  0.00    +0.000 C 
ATOM     53  O12 UNL     1      78.241  62.149 105.134  0.00  0.00    +0.000 OA
ATOM     54  H7  UNL     1      81.066  62.366 103.270  0.00  0.00    +0.000 HD
ATOM     55  H66 UNL     1      72.418  72.148 101.546  0.00  0.00    +0.000 HD
ATOM     56  H71 UNL     1      73.089  72.708 103.820  0.00  0.00    +0.000 HD
ATOM     57  H86 UNL     1      74.231  66.560 107.500  0.00  0.00    +0.000 HD
ENDROOT
BRANCH  10  58
ATOM     58  C16 UNL     1      81.083  66.611  98.175  0.00  0.00    +0.000 C 
ATOM     59  C17 UNL     1      80.653  65.341  97.423  0.00  0.00    +0.000 C 
ATOM     60  C18 UNL     1      81.444  67.720  97.176  0.00  0.00    +0.000 C 
ENDBRANCH  10  58
BRANCH  40  61
ATOM     61  C60 UNL     1      71.661  67.550 107.050  0.00  0.00    +0.000 C 
ATOM     62  C61 UNL     1      72.002  66.204 106.391  0.00  0.00    +0.000 C 
ATOM     63  C62 UNL     1      70.349  67.437 107.838  0.00  0.00    +0.000 C 
ENDBRANCH  40  61
BRANCH   1  65
ATOM     64  C1  UNL     1      81.695  61.092 105.157  0.00  0.00    +0.000 C 
ATOM     65  C2  UNL     1      81.451  62.460 105.805  0.00  0.00    +0.000 C 
ENDBRANCH   1  65
BRANCH   5  66
ATOM     66  C6  UNL     1      78.766  63.221 100.379  0.00  0.00    +0.000 C 
BRANCH  66  67
ATOM     67  O2  UNL     1      79.281  62.455  99.325  0.00  0.00    +0.000 OA
ATOM     68  H10 UNL     1      78.511  62.123  98.791  0.00  0.00    +0.000 HD
ENDBRANCH  66  67
BRANCH  66  69
ATOM     69  C7  UNL     1      77.687  62.374 101.131  0.00  0.00    +0.000 C 
ATOM     70  C8  UNL     1      77.947  60.861 101.107  0.00  0.00    +0.000 C 
BRANCH  69  71
ATOM     71  C9  UNL     1      76.213  62.747 100.818  0.00  0.00    +0.000 C 
BRANCH  71  72
ATOM     72  C10 UNL     1      75.551  63.640 101.839  0.00  0.00    +0.000 C 
ATOM     73  C11 UNL     1      75.498  63.306 103.137  0.00  0.00    +0.000 C 
ATOM     74  C12 UNL     1      74.797  64.180 104.132  0.00  0.00    +0.000 C 
ENDBRANCH  71  72
ENDBRANCH  69  71
ENDBRANCH  66  69
ENDBRANCH   5  66
BRANCH  15  75
ATOM     75  C22 UNL     1      78.079  70.235  96.767  0.00  0.00    +0.000 C 
BRANCH  75  76
ATOM     76  C23 UNL     1      79.048  69.915  95.606  0.00  0.00    +0.000 C 
ATOM     77  C24 UNL     1      79.486  71.186  94.857  0.00  0.00    +0.000 C 
ATOM     78  C25 UNL     1      78.384  68.944  94.618  0.00  0.00    +0.000 C 
ENDBRANCH  75  76
ENDBRANCH  15  75
BRANCH  20  79
ATOM     79  C29 UNL     1      75.743  73.541  97.448  0.00  0.00    +0.000 C 
BRANCH  79  80
ATOM     80  C30 UNL     1      76.108  75.004  97.092  0.00  0.00    +0.000 C 
ATOM     81  C31 UNL     1      76.943  75.663  98.201  0.00  0.00    +0.000 C 
ATOM     82  C32 UNL     1      74.834  75.826  96.845  0.00  0.00    +0.000 C 
ENDBRANCH  79  80
ENDBRANCH  20  79
BRANCH  35  83
ATOM     83  C42 UNL     1      74.400  72.559 106.780  0.00  0.00    +0.000 C 
BRANCH  83  84
ATOM     84  C43 UNL     1      75.788  72.509 106.085  0.00  0.00    +0.000 C 
ATOM     85  C44 UNL     1      76.836  71.791 106.944  0.00  0.00    +0.000 C 
ATOM     86  C45 UNL     1      75.661  71.794 104.730  0.00  0.00    +0.000 C 
ENDBRANCH  83  84
ENDBRANCH  35  83
BRANCH  44  87
ATOM     87  C51 UNL     1      75.468  65.450 111.327  0.00  0.00    +0.000 C 
BRANCH  87  88
ATOM     88  C52 UNL     1      75.649  63.918 111.480  0.00  0.00    +0.000 C 
ATOM     89  C53 UNL     1      77.110  63.490 111.677  0.00  0.00    +0.000 C 
ATOM     90  C54 UNL     1      74.741  63.310 112.559  0.00  0.00    +0.000 C 
ENDBRANCH  87  88
ENDBRANCH  44  87
TORSDOF 16
ENDMDL
MODEL 5
REMARK VINA RESULT:      -6.8      6.638     12.152
REMARK  Name = ./S1514.pdb
REMARK  40 active torsions:
REMARK  status: ('A' for Active; 'I' for Inactive)
REMARK    1  A    between atoms: C1_1  and  C2_2
REMARK    2  A    between atoms: C2_2  and  C3_3
REMARK    3  A    between atoms: C5_7  and  C6_8
REMARK    4  A    between atoms: C6_8  and  O2_9
REMARK    5  A    between atoms: C6_8  and  C7_10
REMARK    6  A    between atoms: C7_10  and  C8_11
REMARK    7  A    between atoms: C7_10  and  C9_12
REMARK    8  A    between atoms: C9_12  and  C10_13
REMARK    9  A    between atoms: C11_14  and  C12_15
REMARK   10  A    between atoms: N2_16  and  C13_17
REMARK   11  A    between atoms: C15_20  and  C16_21
REMARK   12  A    between atoms: C16_21  and  C17_22
REMARK   13  A    between atoms: C16_21  and  C18_23
REMARK   14  A    between atoms: N3_24  and  C19_25
REMARK   15  A    between atoms: C21_28  and  C22_29
REMARK   16  A    between atoms: C22_29  and  C23_30
REMARK   17  A    between atoms: C23_30  and  C24_31
REMARK   18  A    between atoms: C23_30  and  C25_32
REMARK   19  A    between atoms: N4_33  and  C26_34
REMARK   20  A    between atoms: C28_37  and  C29_38
REMARK   21  A    between atoms: C29_38  and  C30_39
REMARK   22  A    between atoms: C30_39  and  C31_40
REMARK   23  A    between atoms: C30_39  and  C32_41
REMARK   24  A    between atoms: N5_42  and  C33_43
REMARK   25  A    between atoms: C35_46  and  C36_47
REMARK   26  A    between atoms: C38_51  and  C39_52
REMARK   27  A    between atoms: C41_56  and  C42_57
REMARK   28  A    between atoms: C42_57  and  C43_58
REMARK   29  A    between atoms: C43_58  and  C44_59
REMARK   30  A    between atoms: C43_58  and  C45_60
REMARK   31  A    between atoms: N8_61  and  C46_62
REMARK   32  A    between atoms: C48_65  and  C60_83
REMARK   33  A    between atoms: C50_69  and  C51_70
REMARK   34  A    between atoms: C51_70  and  C52_71
REMARK   35  A    between atoms: C52_71  and  C53_72
REMARK   36  A    between atoms: C52_71  and  C54_73
REMARK   37  A    between atoms: N10_74  and  C55_75
REMARK   38  A    between atoms: N11_79  and  C58_80
REMARK   39  A    between atoms: C60_83  and  C61_84
REMARK   40  A    between atoms: C60_83  and  C62_85
REMARK                            x       y       z     vdW  Elec       q    Type
REMARK                         _______ _______ _______ _____ _____    ______ ____
ROOT
ATOM      1  C3  UNL     1      84.588  58.763 106.313  0.00  0.00    +0.000 C 
ATOM      2  N1  UNL     1      84.427  60.214 106.130  0.00  0.00    +0.000 N 
ATOM      3  C4  UNL     1      83.347  60.797 105.382  0.00  0.00    +0.000 C 
ATOM      4  O1  UNL     1      82.632  60.074 104.639  0.00  0.00    +0.000 OA
ATOM      5  C5  UNL     1      83.045  62.273 105.518  0.00  0.00    +0.000 C 
ATOM      6  N2  UNL     1      81.711  62.442 106.143  0.00  0.00    +0.000 N 
ATOM      7  C13 UNL     1      81.626  62.162 107.584  0.00  0.00    +0.000 C 
ATOM      8  C14 UNL     1      80.496  62.544 105.359  0.00  0.00    +0.000 C 
ATOM      9  O3  UNL     1      80.405  61.882 104.290  0.00  0.00    +0.000 OA
ATOM     10  C15 UNL     1      79.266  63.314 105.841  0.00  0.00    +0.000 C 
ATOM     11  N3  UNL     1      78.289  63.536 104.742  0.00  0.00    +0.000 N 
ATOM     12  C19 UNL     1      78.699  64.143 103.466  0.00  0.00    +0.000 C 
ATOM     13  C20 UNL     1      77.100  62.723 104.725  0.00  0.00    +0.000 C 
ATOM     14  O4  UNL     1      77.234  61.466 104.731  0.00  0.00    +0.000 OA
ATOM     15  C21 UNL     1      75.703  63.308 104.872  0.00  0.00    +0.000 C 
ATOM     16  N4  UNL     1      74.686  62.276 104.562  0.00  0.00    +0.000 N 
ATOM     17  C26 UNL     1      74.042  61.535 105.653  0.00  0.00    +0.000 C 
ATOM     18  C27 UNL     1      74.429  61.895 103.190  0.00  0.00    +0.000 C 
ATOM     19  O5  UNL     1      75.356  61.985 102.339  0.00  0.00    +0.000 OA
ATOM     20  C28 UNL     1      73.046  61.482 102.725  0.00  0.00    +0.000 C 
ATOM     21  N5  UNL     1      73.158  60.441 101.681  0.00  0.00    +0.000 N 
ATOM     22  C33 UNL     1      73.390  59.055 102.111  0.00  0.00    +0.000 C 
ATOM     23  C34 UNL     1      73.252  60.768 100.272  0.00  0.00    +0.000 C 
ATOM     24  O6  UNL     1      73.859  61.815  99.912  0.00  0.00    +0.000 OA
ATOM     25  C35 UNL     1      72.624  59.900  99.206  0.00  0.00    +0.000 C 
ATOM     26  C36 UNL     1      71.113  59.785  99.456  0.00  0.00    +0.000 C 
ATOM     27  N6  UNL     1      73.327  58.608  99.144  0.00  0.00    +0.000 N 
ATOM     28  C37 UNL     1      72.816  57.373  98.605  0.00  0.00    +0.000 C 
ATOM     29  O7  UNL     1      71.580  57.186  98.458  0.00  0.00    +0.000 OA
ATOM     30  C38 UNL     1      73.770  56.259  98.250  0.00  0.00    +0.000 C 
ATOM     31  C39 UNL     1      74.700  56.702  97.114  0.00  0.00    +0.000 C 
ATOM     32  N7  UNL     1      74.550  55.858  99.427  0.00  0.00    +0.000 N 
ATOM     33  C40 UNL     1      75.368  54.677  99.446  0.00  0.00    +0.000 C 
ATOM     34  O8  UNL     1      75.339  53.878  98.471  0.00  0.00    +0.000 OA
ATOM     35  C41 UNL     1      76.280  54.422 100.634  0.00  0.00    +0.000 C 
ATOM     36  N8  UNL     1      77.464  53.612 100.264  0.00  0.00    +0.000 N 
ATOM     37  C46 UNL     1      77.311  52.238  99.770  0.00  0.00    +0.000 C 
ATOM     38  C47 UNL     1      78.781  54.073 100.647  0.00  0.00    +0.000 C 
ATOM     39  O9  UNL     1      78.902  54.875 101.612  0.00  0.00    +0.000 OA
ATOM     40  C48 UNL     1      80.021  53.649  99.885  0.00  0.00    +0.000 C 
ATOM     41  N9  UNL     1      81.198  53.745 100.756  0.00  0.00    +0.000 N 
ATOM     42  C49 UNL     1      81.742  52.607 101.447  0.00  0.00    +0.000 C 
ATOM     43  O10 UNL     1      81.244  51.464 101.246  0.00  0.00    +0.000 OA
ATOM     44  C50 UNL     1      82.817  52.770 102.507  0.00  0.00    +0.000 C 
ATOM     45  N10 UNL     1      83.578  54.022 102.299  0.00  0.00    +0.000 N 
ATOM     46  C55 UNL     1      84.395  54.204 101.090  0.00  0.00    +0.000 C 
ATOM     47  C56 UNL     1      83.361  55.148 103.175  0.00  0.00    +0.000 C 
ATOM     48  O11 UNL     1      82.254  55.281 103.767  0.00  0.00    +0.000 OA
ATOM     49  C57 UNL     1      84.415  56.212 103.359  0.00  0.00    +0.000 C 
ATOM     50  N11 UNL     1      84.492  56.695 104.747  0.00  0.00    +0.000 N 
ATOM     51  C58 UNL     1      84.591  55.729 105.852  0.00  0.00    +0.000 C 
ATOM     52  C59 UNL     1      84.871  58.071 104.987  0.00  0.00    +0.000 C 
ATOM     53  O12 UNL     1      85.484  58.710 104.088  0.00  0.00    +0.000 OA
ATOM     54  H7  UNL     1      85.040  60.865 106.669  0.00  0.00    +0.000 HD
ATOM     55  H66 UNL     1      74.362  58.652  99.283  0.00  0.00    +0.000 HD
ATOM     56  H71 UNL     1      74.518  56.443 100.294  0.00  0.00    +0.000 HD
ATOM     57  H86 UNL     1      81.523  54.698 101.030  0.00  0.00    +0.000 HD
ENDROOT
BRANCH  10  58
ATOM     58  C16 UNL     1      79.580  64.630 106.643  0.00  0.00    +0.000 C 
ATOM     59  C17 UNL     1      79.695  65.908 105.799  0.00  0.00    +0.000 C 
ATOM     60  C18 UNL     1      78.558  64.831 107.771  0.00  0.00    +0.000 C 
ENDBRANCH  10  58
BRANCH  40  61
ATOM     61  C60 UNL     1      80.200  54.477  98.583  0.00  0.00    +0.000 C 
ATOM     62  C61 UNL     1      81.551  55.203  98.492  0.00  0.00    +0.000 C 
ATOM     63  C62 UNL     1      79.988  53.597  97.344  0.00  0.00    +0.000 C 
ENDBRANCH  40  61
BRANCH   1  65
ATOM     64  C1  UNL     1      86.379  59.746 107.889  0.00  0.00    +0.000 C 
ATOM     65  C2  UNL     1      85.684  58.482 107.368  0.00  0.00    +0.000 C 
ENDBRANCH   1  65
BRANCH   5  66
ATOM     66  C6  UNL     1      83.201  63.049 104.173  0.00  0.00    +0.000 C 
BRANCH  66  67
ATOM     67  O2  UNL     1      82.445  64.227 104.242  0.00  0.00    +0.000 OA
ATOM     68  H10 UNL     1      82.174  64.355 105.190  0.00  0.00    +0.000 HD
ENDBRANCH  66  67
BRANCH  66  69
ATOM     69  C7  UNL     1      84.661  63.417 103.747  0.00  0.00    +0.000 C 
ATOM     70  C8  UNL     1      85.484  62.227 103.233  0.00  0.00    +0.000 C 
BRANCH  69  71
ATOM     71  C9  UNL     1      85.440  64.312 104.748  0.00  0.00    +0.000 C 
BRANCH  71  72
ATOM     72  C10 UNL     1      86.257  63.560 105.771  0.00  0.00    +0.000 C 
ATOM     73  C11 UNL     1      86.816  64.182 106.820  0.00  0.00    +0.000 C 
ATOM     74  C12 UNL     1      87.664  63.431 107.802  0.00  0.00    +0.000 C 
ENDBRANCH  71  72
ENDBRANCH  69  71
ENDBRANCH  66  69
ENDBRANCH   5  66
BRANCH  15  75
ATOM     75  C22 UNL     1      75.432  64.574 104.010  0.00  0.00    +0.000 C 
BRANCH  75  76
ATOM     76  C23 UNL     1      74.821  65.767 104.781  0.00  0.00    +0.000 C 
ATOM     77  C24 UNL     1      75.250  65.775 106.259  0.00  0.00    +0.000 C 
ATOM     78  C25 UNL     1      73.288  65.719 104.694  0.00  0.00    +0.000 C 
ENDBRANCH  75  76
ENDBRANCH  15  75
BRANCH  20  79
ATOM     79  C29 UNL     1      72.229  62.711 102.243  0.00  0.00    +0.000 C 
BRANCH  79  80
ATOM     80  C30 UNL     1      70.795  62.774 102.828  0.00  0.00    +0.000 C 
ATOM     81  C31 UNL     1      70.626  61.812 104.013  0.00  0.00    +0.000 C 
ATOM     82  C32 UNL     1      69.762  62.443 101.741  0.00  0.00    +0.000 C 
ENDBRANCH  79  80
ENDBRANCH  20  79
BRANCH  35  83
ATOM     83  C42 UNL     1      75.603  53.859 101.923  0.00  0.00    +0.000 C 
BRANCH  83  84
ATOM     84  C43 UNL     1      75.572  54.759 103.189  0.00  0.00    +0.000 C 
ATOM     85  C44 UNL     1      76.577  54.292 104.250  0.00  0.00    +0.000 C 
ATOM     86  C45 UNL     1      75.882  56.213 102.796  0.00  0.00    +0.000 C 
ENDBRANCH  83  84
ENDBRANCH  35  83
BRANCH  44  87
ATOM     87  C51 UNL     1      83.759  51.525 102.561  0.00  0.00    +0.000 C 
BRANCH  87  88
ATOM     88  C52 UNL     1      84.509  51.275 103.894  0.00  0.00    +0.000 C 
ATOM     89  C53 UNL     1      85.960  51.777 103.883  0.00  0.00    +0.000 C 
ATOM     90  C54 UNL     1      83.748  51.800 105.120  0.00  0.00    +0.000 C 
ENDBRANCH  87  88
ENDBRANCH  44  87
TORSDOF 16
ENDMDL
MODEL 6
REMARK VINA RESULT:      -6.7      2.509     13.123
REMARK  Name = ./S1514.pdb
REMARK  40 active torsions:
REMARK  status: ('A' for Active; 'I' for Inactive)
REMARK    1  A    between atoms: C1_1  and  C2_2
REMARK    2  A    between atoms: C2_2  and  C3_3
REMARK    3  A    between atoms: C5_7  and  C6_8
REMARK    4  A    between atoms: C6_8  and  O2_9
REMARK    5  A    between atoms: C6_8  and  C7_10
REMARK    6  A    between atoms: C7_10  and  C8_11
REMARK    7  A    between atoms: C7_10  and  C9_12
REMARK    8  A    between atoms: C9_12  and  C10_13
REMARK    9  A    between atoms: C11_14  and  C12_15
REMARK   10  A    between atoms: N2_16  and  C13_17
REMARK   11  A    between atoms: C15_20  and  C16_21
REMARK   12  A    between atoms: C16_21  and  C17_22
REMARK   13  A    between atoms: C16_21  and  C18_23
REMARK   14  A    between atoms: N3_24  and  C19_25
REMARK   15  A    between atoms: C21_28  and  C22_29
REMARK   16  A    between atoms: C22_29  and  C23_30
REMARK   17  A    between atoms: C23_30  and  C24_31
REMARK   18  A    between atoms: C23_30  and  C25_32
REMARK   19  A    between atoms: N4_33  and  C26_34
REMARK   20  A    between atoms: C28_37  and  C29_38
REMARK   21  A    between atoms: C29_38  and  C30_39
REMARK   22  A    between atoms: C30_39  and  C31_40
REMARK   23  A    between atoms: C30_39  and  C32_41
REMARK   24  A    between atoms: N5_42  and  C33_43
REMARK   25  A    between atoms: C35_46  and  C36_47
REMARK   26  A    between atoms: C38_51  and  C39_52
REMARK   27  A    between atoms: C41_56  and  C42_57
REMARK   28  A    between atoms: C42_57  and  C43_58
REMARK   29  A    between atoms: C43_58  and  C44_59
REMARK   30  A    between atoms: C43_58  and  C45_60
REMARK   31  A    between atoms: N8_61  and  C46_62
REMARK   32  A    between atoms: C48_65  and  C60_83
REMARK   33  A    between atoms: C50_69  and  C51_70
REMARK   34  A    between atoms: C51_70  and  C52_71
REMARK   35  A    between atoms: C52_71  and  C53_72
REMARK   36  A    between atoms: C52_71  and  C54_73
REMARK   37  A    between atoms: N10_74  and  C55_75
REMARK   38  A    between atoms: N11_79  and  C58_80
REMARK   39  A    between atoms: C60_83  and  C61_84
REMARK   40  A    between atoms: C60_83  and  C62_85
REMARK                            x       y       z     vdW  Elec       q    Type
REMARK                         _______ _______ _______ _____ _____    ______ ____
ROOT
ATOM      1  C3  UNL     1      72.191  65.157 108.607  0.00  0.00    +0.000 C 
ATOM      2  N1  UNL     1      72.476  63.943 107.827  0.00  0.00    +0.000 N 
ATOM      3  C4  UNL     1      73.040  63.973 106.505  0.00  0.00    +0.000 C 
ATOM      4  O1  UNL     1      73.080  65.054 105.861  0.00  0.00    +0.000 OA
ATOM      5  C5  UNL     1      73.622  62.712 105.904  0.00  0.00    +0.000 C 
ATOM      6  N2  UNL     1      75.083  62.887 105.721  0.00  0.00    +0.000 N 
ATOM      7  C13 UNL     1      75.903  62.837 106.940  0.00  0.00    +0.000 C 
ATOM      8  C14 UNL     1      75.652  63.409 104.493  0.00  0.00    +0.000 C 
ATOM      9  O3  UNL     1      75.015  64.289 103.854  0.00  0.00    +0.000 OA
ATOM     10  C15 UNL     1      77.054  63.037 104.013  0.00  0.00    +0.000 C 
ATOM     11  N3  UNL     1      77.276  63.439 102.598  0.00  0.00    +0.000 N 
ATOM     12  C19 UNL     1      76.341  63.039 101.534  0.00  0.00    +0.000 C 
ATOM     13  C20 UNL     1      78.089  64.601 102.349  0.00  0.00    +0.000 C 
ATOM     14  O4  UNL     1      77.762  65.691 102.900  0.00  0.00    +0.000 OA
ATOM     15  C21 UNL     1      79.409  64.534 101.594  0.00  0.00    +0.000 C 
ATOM     16  N4  UNL     1      79.881  65.901 101.275  0.00  0.00    +0.000 N 
ATOM     17  C26 UNL     1      80.880  66.548 102.134  0.00  0.00    +0.000 C 
ATOM     18  C27 UNL     1      79.259  66.656 100.208  0.00  0.00    +0.000 C 
ATOM     19  O5  UNL     1      78.050  66.443  99.923  0.00  0.00    +0.000 OA
ATOM     20  C28 UNL     1      80.052  67.629  99.357  0.00  0.00    +0.000 C 
ATOM     21  N5  UNL     1      79.197  68.775  98.977  0.00  0.00    +0.000 N 
ATOM     22  C33 UNL     1      79.003  69.847  99.963  0.00  0.00    +0.000 C 
ATOM     23  C34 UNL     1      78.395  68.772  97.770  0.00  0.00    +0.000 C 
ATOM     24  O6  UNL     1      77.887  67.692  97.358  0.00  0.00    +0.000 OA
ATOM     25  C35 UNL     1      78.159  70.028  96.963  0.00  0.00    +0.000 C 
ATOM     26  C36 UNL     1      79.505  70.611  96.509  0.00  0.00    +0.000 C 
ATOM     27  N6  UNL     1      77.326  70.964  97.738  0.00  0.00    +0.000 N 
ATOM     28  C37 UNL     1      77.223  72.388  97.548  0.00  0.00    +0.000 C 
ATOM     29  O7  UNL     1      78.113  73.031  96.931  0.00  0.00    +0.000 OA
ATOM     30  C38 UNL     1      76.055  73.140  98.136  0.00  0.00    +0.000 C 
ATOM     31  C39 UNL     1      74.746  72.672  97.488  0.00  0.00    +0.000 C 
ATOM     32  N7  UNL     1      76.004  72.952  99.591  0.00  0.00    +0.000 N 
ATOM     33  C40 UNL     1      75.143  73.726 100.440  0.00  0.00    +0.000 C 
ATOM     34  O8  UNL     1      74.484  74.687  99.957  0.00  0.00    +0.000 OA
ATOM     35  C41 UNL     1      75.017  73.358 101.909  0.00  0.00    +0.000 C 
ATOM     36  N8  UNL     1      73.707  73.757 102.474  0.00  0.00    +0.000 N 
ATOM     37  C46 UNL     1      73.314  75.170 102.539  0.00  0.00    +0.000 C 
ATOM     38  C47 UNL     1      72.931  72.783 103.210  0.00  0.00    +0.000 C 
ATOM     39  O9  UNL     1      73.511  71.789 103.727  0.00  0.00    +0.000 OA
ATOM     40  C48 UNL     1      71.426  72.902 103.339  0.00  0.00    +0.000 C 
ATOM     41  N9  UNL     1      70.970  72.194 104.541  0.00  0.00    +0.000 N 
ATOM     42  C49 UNL     1      70.712  72.872 105.784  0.00  0.00    +0.000 C 
ATOM     43  O10 UNL     1      70.803  74.130 105.834  0.00  0.00    +0.000 OA
ATOM     44  C50 UNL     1      70.457  72.096 107.064  0.00  0.00    +0.000 C 
ATOM     45  N10 UNL     1      69.943  70.740 106.767  0.00  0.00    +0.000 N 
ATOM     46  C55 UNL     1      68.640  70.566 106.109  0.00  0.00    +0.000 C 
ATOM     47  C56 UNL     1      70.805  69.594 106.931  0.00  0.00    +0.000 C 
ATOM     48  O11 UNL     1      72.057  69.730 106.840  0.00  0.00    +0.000 OA
ATOM     49  C57 UNL     1      70.239  68.213 107.154  0.00  0.00    +0.000 C 
ATOM     50  N11 UNL     1      71.034  67.427 108.112  0.00  0.00    +0.000 N 
ATOM     51  C58 UNL     1      71.397  68.010 109.412  0.00  0.00    +0.000 C 
ATOM     52  C59 UNL     1      71.102  65.991 107.947  0.00  0.00    +0.000 C 
ATOM     53  O12 UNL     1      70.217  65.403 107.266  0.00  0.00    +0.000 OA
ATOM     54  H7  UNL     1      72.393  63.010 108.289  0.00  0.00    +0.000 HD
ATOM     55  H66 UNL     1      76.570  70.522  98.310  0.00  0.00    +0.000 HD
ATOM     56  H71 UNL     1      76.616  72.234 100.043  0.00  0.00    +0.000 HD
ATOM     57  H86 UNL     1      71.027  71.153 104.542  0.00  0.00    +0.000 HD
ENDROOT
BRANCH  10  58
ATOM     58  C16 UNL     1      77.477  61.548 104.290  0.00  0.00    +0.000 C 
ATOM     59  C17 UNL     1      76.495  60.477 103.792  0.00  0.00    +0.000 C 
ATOM     60  C18 UNL     1      78.883  61.275 103.737  0.00  0.00    +0.000 C 
ENDBRANCH  10  58
BRANCH  40  61
ATOM     61  C60 UNL     1      70.703  72.391 102.063  0.00  0.00    +0.000 C 
ATOM     62  C61 UNL     1      71.541  72.520 100.782  0.00  0.00    +0.000 C 
ATOM     63  C62 UNL     1      70.237  70.939 102.246  0.00  0.00    +0.000 C 
ENDBRANCH  40  61
BRANCH   1  65
ATOM     64  C1  UNL     1      72.982  65.005 111.059  0.00  0.00    +0.000 C 
ATOM     65  C2  UNL     1      71.837  64.776 110.065  0.00  0.00    +0.000 C 
ENDBRANCH   1  65
BRANCH   5  66
ATOM     66  C6  UNL     1      72.884  62.266 104.603  0.00  0.00    +0.000 C 
BRANCH  66  67
ATOM     67  O2  UNL     1      73.136  60.905 104.386  0.00  0.00    +0.000 OA
ATOM     68  H10 UNL     1      72.704  60.398 105.123  0.00  0.00    +0.000 HD
ENDBRANCH  66  67
BRANCH  66  69
ATOM     69  C7  UNL     1      71.337  62.499 104.565  0.00  0.00    +0.000 C 
ATOM     70  C8  UNL     1      70.519  61.397 105.255  0.00  0.00    +0.000 C 
BRANCH  69  71
ATOM     71  C9  UNL     1      70.761  62.915 103.185  0.00  0.00    +0.000 C 
BRANCH  71  72
ATOM     72  C10 UNL     1      70.129  61.794 102.395  0.00  0.00    +0.000 C 
ATOM     73  C11 UNL     1      69.490  62.022 101.238  0.00  0.00    +0.000 C 
ATOM     74  C12 UNL     1      68.826  60.907 100.489  0.00  0.00    +0.000 C 
ENDBRANCH  71  72
ENDBRANCH  69  71
ENDBRANCH  66  69
ENDBRANCH   5  66
BRANCH  15  75
ATOM     75  C22 UNL     1      79.373  63.684 100.292  0.00  0.00    +0.000 C 
BRANCH  75  76
ATOM     76  C23 UNL     1      80.684  62.928  99.973  0.00  0.00    +0.000 C 
ATOM     77  C24 UNL     1      81.752  63.148 101.058  0.00  0.00    +0.000 C 
ATOM     78  C25 UNL     1      81.235  63.383  98.613  0.00  0.00    +0.000 C 
ENDBRANCH  75  76
ENDBRANCH  15  75
BRANCH  20  79
ATOM     79  C29 UNL     1      80.665  66.919  98.120  0.00  0.00    +0.000 C 
BRANCH  79  80
ATOM     80  C30 UNL     1      82.163  67.245  97.893  0.00  0.00    +0.000 C 
ATOM     81  C31 UNL     1      82.624  66.826  96.489  0.00  0.00    +0.000 C 
ATOM     82  C32 UNL     1      83.026  66.545  98.953  0.00  0.00    +0.000 C 
ENDBRANCH  79  80
ENDBRANCH  20  79
BRANCH  35  83
ATOM     83  C42 UNL     1      76.184  73.809 102.842  0.00  0.00    +0.000 C 
BRANCH  83  84
ATOM     84  C43 UNL     1      77.052  72.711 103.515  0.00  0.00    +0.000 C 
ATOM     85  C44 UNL     1      76.712  72.540 105.001  0.00  0.00    +0.000 C 
ATOM     86  C45 UNL     1      76.848  71.373 102.787  0.00  0.00    +0.000 C 
ENDBRANCH  83  84
ENDBRANCH  35  83
BRANCH  44  87
ATOM     87  C51 UNL     1      69.502  72.876 108.023  0.00  0.00    +0.000 C 
BRANCH  87  88
ATOM     88  C52 UNL     1      70.134  73.461 109.312  0.00  0.00    +0.000 C 
ATOM     89  C53 UNL     1      71.547  74.023 109.101  0.00  0.00    +0.000 C 
ATOM     90  C54 UNL     1      69.229  74.483 110.015  0.00  0.00    +0.000 C 
ENDBRANCH  87  88
ENDBRANCH  44  87
TORSDOF 16
ENDMDL
MODEL 7
REMARK VINA RESULT:      -6.6      2.368     10.406
REMARK  Name = ./S1514.pdb
REMARK  40 active torsions:
REMARK  status: ('A' for Active; 'I' for Inactive)
REMARK    1  A    between atoms: C1_1  and  C2_2
REMARK    2  A    between atoms: C2_2  and  C3_3
REMARK    3  A    between atoms: C5_7  and  C6_8
REMARK    4  A    between atoms: C6_8  and  O2_9
REMARK    5  A    between atoms: C6_8  and  C7_10
REMARK    6  A    between atoms: C7_10  and  C8_11
REMARK    7  A    between atoms: C7_10  and  C9_12
REMARK    8  A    between atoms: C9_12  and  C10_13
REMARK    9  A    between atoms: C11_14  and  C12_15
REMARK   10  A    between atoms: N2_16  and  C13_17
REMARK   11  A    between atoms: C15_20  and  C16_21
REMARK   12  A    between atoms: C16_21  and  C17_22
REMARK   13  A    between atoms: C16_21  and  C18_23
REMARK   14  A    between atoms: N3_24  and  C19_25
REMARK   15  A    between atoms: C21_28  and  C22_29
REMARK   16  A    between atoms: C22_29  and  C23_30
REMARK   17  A    between atoms: C23_30  and  C24_31
REMARK   18  A    between atoms: C23_30  and  C25_32
REMARK   19  A    between atoms: N4_33  and  C26_34
REMARK   20  A    between atoms: C28_37  and  C29_38
REMARK   21  A    between atoms: C29_38  and  C30_39
REMARK   22  A    between atoms: C30_39  and  C31_40
REMARK   23  A    between atoms: C30_39  and  C32_41
REMARK   24  A    between atoms: N5_42  and  C33_43
REMARK   25  A    between atoms: C35_46  and  C36_47
REMARK   26  A    between atoms: C38_51  and  C39_52
REMARK   27  A    between atoms: C41_56  and  C42_57
REMARK   28  A    between atoms: C42_57  and  C43_58
REMARK   29  A    between atoms: C43_58  and  C44_59
REMARK   30  A    between atoms: C43_58  and  C45_60
REMARK   31  A    between atoms: N8_61  and  C46_62
REMARK   32  A    between atoms: C48_65  and  C60_83
REMARK   33  A    between atoms: C50_69  and  C51_70
REMARK   34  A    between atoms: C51_70  and  C52_71
REMARK   35  A    between atoms: C52_71  and  C53_72
REMARK   36  A    between atoms: C52_71  and  C54_73
REMARK   37  A    between atoms: N10_74  and  C55_75
REMARK   38  A    between atoms: N11_79  and  C58_80
REMARK   39  A    between atoms: C60_83  and  C61_84
REMARK   40  A    between atoms: C60_83  and  C62_85
REMARK                            x       y       z     vdW  Elec       q    Type
REMARK                         _______ _______ _______ _____ _____    ______ ____
ROOT
ATOM      1  C3  UNL     1      74.118  63.746 107.621  0.00  0.00    +0.000 C 
ATOM      2  N1  UNL     1      73.577  64.913 108.334  0.00  0.00    +0.000 N 
ATOM      3  C4  UNL     1      73.748  66.264 107.874  0.00  0.00    +0.000 C 
ATOM      4  O1  UNL     1      74.585  66.521 106.969  0.00  0.00    +0.000 OA
ATOM      5  C5  UNL     1      72.891  67.371 108.449  0.00  0.00    +0.000 C 
ATOM      6  N2  UNL     1      72.013  67.912 107.384  0.00  0.00    +0.000 N 
ATOM      7  C13 UNL     1      70.877  67.068 106.985  0.00  0.00    +0.000 C 
ATOM      8  C14 UNL     1      72.408  69.026 106.545  0.00  0.00    +0.000 C 
ATOM      9  O3  UNL     1      73.621  69.141 106.221  0.00  0.00    +0.000 OA
ATOM     10  C15 UNL     1      71.397  69.988 105.923  0.00  0.00    +0.000 C 
ATOM     11  N3  UNL     1      72.057  71.207 105.382  0.00  0.00    +0.000 N 
ATOM     12  C19 UNL     1      72.963  72.017 106.212  0.00  0.00    +0.000 C 
ATOM     13  C20 UNL     1      72.214  71.309 103.955  0.00  0.00    +0.000 C 
ATOM     14  O4  UNL     1      72.814  70.375 103.349  0.00  0.00    +0.000 OA
ATOM     15  C21 UNL     1      71.546  72.400 103.130  0.00  0.00    +0.000 C 
ATOM     16  N4  UNL     1      72.091  72.401 101.753  0.00  0.00    +0.000 N 
ATOM     17  C26 UNL     1      71.362  71.717 100.679  0.00  0.00    +0.000 C 
ATOM     18  C27 UNL     1      73.405  72.947 101.490  0.00  0.00    +0.000 C 
ATOM     19  O5  UNL     1      74.281  72.915 102.396  0.00  0.00    +0.000 OA
ATOM     20  C28 UNL     1      73.729  73.646 100.184  0.00  0.00    +0.000 C 
ATOM     21  N5  UNL     1      75.135  73.381  99.808  0.00  0.00    +0.000 N 
ATOM     22  C33 UNL     1      75.444  72.099  99.159  0.00  0.00    +0.000 C 
ATOM     23  C34 UNL     1      76.223  74.237 100.237  0.00  0.00    +0.000 C 
ATOM     24  O6  UNL     1      76.171  74.796 101.368  0.00  0.00    +0.000 OA
ATOM     25  C35 UNL     1      77.423  74.505  99.359  0.00  0.00    +0.000 C 
ATOM     26  C36 UNL     1      76.965  75.130  98.033  0.00  0.00    +0.000 C 
ATOM     27  N6  UNL     1      78.208  73.268  99.205  0.00  0.00    +0.000 N 
ATOM     28  C37 UNL     1      79.144  72.966  98.152  0.00  0.00    +0.000 C 
ATOM     29  O7  UNL     1      79.117  73.585  97.056  0.00  0.00    +0.000 OA
ATOM     30  C38 UNL     1      80.150  71.857  98.339  0.00  0.00    +0.000 C 
ATOM     31  C39 UNL     1      81.111  72.203  99.483  0.00  0.00    +0.000 C 
ATOM     32  N7  UNL     1      79.467  70.586  98.609  0.00  0.00    +0.000 N 
ATOM     33  C40 UNL     1      80.152  69.323  98.603  0.00  0.00    +0.000 C 
ATOM     34  O8  UNL     1      81.359  69.267  98.241  0.00  0.00    +0.000 OA
ATOM     35  C41 UNL     1      79.419  68.075  99.060  0.00  0.00    +0.000 C 
ATOM     36  N8  UNL     1      80.342  67.054  99.609  0.00  0.00    +0.000 N 
ATOM     37  C46 UNL     1      81.373  66.440  98.763  0.00  0.00    +0.000 C 
ATOM     38  C47 UNL     1      80.055  66.464 100.898  0.00  0.00    +0.000 C 
ATOM     39  O9  UNL     1      78.873  66.478 101.338  0.00  0.00    +0.000 OA
ATOM     40  C48 UNL     1      81.151  65.868 101.758  0.00  0.00    +0.000 C 
ATOM     41  N9  UNL     1      80.581  64.868 102.670  0.00  0.00    +0.000 N 
ATOM     42  C49 UNL     1      80.612  63.458 102.384  0.00  0.00    +0.000 C 
ATOM     43  O10 UNL     1      81.216  63.047 101.354  0.00  0.00    +0.000 OA
ATOM     44  C50 UNL     1      79.828  62.468 103.228  0.00  0.00    +0.000 C 
ATOM     45  N10 UNL     1      79.581  63.008 104.583  0.00  0.00    +0.000 N 
ATOM     46  C55 UNL     1      80.703  63.274 105.495  0.00  0.00    +0.000 C 
ATOM     47  C56 UNL     1      78.261  63.470 104.941  0.00  0.00    +0.000 C 
ATOM     48  O11 UNL     1      77.472  63.879 104.045  0.00  0.00    +0.000 OA
ATOM     49  C57 UNL     1      77.817  63.532 106.382  0.00  0.00    +0.000 C 
ATOM     50  N11 UNL     1      76.407  63.146 106.555  0.00  0.00    +0.000 N 
ATOM     51  C58 UNL     1      75.914  61.896 105.957  0.00  0.00    +0.000 C 
ATOM     52  C59 UNL     1      75.640  63.763 107.615  0.00  0.00    +0.000 C 
ATOM     53  O12 UNL     1      76.244  64.301 108.584  0.00  0.00    +0.000 OA
ATOM     54  H7  UNL     1      72.930  64.761 109.139  0.00  0.00    +0.000 HD
ATOM     55  H66 UNL     1      78.269  72.666 100.058  0.00  0.00    +0.000 HD
ATOM     56  H71 UNL     1      78.440  70.581  98.811  0.00  0.00    +0.000 HD
ATOM     57  H86 UNL     1      79.968  65.208 103.442  0.00  0.00    +0.000 HD
ENDROOT
BRANCH  10  58
ATOM     58  C16 UNL     1      70.158  70.326 106.830  0.00  0.00    +0.000 C 
ATOM     59  C17 UNL     1      70.275  71.616 107.657  0.00  0.00    +0.000 C 
ATOM     60  C18 UNL     1      68.869  70.347 105.997  0.00  0.00    +0.000 C 
ENDBRANCH  10  58
BRANCH  40  61
ATOM     61  C60 UNL     1      81.932  66.967 102.529  0.00  0.00    +0.000 C 
ATOM     62  C61 UNL     1      81.513  67.109 104.000  0.00  0.00    +0.000 C 
ATOM     63  C62 UNL     1      83.446  66.730 102.430  0.00  0.00    +0.000 C 
ENDBRANCH  40  61
BRANCH   1  65
ATOM     64  C1  UNL     1      74.434  61.828 109.318  0.00  0.00    +0.000 C 
ATOM     65  C2  UNL     1      73.546  62.443 108.230  0.00  0.00    +0.000 C 
ENDBRANCH   1  65
BRANCH   5  66
ATOM     66  C6  UNL     1      73.730  68.468 109.176  0.00  0.00    +0.000 C 
BRANCH  66  67
ATOM     67  O2  UNL     1      72.938  69.615 109.326  0.00  0.00    +0.000 OA
ATOM     68  H10 UNL     1      73.549  70.396 109.384  0.00  0.00    +0.000 HD
ENDBRANCH  66  67
BRANCH  66  69
ATOM     69  C7  UNL     1      74.320  68.083 110.573  0.00  0.00    +0.000 C 
ATOM     70  C8  UNL     1      75.851  67.980 110.602  0.00  0.00    +0.000 C 
BRANCH  69  71
ATOM     71  C9  UNL     1      73.614  66.899 111.288  0.00  0.00    +0.000 C 
BRANCH  71  72
ATOM     72  C10 UNL     1      74.537  65.968 112.038  0.00  0.00    +0.000 C 
ATOM     73  C11 UNL     1      74.593  64.657 111.758  0.00  0.00    +0.000 C 
ATOM     74  C12 UNL     1      75.479  63.737 112.542  0.00  0.00    +0.000 C 
ENDBRANCH  71  72
ENDBRANCH  69  71
ENDBRANCH  66  69
ENDBRANCH   5  66
BRANCH  15  75
ATOM     75  C22 UNL     1      71.657  73.831 103.730  0.00  0.00    +0.000 C 
BRANCH  75  76
ATOM     76  C23 UNL     1      70.315  74.587 103.861  0.00  0.00    +0.000 C 
ATOM     77  C24 UNL     1      70.524  76.079 104.172  0.00  0.00    +0.000 C 
ATOM     78  C25 UNL     1      69.458  73.950 104.965  0.00  0.00    +0.000 C 
ENDBRANCH  75  76
ENDBRANCH  15  75
BRANCH  20  79
ATOM     79  C29 UNL     1      73.422  75.165 100.272  0.00  0.00    +0.000 C 
BRANCH  79  80
ATOM     80  C30 UNL     1      72.178  75.598  99.455  0.00  0.00    +0.000 C 
ATOM     81  C31 UNL     1      72.473  76.833  98.591  0.00  0.00    +0.000 C 
ATOM     82  C32 UNL     1      71.000  75.893 100.395  0.00  0.00    +0.000 C 
ENDBRANCH  79  80
ENDBRANCH  20  79
BRANCH  35  83
ATOM     83  C42 UNL     1      78.430  67.434  98.037  0.00  0.00    +0.000 C 
BRANCH  83  84
ATOM     84  C43 UNL     1      76.915  67.428  98.384  0.00  0.00    +0.000 C 
ATOM     85  C44 UNL     1      76.425  66.033  98.792  0.00  0.00    +0.000 C 
ATOM     86  C45 UNL     1      76.644  68.420  99.527  0.00  0.00    +0.000 C 
ENDBRANCH  83  84
ENDBRANCH  35  83
BRANCH  44  87
ATOM     87  C51 UNL     1      80.538  61.078 103.282  0.00  0.00    +0.000 C 
BRANCH  87  88
ATOM     88  C52 UNL     1      79.928  60.021 104.238  0.00  0.00    +0.000 C 
ATOM     89  C53 UNL     1      78.597  59.440 103.741  0.00  0.00    +0.000 C 
ATOM     90  C54 UNL     1      80.916  58.905 104.610  0.00  0.00    +0.000 C 
ENDBRANCH  87  88
ENDBRANCH  44  87
TORSDOF 16
ENDMDL
MODEL 8
REMARK VINA RESULT:      -6.6      2.468     11.366
REMARK  Name = ./S1514.pdb
REMARK  40 active torsions:
REMARK  status: ('A' for Active; 'I' for Inactive)
REMARK    1  A    between atoms: C1_1  and  C2_2
REMARK    2  A    between atoms: C2_2  and  C3_3
REMARK    3  A    between atoms: C5_7  and  C6_8
REMARK    4  A    between atoms: C6_8  and  O2_9
REMARK    5  A    between atoms: C6_8  and  C7_10
REMARK    6  A    between atoms: C7_10  and  C8_11
REMARK    7  A    between atoms: C7_10  and  C9_12
REMARK    8  A    between atoms: C9_12  and  C10_13
REMARK    9  A    between atoms: C11_14  and  C12_15
REMARK   10  A    between atoms: N2_16  and  C13_17
REMARK   11  A    between atoms: C15_20  and  C16_21
REMARK   12  A    between atoms: C16_21  and  C17_22
REMARK   13  A    between atoms: C16_21  and  C18_23
REMARK   14  A    between atoms: N3_24  and  C19_25
REMARK   15  A    between atoms: C21_28  and  C22_29
REMARK   16  A    between atoms: C22_29  and  C23_30
REMARK   17  A    between atoms: C23_30  and  C24_31
REMARK   18  A    between atoms: C23_30  and  C25_32
REMARK   19  A    between atoms: N4_33  and  C26_34
REMARK   20  A    between atoms: C28_37  and  C29_38
REMARK   21  A    between atoms: C29_38  and  C30_39
REMARK   22  A    between atoms: C30_39  and  C31_40
REMARK   23  A    between atoms: C30_39  and  C32_41
REMARK   24  A    between atoms: N5_42  and  C33_43
REMARK   25  A    between atoms: C35_46  and  C36_47
REMARK   26  A    between atoms: C38_51  and  C39_52
REMARK   27  A    between atoms: C41_56  and  C42_57
REMARK   28  A    between atoms: C42_57  and  C43_58
REMARK   29  A    between atoms: C43_58  and  C44_59
REMARK   30  A    between atoms: C43_58  and  C45_60
REMARK   31  A    between atoms: N8_61  and  C46_62
REMARK   32  A    between atoms: C48_65  and  C60_83
REMARK   33  A    between atoms: C50_69  and  C51_70
REMARK   34  A    between atoms: C51_70  and  C52_71
REMARK   35  A    between atoms: C52_71  and  C53_72
REMARK   36  A    between atoms: C52_71  and  C54_73
REMARK   37  A    between atoms: N10_74  and  C55_75
REMARK   38  A    between atoms: N11_79  and  C58_80
REMARK   39  A    between atoms: C60_83  and  C61_84
REMARK   40  A    between atoms: C60_83  and  C62_85
REMARK                            x       y       z     vdW  Elec       q    Type
REMARK                         _______ _______ _______ _____ _____    ______ ____
ROOT
ATOM      1  C3  UNL     1      81.434  63.914 104.976  0.00  0.00    +0.000 C 
ATOM      2  N1  UNL     1      81.747  64.269 103.583  0.00  0.00    +0.000 N 
ATOM      3  C4  UNL     1      80.956  65.186 102.810  0.00  0.00    +0.000 C 
ATOM      4  O1  UNL     1      79.815  65.533 103.215  0.00  0.00    +0.000 OA
ATOM      5  C5  UNL     1      81.512  65.767 101.528  0.00  0.00    +0.000 C 
ATOM      6  N2  UNL     1      81.692  67.230 101.693  0.00  0.00    +0.000 N 
ATOM      7  C13 UNL     1      82.826  67.657 102.527  0.00  0.00    +0.000 C 
ATOM      8  C14 UNL     1      80.653  68.182 101.352  0.00  0.00    +0.000 C 
ATOM      9  O3  UNL     1      79.449  67.859 101.540  0.00  0.00    +0.000 OA
ATOM     10  C15 UNL     1      80.960  69.611 100.905  0.00  0.00    +0.000 C 
ATOM     11  N3  UNL     1      79.764  70.273 100.317  0.00  0.00    +0.000 N 
ATOM     12  C19 UNL     1      78.997  69.640  99.231  0.00  0.00    +0.000 C 
ATOM     13  C20 UNL     1      79.074  71.250 101.119  0.00  0.00    +0.000 C 
ATOM     14  O4  UNL     1      78.668  70.906 102.266  0.00  0.00    +0.000 OA
ATOM     15  C21 UNL     1      78.966  72.714 100.716  0.00  0.00    +0.000 C 
ATOM     16  N4  UNL     1      77.996  73.411 101.593  0.00  0.00    +0.000 N 
ATOM     17  C26 UNL     1      78.478  74.190 102.739  0.00  0.00    +0.000 C 
ATOM     18  C27 UNL     1      76.575  73.211 101.410  0.00  0.00    +0.000 C 
ATOM     19  O5  UNL     1      76.160  72.117 100.940  0.00  0.00    +0.000 OA
ATOM     20  C28 UNL     1      75.575  74.319 101.677  0.00  0.00    +0.000 C 
ATOM     21  N5  UNL     1      74.320  73.745 102.210  0.00  0.00    +0.000 N 
ATOM     22  C33 UNL     1      74.271  73.403 103.638  0.00  0.00    +0.000 C 
ATOM     23  C34 UNL     1      73.235  73.327 101.345  0.00  0.00    +0.000 C 
ATOM     24  O6  UNL     1      73.493  72.837 100.210  0.00  0.00    +0.000 OA
ATOM     25  C35 UNL     1      71.787  73.477 101.749  0.00  0.00    +0.000 C 
ATOM     26  C36 UNL     1      71.480  74.955 102.035  0.00  0.00    +0.000 C 
ATOM     27  N6  UNL     1      71.491  72.571 102.871  0.00  0.00    +0.000 N 
ATOM     28  C37 UNL     1      70.409  72.690 103.815  0.00  0.00    +0.000 C 
ATOM     29  O7  UNL     1      69.816  73.786 103.994  0.00  0.00    +0.000 OA
ATOM     30  C38 UNL     1      70.001  71.497 104.643  0.00  0.00    +0.000 C 
ATOM     31  C39 UNL     1      69.465  70.382 103.736  0.00  0.00    +0.000 C 
ATOM     32  N7  UNL     1      71.137  71.011 105.436  0.00  0.00    +0.000 N 
ATOM     33  C40 UNL     1      70.990  70.037 106.482  0.00  0.00    +0.000 C 
ATOM     34  O8  UNL     1      69.838  69.658 106.828  0.00  0.00    +0.000 OA
ATOM     35  C41 UNL     1      72.230  69.456 107.139  0.00  0.00    +0.000 C 
ATOM     36  N8  UNL     1      71.993  68.093 107.671  0.00  0.00    +0.000 N 
ATOM     37  C46 UNL     1      71.014  67.863 108.741  0.00  0.00    +0.000 C 
ATOM     38  C47 UNL     1      72.916  67.034 107.331  0.00  0.00    +0.000 C 
ATOM     39  O9  UNL     1      74.090  67.324 106.973  0.00  0.00    +0.000 OA
ATOM     40  C48 UNL     1      72.494  65.578 107.349  0.00  0.00    +0.000 C 
ATOM     41  N9  UNL     1      73.669  64.720 107.544  0.00  0.00    +0.000 N 
ATOM     42  C49 UNL     1      74.037  64.197 108.833  0.00  0.00    +0.000 C 
ATOM     43  O10 UNL     1      73.288  64.414 109.827  0.00  0.00    +0.000 OA
ATOM     44  C50 UNL     1      75.368  63.500 109.047  0.00  0.00    +0.000 C 
ATOM     45  N10 UNL     1      75.883  62.941 107.778  0.00  0.00    +0.000 N 
ATOM     46  C55 UNL     1      75.151  61.869 107.086  0.00  0.00    +0.000 C 
ATOM     47  C56 UNL     1      76.987  63.583 107.106  0.00  0.00    +0.000 C 
ATOM     48  O11 UNL     1      77.198  64.816 107.278  0.00  0.00    +0.000 OA
ATOM     49  C57 UNL     1      77.871  62.822 106.148  0.00  0.00    +0.000 C 
ATOM     50  N11 UNL     1      79.286  63.214 106.253  0.00  0.00    +0.000 N 
ATOM     51  C58 UNL     1      79.935  63.255 107.572  0.00  0.00    +0.000 C 
ATOM     52  C59 UNL     1      80.114  63.162 105.068  0.00  0.00    +0.000 C 
ATOM     53  O12 UNL     1      79.754  62.447 104.092  0.00  0.00    +0.000 OA
ATOM     54  H7  UNL     1      82.651  63.951 103.169  0.00  0.00    +0.000 HD
ATOM     55  H66 UNL     1      71.961  71.637 102.830  0.00  0.00    +0.000 HD
ATOM     56  H71 UNL     1      72.097  71.382 105.248  0.00  0.00    +0.000 HD
ATOM     57  H86 UNL     1      74.357  64.655 106.763  0.00  0.00    +0.000 HD
ENDROOT
BRANCH  10  58
ATOM     58  C16 UNL     1      82.238  69.764 100.002  0.00  0.00    +0.000 C 
ATOM     59  C17 UNL     1      82.250  68.912  98.723  0.00  0.00    +0.000 C 
ATOM     60  C18 UNL     1      82.481  71.240  99.657  0.00  0.00    +0.000 C 
ENDBRANCH  10  58
BRANCH  40  61
ATOM     61  C60 UNL     1      71.711  65.196 106.064  0.00  0.00    +0.000 C 
ATOM     62  C61 UNL     1      72.574  64.507 104.995  0.00  0.00    +0.000 C 
ATOM     63  C62 UNL     1      70.495  64.324 106.406  0.00  0.00    +0.000 C 
ENDBRANCH  40  61
BRANCH   1  65
ATOM     64  C1  UNL     1      83.354  62.233 104.588  0.00  0.00    +0.000 C 
ATOM     65  C2  UNL     1      82.609  63.118 105.594  0.00  0.00    +0.000 C 
ENDBRANCH   1  65
BRANCH   5  66
ATOM     66  C6  UNL     1      80.664  65.386 100.274  0.00  0.00    +0.000 C 
BRANCH  66  67
ATOM     67  O2  UNL     1      81.349  65.802  99.124  0.00  0.00    +0.000 OA
ATOM     68  H10 UNL     1      81.474  65.004  98.544  0.00  0.00    +0.000 HD
ENDBRANCH  66  67
BRANCH  66  69
ATOM     69  C7  UNL     1      80.296  63.873 100.116  0.00  0.00    +0.000 C 
ATOM     70  C8  UNL     1      81.093  63.144  99.025  0.00  0.00    +0.000 C 
BRANCH  69  71
ATOM     71  C9  UNL     1      78.777  63.560 100.077  0.00  0.00    +0.000 C 
BRANCH  71  72
ATOM     72  C10 UNL     1      78.425  62.097 100.203  0.00  0.00    +0.000 C 
ATOM     73  C11 UNL     1      77.897  61.594 101.329  0.00  0.00    +0.000 C 
ATOM     74  C12 UNL     1      77.597  60.131 101.455  0.00  0.00    +0.000 C 
ENDBRANCH  71  72
ENDBRANCH  69  71
ENDBRANCH  66  69
ENDBRANCH   5  66
BRANCH  15  75
ATOM     75  C22 UNL     1      78.583  72.954  99.228  0.00  0.00    +0.000 C 
BRANCH  75  76
ATOM     76  C23 UNL     1      79.697  73.586  98.363  0.00  0.00    +0.000 C 
ATOM     77  C24 UNL     1      80.575  74.555  99.175  0.00  0.00    +0.000 C 
ATOM     78  C25 UNL     1      79.079  74.332  97.172  0.00  0.00    +0.000 C 
ENDBRANCH  75  76
ENDBRANCH  15  75
BRANCH  20  79
ATOM     79  C29 UNL     1      75.336  75.174 100.404  0.00  0.00    +0.000 C 
BRANCH  79  80
ATOM     80  C30 UNL     1      76.027  76.561 100.445  0.00  0.00    +0.000 C 
ATOM     81  C31 UNL     1      77.406  76.524  99.770  0.00  0.00    +0.000 C 
ATOM     82  C32 UNL     1      76.173  77.040 101.897  0.00  0.00    +0.000 C 
ENDBRANCH  79  80
ENDBRANCH  20  79
BRANCH  35  83
ATOM     83  C42 UNL     1      72.938  70.351 108.204  0.00  0.00    +0.000 C 
BRANCH  83  84
ATOM     84  C43 UNL     1      74.372  70.863 107.896  0.00  0.00    +0.000 C 
ATOM     85  C44 UNL     1      75.438  70.094 108.688  0.00  0.00    +0.000 C 
ATOM     86  C45 UNL     1      74.657  70.728 106.392  0.00  0.00    +0.000 C 
ENDBRANCH  83  84
ENDBRANCH  35  83
BRANCH  44  87
ATOM     87  C51 UNL     1      75.267  62.407 110.159  0.00  0.00    +0.000 C 
BRANCH  87  88
ATOM     88  C52 UNL     1      76.314  62.475 111.300  0.00  0.00    +0.000 C 
ATOM     89  C53 UNL     1      77.755  62.242 110.825  0.00  0.00    +0.000 C 
ATOM     90  C54 UNL     1      76.206  63.755 112.141  0.00  0.00    +0.000 C 
ENDBRANCH  87  88
ENDBRANCH  44  87
TORSDOF 16
ENDMDL
MODEL 9
REMARK VINA RESULT:      -6.6      2.717     10.563
REMARK  Name = ./S1514.pdb
REMARK  40 active torsions:
REMARK  status: ('A' for Active; 'I' for Inactive)
REMARK    1  A    between atoms: C1_1  and  C2_2
REMARK    2  A    between atoms: C2_2  and  C3_3
REMARK    3  A    between atoms: C5_7  and  C6_8
REMARK    4  A    between atoms: C6_8  and  O2_9
REMARK    5  A    between atoms: C6_8  and  C7_10
REMARK    6  A    between atoms: C7_10  and  C8_11
REMARK    7  A    between atoms: C7_10  and  C9_12
REMARK    8  A    between atoms: C9_12  and  C10_13
REMARK    9  A    between atoms: C11_14  and  C12_15
REMARK   10  A    between atoms: N2_16  and  C13_17
REMARK   11  A    between atoms: C15_20  and  C16_21
REMARK   12  A    between atoms: C16_21  and  C17_22
REMARK   13  A    between atoms: C16_21  and  C18_23
REMARK   14  A    between atoms: N3_24  and  C19_25
REMARK   15  A    between atoms: C21_28  and  C22_29
REMARK   16  A    between atoms: C22_29  and  C23_30
REMARK   17  A    between atoms: C23_30  and  C24_31
REMARK   18  A    between atoms: C23_30  and  C25_32
REMARK   19  A    between atoms: N4_33  and  C26_34
REMARK   20  A    between atoms: C28_37  and  C29_38
REMARK   21  A    between atoms: C29_38  and  C30_39
REMARK   22  A    between atoms: C30_39  and  C31_40
REMARK   23  A    between atoms: C30_39  and  C32_41
REMARK   24  A    between atoms: N5_42  and  C33_43
REMARK   25  A    between atoms: C35_46  and  C36_47
REMARK   26  A    between atoms: C38_51  and  C39_52
REMARK   27  A    between atoms: C41_56  and  C42_57
REMARK   28  A    between atoms: C42_57  and  C43_58
REMARK   29  A    between atoms: C43_58  and  C44_59
REMARK   30  A    between atoms: C43_58  and  C45_60
REMARK   31  A    between atoms: N8_61  and  C46_62
REMARK   32  A    between atoms: C48_65  and  C60_83
REMARK   33  A    between atoms: C50_69  and  C51_70
REMARK   34  A    between atoms: C51_70  and  C52_71
REMARK   35  A    between atoms: C52_71  and  C53_72
REMARK   36  A    between atoms: C52_71  and  C54_73
REMARK   37  A    between atoms: N10_74  and  C55_75
REMARK   38  A    between atoms: N11_79  and  C58_80
REMARK   39  A    between atoms: C60_83  and  C61_84
REMARK   40  A    between atoms: C60_83  and  C62_85
REMARK                            x       y       z     vdW  Elec       q    Type
REMARK                         _______ _______ _______ _____ _____    ______ ____
ROOT
ATOM      1  C3  UNL     1      71.328  71.967 106.900  0.00  0.00    +0.000 C 
ATOM      2  N1  UNL     1      71.894  73.222 106.383  0.00  0.00    +0.000 N 
ATOM      3  C4  UNL     1      73.011  73.267 105.480  0.00  0.00    +0.000 C 
ATOM      4  O1  UNL     1      73.711  72.238 105.291  0.00  0.00    +0.000 OA
ATOM      5  C5  UNL     1      73.321  74.541 104.726  0.00  0.00    +0.000 C 
ATOM      6  N2  UNL     1      73.117  74.312 103.275  0.00  0.00    +0.000 N 
ATOM      7  C13 UNL     1      71.721  74.231 102.818  0.00  0.00    +0.000 C 
ATOM      8  C14 UNL     1      74.184  73.860 102.405  0.00  0.00    +0.000 C 
ATOM      9  O3  UNL     1      75.045  73.062 102.863  0.00  0.00    +0.000 OA
ATOM     10  C15 UNL     1      74.233  74.202 100.915  0.00  0.00    +0.000 C 
ATOM     11  N3  UNL     1      75.565  73.900 100.324  0.00  0.00    +0.000 N 
ATOM     12  C19 UNL     1      76.803  74.422 100.924  0.00  0.00    +0.000 C 
ATOM     13  C20 UNL     1      75.684  72.723  99.503  0.00  0.00    +0.000 C 
ATOM     14  O4  UNL     1      75.337  71.611  99.994  0.00  0.00    +0.000 OA
ATOM     15  C21 UNL     1      76.044  72.786  98.025  0.00  0.00    +0.000 C 
ATOM     16  N4  UNL     1      76.340  71.426  97.517  0.00  0.00    +0.000 N 
ATOM     17  C26 UNL     1      75.302  70.670  96.807  0.00  0.00    +0.000 C 
ATOM     18  C27 UNL     1      77.596  70.785  97.841  0.00  0.00    +0.000 C 
ATOM     19  O5  UNL     1      78.179  71.075  98.921  0.00  0.00    +0.000 OA
ATOM     20  C28 UNL     1      78.282  69.843  96.870  0.00  0.00    +0.000 C 
ATOM     21  N5  UNL     1      78.977  68.772  97.616  0.00  0.00    +0.000 N 
ATOM     22  C33 UNL     1      78.176  67.637  98.097  0.00  0.00    +0.000 C 
ATOM     23  C34 UNL     1      80.351  68.904  98.056  0.00  0.00    +0.000 C 
ATOM     24  O6  UNL     1      80.789  70.035  98.406  0.00  0.00    +0.000 OA
ATOM     25  C35 UNL     1      81.296  67.725  98.092  0.00  0.00    +0.000 C 
ATOM     26  C36 UNL     1      81.418  67.116  96.688  0.00  0.00    +0.000 C 
ATOM     27  N6  UNL     1      80.859  66.773  99.128  0.00  0.00    +0.000 N 
ATOM     28  C37 UNL     1      81.192  65.374  99.209  0.00  0.00    +0.000 C 
ATOM     29  O7  UNL     1      81.598  64.739  98.200  0.00  0.00    +0.000 OA
ATOM     30  C38 UNL     1      81.010  64.634 100.512  0.00  0.00    +0.000 C 
ATOM     31  C39 UNL     1      81.945  65.211 101.582  0.00  0.00    +0.000 C 
ATOM     32  N7  UNL     1      79.612  64.713 100.954  0.00  0.00    +0.000 N 
ATOM     33  C40 UNL     1      79.097  63.917 102.033  0.00  0.00    +0.000 C 
ATOM     34  O8  UNL     1      79.822  63.028 102.558  0.00  0.00    +0.000 OA
ATOM     35  C41 UNL     1      77.692  64.178 102.547  0.00  0.00    +0.000 C 
ATOM     36  N8  UNL     1      77.539  63.799 103.971  0.00  0.00    +0.000 N 
ATOM     37  C46 UNL     1      77.705  62.405 104.401  0.00  0.00    +0.000 C 
ATOM     38  C47 UNL     1      76.959  64.749 104.895  0.00  0.00    +0.000 C 
ATOM     39  O9  UNL     1      76.221  65.672 104.455  0.00  0.00    +0.000 OA
ATOM     40  C48 UNL     1      77.253  64.690 106.381  0.00  0.00    +0.000 C 
ATOM     41  N9  UNL     1      76.163  65.325 107.131  0.00  0.00    +0.000 N 
ATOM     42  C49 UNL     1      75.099  64.567 107.735  0.00  0.00    +0.000 C 
ATOM     43  O10 UNL     1      75.135  63.306 107.692  0.00  0.00    +0.000 OA
ATOM     44  C50 UNL     1      73.875  65.254 108.312  0.00  0.00    +0.000 C 
ATOM     45  N10 UNL     1      74.181  66.651 108.692  0.00  0.00    +0.000 N 
ATOM     46  C55 UNL     1      75.150  66.936 109.761  0.00  0.00    +0.000 C 
ATOM     47  C56 UNL     1      73.692  67.740 107.880  0.00  0.00    +0.000 C 
ATOM     48  O11 UNL     1      73.452  67.553 106.655  0.00  0.00    +0.000 OA
ATOM     49  C57 UNL     1      73.512  69.124 108.453  0.00  0.00    +0.000 C 
ATOM     50  N11 UNL     1      72.311  69.798 107.932  0.00  0.00    +0.000 N 
ATOM     51  C58 UNL     1      71.017  69.101 107.952  0.00  0.00    +0.000 C 
ATOM     52  C59 UNL     1      72.327  71.237 107.786  0.00  0.00    +0.000 C 
ATOM     53  O12 UNL     1      73.169  71.916 108.437  0.00  0.00    +0.000 OA
ATOM     54  H7  UNL     1      71.393  74.119 106.567  0.00  0.00    +0.000 HD
ATOM     55  H66 UNL     1      80.477  67.204 100.001  0.00  0.00    +0.000 HD
ATOM     56  H71 UNL     1      78.951  65.366 100.472  0.00  0.00    +0.000 HD
ATOM     57  H86 UNL     1      76.057  66.360 107.051  0.00  0.00    +0.000 HD
ENDROOT
BRANCH  10  58
ATOM     58  C16 UNL     1      73.725  75.644 100.549  0.00  0.00    +0.000 C 
ATOM     59  C17 UNL     1      74.819  76.660 100.188  0.00  0.00    +0.000 C 
ATOM     60  C18 UNL     1      72.675  75.578  99.430  0.00  0.00    +0.000 C 
ENDBRANCH  10  58
BRANCH  40  61
ATOM     61  C60 UNL     1      78.628  65.331 106.715  0.00  0.00    +0.000 C 
ATOM     62  C61 UNL     1      78.570  66.854 106.913  0.00  0.00    +0.000 C 
ATOM     63  C62 UNL     1      79.257  64.661 107.944  0.00  0.00    +0.000 C 
ENDBRANCH  40  61
BRANCH   1  65
ATOM     64  C1  UNL     1      68.750  71.959 106.781  0.00  0.00    +0.000 C 
ATOM     65  C2  UNL     1      69.992  72.251 107.629  0.00  0.00    +0.000 C 
ENDBRANCH   1  65
BRANCH   5  66
ATOM     66  C6  UNL     1      74.730  75.119 105.068  0.00  0.00    +0.000 C 
BRANCH  66  67
ATOM     67  O2  UNL     1      74.791  76.448 104.628  0.00  0.00    +0.000 OA
ATOM     68  H10 UNL     1      75.750  76.704 104.579  0.00  0.00    +0.000 HD
ENDBRANCH  66  67
BRANCH  66  69
ATOM     69  C7  UNL     1      75.154  75.072 106.574  0.00  0.00    +0.000 C 
ATOM     70  C8  UNL     1      74.874  76.369 107.346  0.00  0.00    +0.000 C 
BRANCH  69  71
ATOM     71  C9  UNL     1      76.567  74.491 106.848  0.00  0.00    +0.000 C 
BRANCH  71  72
ATOM     72  C10 UNL     1      76.581  73.079 107.385  0.00  0.00    +0.000 C 
ATOM     73  C11 UNL     1      76.551  72.827 108.702  0.00  0.00    +0.000 C 
ATOM     74  C12 UNL     1      76.612  71.422 109.221  0.00  0.00    +0.000 C 
ENDBRANCH  71  72
ENDBRANCH  69  71
ENDBRANCH  66  69
ENDBRANCH   5  66
BRANCH  15  75
ATOM     75  C22 UNL     1      77.229  73.734  97.683  0.00  0.00    +0.000 C 
BRANCH  75  76
ATOM     76  C23 UNL     1      76.816  75.151  97.225  0.00  0.00    +0.000 C 
ATOM     77  C24 UNL     1      75.340  75.208  96.793  0.00  0.00    +0.000 C 
ATOM     78  C25 UNL     1      77.706  75.608  96.060  0.00  0.00    +0.000 C 
ENDBRANCH  75  76
ENDBRANCH  15  75
BRANCH  20  79
ATOM     79  C29 UNL     1      79.241  70.617  95.925  0.00  0.00    +0.000 C 
BRANCH  79  80
ATOM     80  C30 UNL     1      79.141  70.179  94.441  0.00  0.00    +0.000 C 
ATOM     81  C31 UNL     1      77.806  69.478  94.149  0.00  0.00    +0.000 C 
ATOM     82  C32 UNL     1      80.307  69.246  94.082  0.00  0.00    +0.000 C 
ENDBRANCH  79  80
ENDBRANCH  20  79
BRANCH  35  83
ATOM     83  C42 UNL     1      76.520  63.603 101.691  0.00  0.00    +0.000 C 
BRANCH  83  84
ATOM     84  C43 UNL     1      76.396  62.060 101.560  0.00  0.00    +0.000 C 
ATOM     85  C44 UNL     1      74.934  61.608 101.457  0.00  0.00    +0.000 C 
ATOM     86  C45 UNL     1      77.167  61.583 100.319  0.00  0.00    +0.000 C 
ENDBRANCH  83  84
ENDBRANCH  35  83
BRANCH  44  87
ATOM     87  C51 UNL     1      73.281  64.449 109.511  0.00  0.00    +0.000 C 
BRANCH  87  88
ATOM     88  C52 UNL     1      71.737  64.448 109.655  0.00  0.00    +0.000 C 
ATOM     89  C53 UNL     1      71.246  65.010 110.996  0.00  0.00    +0.000 C 
ATOM     90  C54 UNL     1      71.023  65.122 108.474  0.00  0.00    +0.000 C 
ENDBRANCH  87  88
ENDBRANCH  44  87
TORSDOF 16
ENDMDL
MODEL 10
REMARK VINA RESULT:      -6.6      2.980      9.572
REMARK  Name = ./S1514.pdb
REMARK  40 active torsions:
REMARK  status: ('A' for Active; 'I' for Inactive)
REMARK    1  A    between atoms: C1_1  and  C2_2
REMARK    2  A    between atoms: C2_2  and  C3_3
REMARK    3  A    between atoms: C5_7  and  C6_8
REMARK    4  A    between atoms: C6_8  and  O2_9
REMARK    5  A    between atoms: C6_8  and  C7_10
REMARK    6  A    between atoms: C7_10  and  C8_11
REMARK    7  A    between atoms: C7_10  and  C9_12
REMARK    8  A    between atoms: C9_12  and  C10_13
REMARK    9  A    between atoms: C11_14  and  C12_15
REMARK   10  A    between atoms: N2_16  and  C13_17
REMARK   11  A    between atoms: C15_20  and  C16_21
REMARK   12  A    between atoms: C16_21  and  C17_22
REMARK   13  A    between atoms: C16_21  and  C18_23
REMARK   14  A    between atoms: N3_24  and  C19_25
REMARK   15  A    between atoms: C21_28  and  C22_29
REMARK   16  A    between atoms: C22_29  and  C23_30
REMARK   17  A    between atoms: C23_30  and  C24_31
REMARK   18  A    between atoms: C23_30  and  C25_32
REMARK   19  A    between atoms: N4_33  and  C26_34
REMARK   20  A    between atoms: C28_37  and  C29_38
REMARK   21  A    between atoms: C29_38  and  C30_39
REMARK   22  A    between atoms: C30_39  and  C31_40
REMARK   23  A    between atoms: C30_39  and  C32_41
REMARK   24  A    between atoms: N5_42  and  C33_43
REMARK   25  A    between atoms: C35_46  and  C36_47
REMARK   26  A    between atoms: C38_51  and  C39_52
REMARK   27  A    between atoms: C41_56  and  C42_57
REMARK   28  A    between atoms: C42_57  and  C43_58
REMARK   29  A    between atoms: C43_58  and  C44_59
REMARK   30  A    between atoms: C43_58  and  C45_60
REMARK   31  A    between atoms: N8_61  and  C46_62
REMARK   32  A    between atoms: C48_65  and  C60_83
REMARK   33  A    between atoms: C50_69  and  C51_70
REMARK   34  A    between atoms: C51_70  and  C52_71
REMARK   35  A    between atoms: C52_71  and  C53_72
REMARK   36  A    between atoms: C52_71  and  C54_73
REMARK   37  A    between atoms: N10_74  and  C55_75
REMARK   38  A    between atoms: N11_79  and  C58_80
REMARK   39  A    between atoms: C60_83  and  C61_84
REMARK   40  A    between atoms: C60_83  and  C62_85
REMARK                            x       y       z     vdW  Elec       q    Type
REMARK                         _______ _______ _______ _____ _____    ______ ____
ROOT
ATOM      1  C3  UNL     1      73.907  72.468 108.906  0.00  0.00    +0.000 C 
ATOM      2  N1  UNL     1      72.897  71.415 108.715  0.00  0.00    +0.000 N 
ATOM      3  C4  UNL     1      73.029  70.369 107.738  0.00  0.00    +0.000 C 
ATOM      4  O1  UNL     1      73.900  70.457 106.832  0.00  0.00    +0.000 OA
ATOM      5  C5  UNL     1      72.147  69.143 107.821  0.00  0.00    +0.000 C 
ATOM      6  N2  UNL     1      72.987  67.955 108.109  0.00  0.00    +0.000 N 
ATOM      7  C13 UNL     1      73.499  67.836 109.482  0.00  0.00    +0.000 C 
ATOM      8  C14 UNL     1      73.558  67.137 107.057  0.00  0.00    +0.000 C 
ATOM      9  O3  UNL     1      73.926  67.693 105.987  0.00  0.00    +0.000 OA
ATOM     10  C15 UNL     1      73.859  65.650 107.242  0.00  0.00    +0.000 C 
ATOM     11  N3  UNL     1      74.133  64.978 105.943  0.00  0.00    +0.000 N 
ATOM     12  C19 UNL     1      73.196  65.087 104.814  0.00  0.00    +0.000 C 
ATOM     13  C20 UNL     1      75.502  64.659 105.628  0.00  0.00    +0.000 C 
ATOM     14  O4  UNL     1      76.354  65.593 105.644  0.00  0.00    +0.000 OA
ATOM     15  C21 UNL     1      75.991  63.230 105.443  0.00  0.00    +0.000 C 
ATOM     16  N4  UNL     1      77.361  63.231 104.881  0.00  0.00    +0.000 N 
ATOM     17  C26 UNL     1      78.516  63.073 105.772  0.00  0.00    +0.000 C 
ATOM     18  C27 UNL     1      77.574  63.531 103.481  0.00  0.00    +0.000 C 
ATOM     19  O5  UNL     1      76.764  64.287 102.880  0.00  0.00    +0.000 OA
ATOM     20  C28 UNL     1      78.692  62.879 102.690  0.00  0.00    +0.000 C 
ATOM     21  N5  UNL     1      79.216  63.831 101.686  0.00  0.00    +0.000 N 
ATOM     22  C33 UNL     1      80.174  64.850 102.137  0.00  0.00    +0.000 C 
ATOM     23  C34 UNL     1      78.669  63.919 100.347  0.00  0.00    +0.000 C 
ATOM     24  O6  UNL     1      77.435  63.723 100.161  0.00  0.00    +0.000 OA
ATOM     25  C35 UNL     1      79.536  64.222  99.147  0.00  0.00    +0.000 C 
ATOM     26  C36 UNL     1      80.638  63.159  99.024  0.00  0.00    +0.000 C 
ATOM     27  N6  UNL     1      80.037  65.603  99.235  0.00  0.00    +0.000 N 
ATOM     28  C37 UNL     1      81.192  66.146  98.568  0.00  0.00    +0.000 C 
ATOM     29  O7  UNL     1      82.103  65.398  98.124  0.00  0.00    +0.000 OA
ATOM     30  C38 UNL     1      81.348  67.642  98.435  0.00  0.00    +0.000 C 
ATOM     31  C39 UNL     1      80.223  68.214  97.564  0.00  0.00    +0.000 C 
ATOM     32  N7  UNL     1      81.347  68.276  99.758  0.00  0.00    +0.000 N 
ATOM     33  C40 UNL     1      81.704  69.654  99.955  0.00  0.00    +0.000 C 
ATOM     34  O8  UNL     1      82.151  70.330  98.988  0.00  0.00    +0.000 OA
ATOM     35  C41 UNL     1      81.512  70.286 101.323  0.00  0.00    +0.000 C 
ATOM     36  N8  UNL     1      81.290  71.748 101.236  0.00  0.00    +0.000 N 
ATOM     37  C46 UNL     1      82.328  72.636 100.696  0.00  0.00    +0.000 C 
ATOM     38  C47 UNL     1      80.165  72.333 101.932  0.00  0.00    +0.000 C 
ATOM     39  O9  UNL     1      79.656  71.723 102.911  0.00  0.00    +0.000 OA
ATOM     40  C48 UNL     1      79.551  73.644 101.484  0.00  0.00    +0.000 C 
ATOM     41  N9  UNL     1      78.871  74.288 102.615  0.00  0.00    +0.000 N 
ATOM     42  C49 UNL     1      79.489  75.325 103.397  0.00  0.00    +0.000 C 
ATOM     43  O10 UNL     1      80.627  75.759 103.063  0.00  0.00    +0.000 OA
ATOM     44  C50 UNL     1      78.858  75.818 104.687  0.00  0.00    +0.000 C 
ATOM     45  N10 UNL     1      77.399  75.572 104.690  0.00  0.00    +0.000 N 
ATOM     46  C55 UNL     1      76.529  76.247 103.716  0.00  0.00    +0.000 C 
ATOM     47  C56 UNL     1      76.850  74.516 105.506  0.00  0.00    +0.000 C 
ATOM     48  O11 UNL     1      77.566  73.523 105.816  0.00  0.00    +0.000 OA
ATOM     49  C57 UNL     1      75.410  74.541 105.956  0.00  0.00    +0.000 C 
ATOM     50  N11 UNL     1      75.240  74.041 107.330  0.00  0.00    +0.000 N 
ATOM     51  C58 UNL     1      76.087  74.570 108.410  0.00  0.00    +0.000 C 
ATOM     52  C59 UNL     1      74.012  73.358 107.677  0.00  0.00    +0.000 C 
ATOM     53  O12 UNL     1      72.986  73.529 106.962  0.00  0.00    +0.000 OA
ATOM     54  H7  UNL     1      72.111  71.335 109.396  0.00  0.00    +0.000 HD
ATOM     55  H66 UNL     1      79.360  66.302  99.620  0.00  0.00    +0.000 HD
ATOM     56  H71 UNL     1      81.082  67.717 100.602  0.00  0.00    +0.000 HD
ATOM     57  H86 UNL     1      77.999  73.842 102.974  0.00  0.00    +0.000 HD
ENDROOT
BRANCH  10  58
ATOM     58  C16 UNL     1      72.815  64.866 108.117  0.00  0.00    +0.000 C 
ATOM     59  C17 UNL     1      71.422  64.694 107.491  0.00  0.00    +0.000 C 
ATOM     60  C18 UNL     1      73.378  63.500 108.536  0.00  0.00    +0.000 C 
ENDBRANCH  10  58
BRANCH  40  61
ATOM     61  C60 UNL     1      78.594  73.442 100.278  0.00  0.00    +0.000 C 
ATOM     62  C61 UNL     1      77.200  74.056 100.484  0.00  0.00    +0.000 C 
ATOM     63  C62 UNL     1      79.224  73.982  98.986  0.00  0.00    +0.000 C 
ENDBRANCH  40  61
BRANCH   1  65
ATOM     64  C1  UNL     1      72.581  74.405 109.978  0.00  0.00    +0.000 C 
ATOM     65  C2  UNL     1      73.592  73.273 110.190  0.00  0.00    +0.000 C 
ENDBRANCH   1  65
BRANCH   5  66
ATOM     66  C6  UNL     1      71.236  68.966 106.566  0.00  0.00    +0.000 C 
BRANCH  66  67
ATOM     67  O2  UNL     1      70.237  68.029 106.863  0.00  0.00    +0.000 OA
ATOM     68  H10 UNL     1      70.666  67.278 107.352  0.00  0.00    +0.000 HD
ENDBRANCH  66  67
BRANCH  66  69
ATOM     69  C7  UNL     1      70.556  70.262 106.012  0.00  0.00    +0.000 C 
ATOM     70  C8  UNL     1      69.111  70.466 106.488  0.00  0.00    +0.000 C 
BRANCH  69  71
ATOM     71  C9  UNL     1      70.739  70.509 104.490  0.00  0.00    +0.000 C 
BRANCH  71  72
ATOM     72  C10 UNL     1      71.986  69.902 103.893  0.00  0.00    +0.000 C 
ATOM     73  C11 UNL     1      73.035  70.658 103.535  0.00  0.00    +0.000 C 
ATOM     74  C12 UNL     1      74.247  70.047 102.900  0.00  0.00    +0.000 C 
ENDBRANCH  71  72
ENDBRANCH  69  71
ENDBRANCH  66  69
ENDBRANCH   5  66
BRANCH  15  75
ATOM     75  C22 UNL     1      75.073  62.335 104.562  0.00  0.00    +0.000 C 
BRANCH  75  76
ATOM     76  C23 UNL     1      74.403  61.158 105.308  0.00  0.00    +0.000 C 
ATOM     77  C24 UNL     1      72.907  61.413 105.559  0.00  0.00    +0.000 C 
ATOM     78  C25 UNL     1      75.112  60.914 106.649  0.00  0.00    +0.000 C 
ENDBRANCH  75  76
ENDBRANCH  15  75
BRANCH  20  79
ATOM     79  C29 UNL     1      78.219  61.549 102.046  0.00  0.00    +0.000 C 
BRANCH  79  80
ATOM     80  C30 UNL     1      78.701  60.284 102.802  0.00  0.00    +0.000 C 
ATOM     81  C31 UNL     1      77.626  59.760 103.766  0.00  0.00    +0.000 C 
ATOM     82  C32 UNL     1      79.990  60.588 103.580  0.00  0.00    +0.000 C 
ENDBRANCH  79  80
ENDBRANCH  20  79
BRANCH  35  83
ATOM     83  C42 UNL     1      82.590  69.952 102.401  0.00  0.00    +0.000 C 
BRANCH  83  84
ATOM     84  C43 UNL     1      82.219  68.941 103.521  0.00  0.00    +0.000 C 
ATOM     85  C44 UNL     1      83.341  67.926 103.774  0.00  0.00    +0.000 C 
ATOM     86  C45 UNL     1      81.915  69.701 104.823  0.00  0.00    +0.000 C 
ENDBRANCH  83  84
ENDBRANCH  35  83
BRANCH  44  87
ATOM     87  C51 UNL     1      79.189  77.322 104.946  0.00  0.00    +0.000 C 
BRANCH  87  88
ATOM     88  C52 UNL     1      79.445  77.737 106.417  0.00  0.00    +0.000 C 
ATOM     89  C53 UNL     1      78.419  78.743 106.958  0.00  0.00    +0.000 C 
ATOM     90  C54 UNL     1      79.599  76.537 107.363  0.00  0.00    +0.000 C 
ENDBRANCH  87  88
ENDBRANCH  44  87
TORSDOF 16
ENDMDL
MODEL 11
REMARK VINA RESULT:      -6.5      3.207     10.924
REMARK  Name = ./S1514.pdb
REMARK  40 active torsions:
REMARK  status: ('A' for Active; 'I' for Inactive)
REMARK    1  A    between atoms: C1_1  and  C2_2
REMARK    2  A    between atoms: C2_2  and  C3_3
REMARK    3  A    between atoms: C5_7  and  C6_8
REMARK    4  A    between atoms: C6_8  and  O2_9
REMARK    5  A    between atoms: C6_8  and  C7_10
REMARK    6  A    between atoms: C7_10  and  C8_11
REMARK    7  A    between atoms: C7_10  and  C9_12
REMARK    8  A    between atoms: C9_12  and  C10_13
REMARK    9  A    between atoms: C11_14  and  C12_15
REMARK   10  A    between atoms: N2_16  and  C13_17
REMARK   11  A    between atoms: C15_20  and  C16_21
REMARK   12  A    between atoms: C16_21  and  C17_22
REMARK   13  A    between atoms: C16_21  and  C18_23
REMARK   14  A    between atoms: N3_24  and  C19_25
REMARK   15  A    between atoms: C21_28  and  C22_29
REMARK   16  A    between atoms: C22_29  and  C23_30
REMARK   17  A    between atoms: C23_30  and  C24_31
REMARK   18  A    between atoms: C23_30  and  C25_32
REMARK   19  A    between atoms: N4_33  and  C26_34
REMARK   20  A    between atoms: C28_37  and  C29_38
REMARK   21  A    between atoms: C29_38  and  C30_39
REMARK   22  A    between atoms: C30_39  and  C31_40
REMARK   23  A    between atoms: C30_39  and  C32_41
REMARK   24  A    between atoms: N5_42  and  C33_43
REMARK   25  A    between atoms: C35_46  and  C36_47
REMARK   26  A    between atoms: C38_51  and  C39_52
REMARK   27  A    between atoms: C41_56  and  C42_57
REMARK   28  A    between atoms: C42_57  and  C43_58
REMARK   29  A    between atoms: C43_58  and  C44_59
REMARK   30  A    between atoms: C43_58  and  C45_60
REMARK   31  A    between atoms: N8_61  and  C46_62
REMARK   32  A    between atoms: C48_65  and  C60_83
REMARK   33  A    between atoms: C50_69  and  C51_70
REMARK   34  A    between atoms: C51_70  and  C52_71
REMARK   35  A    between atoms: C52_71  and  C53_72
REMARK   36  A    between atoms: C52_71  and  C54_73
REMARK   37  A    between atoms: N10_74  and  C55_75
REMARK   38  A    between atoms: N11_79  and  C58_80
REMARK   39  A    between atoms: C60_83  and  C61_84
REMARK   40  A    between atoms: C60_83  and  C62_85
REMARK                            x       y       z     vdW  Elec       q    Type
REMARK                         _______ _______ _______ _____ _____    ______ ____
ROOT
ATOM      1  C3  UNL     1      72.901  64.350 107.017  0.00  0.00    +0.000 C 
ATOM      2  N1  UNL     1      73.106  65.282 108.136  0.00  0.00    +0.000 N 
ATOM      3  C4  UNL     1      74.086  66.333 108.113  0.00  0.00    +0.000 C 
ATOM      4  O1  UNL     1      74.984  66.340 107.230  0.00  0.00    +0.000 OA
ATOM      5  C5  UNL     1      74.015  67.453 109.128  0.00  0.00    +0.000 C 
ATOM      6  N2  UNL     1      73.726  68.728 108.429  0.00  0.00    +0.000 N 
ATOM      7  C13 UNL     1      72.348  68.908 107.946  0.00  0.00    +0.000 C 
ATOM      8  C14 UNL     1      74.776  69.601 107.943  0.00  0.00    +0.000 C 
ATOM      9  O3  UNL     1      75.840  69.086 107.505  0.00  0.00    +0.000 OA
ATOM     10  C15 UNL     1      74.595  71.114 107.812  0.00  0.00    +0.000 C 
ATOM     11  N3  UNL     1      75.894  71.808 107.603  0.00  0.00    +0.000 N 
ATOM     12  C19 UNL     1      77.031  71.591 108.512  0.00  0.00    +0.000 C 
ATOM     13  C20 UNL     1      76.200  72.277 106.277  0.00  0.00    +0.000 C 
ATOM     14  O4  UNL     1      76.171  71.444 105.325  0.00  0.00    +0.000 OA
ATOM     15  C21 UNL     1      76.386  73.751 105.949  0.00  0.00    +0.000 C 
ATOM     16  N4  UNL     1      76.937  73.902 104.582  0.00  0.00    +0.000 N 
ATOM     17  C26 UNL     1      76.036  74.191 103.460  0.00  0.00    +0.000 C 
ATOM     18  C27 UNL     1      78.333  73.623 104.324  0.00  0.00    +0.000 C 
ATOM     19  O5  UNL     1      78.938  72.779 105.039  0.00  0.00    +0.000 OA
ATOM     20  C28 UNL     1      79.118  74.393 103.279  0.00  0.00    +0.000 C 
ATOM     21  N5  UNL     1      80.113  73.503 102.643  0.00  0.00    +0.000 N 
ATOM     22  C33 UNL     1      79.649  72.599 101.581  0.00  0.00    +0.000 C 
ATOM     23  C34 UNL     1      81.456  73.349 103.164  0.00  0.00    +0.000 C 
ATOM     24  O6  UNL     1      81.653  73.406 104.411  0.00  0.00    +0.000 OA
ATOM     25  C35 UNL     1      82.647  73.142 102.258  0.00  0.00    +0.000 C 
ATOM     26  C36 UNL     1      82.765  74.321 101.281  0.00  0.00    +0.000 C 
ATOM     27  N6  UNL     1      82.549  71.825 101.607  0.00  0.00    +0.000 N 
ATOM     28  C37 UNL     1      83.203  71.413 100.391  0.00  0.00    +0.000 C 
ATOM     29  O7  UNL     1      83.642  72.257  99.566  0.00  0.00    +0.000 OA
ATOM     30  C38 UNL     1      83.329  69.944 100.068  0.00  0.00    +0.000 C 
ATOM     31  C39 UNL     1      84.207  69.246 101.114  0.00  0.00    +0.000 C 
ATOM     32  N7  UNL     1      82.003  69.317 100.010  0.00  0.00    +0.000 N 
ATOM     33  C40 UNL     1      81.797  67.989  99.503  0.00  0.00    +0.000 C 
ATOM     34  O8  UNL     1      82.757  67.364  98.975  0.00  0.00    +0.000 OA
ATOM     35  C41 UNL     1      80.428  67.344  99.635  0.00  0.00    +0.000 C 
ATOM     36  N8  UNL     1      80.510  65.866  99.691  0.00  0.00    +0.000 N 
ATOM     37  C46 UNL     1      81.037  65.098  98.556  0.00  0.00    +0.000 C 
ATOM     38  C47 UNL     1      79.822  65.162 100.750  0.00  0.00    +0.000 C 
ATOM     39  O9  UNL     1      78.850  65.714 101.334  0.00  0.00    +0.000 OA
ATOM     40  C48 UNL     1      80.269  63.788 101.209  0.00  0.00    +0.000 C 
ATOM     41  N9  UNL     1      79.142  63.076 101.823  0.00  0.00    +0.000 N 
ATOM     42  C49 UNL     1      78.349  62.117 101.100  0.00  0.00    +0.000 C 
ATOM     43  O10 UNL     1      78.672  61.813  99.917  0.00  0.00    +0.000 OA
ATOM     44  C50 UNL     1      77.062  61.561 101.684  0.00  0.00    +0.000 C 
ATOM     45  N10 UNL     1      77.074  61.642 103.161  0.00  0.00    +0.000 N 
ATOM     46  C55 UNL     1      78.052  60.870 103.941  0.00  0.00    +0.000 C 
ATOM     47  C56 UNL     1      76.267  62.633 103.832  0.00  0.00    +0.000 C 
ATOM     48  O11 UNL     1      75.955  63.701 103.235  0.00  0.00    +0.000 OA
ATOM     49  C57 UNL     1      75.829  62.448 105.264  0.00  0.00    +0.000 C 
ATOM     50  N11 UNL     1      74.459  62.931 105.502  0.00  0.00    +0.000 N 
ATOM     51  C58 UNL     1      73.370  62.504 104.611  0.00  0.00    +0.000 C 
ATOM     52  C59 UNL     1      74.126  63.473 106.801  0.00  0.00    +0.000 C 
ATOM     53  O12 UNL     1      74.848  63.185 107.795  0.00  0.00    +0.000 OA
ATOM     54  H7  UNL     1      72.432  65.276 108.933  0.00  0.00    +0.000 HD
ATOM     55  H66 UNL     1      82.167  71.056 102.204  0.00  0.00    +0.000 HD
ATOM     56  H71 UNL     1      81.164  69.846 100.344  0.00  0.00    +0.000 HD
ATOM     57  H86 UNL     1      78.791  63.422 102.743  0.00  0.00    +0.000 HD
ENDROOT
BRANCH  10  58
ATOM     58  C16 UNL     1      73.732  71.779 108.946  0.00  0.00    +0.000 C 
ATOM     59  C17 UNL     1      74.523  72.553 110.012  0.00  0.00    +0.000 C 
ATOM     60  C18 UNL     1      72.644  72.676 108.340  0.00  0.00    +0.000 C 
ENDBRANCH  10  58
BRANCH  40  61
ATOM     61  C60 UNL     1      81.484  63.877 102.172  0.00  0.00    +0.000 C 
ATOM     62  C61 UNL     1      81.357  62.983 103.415  0.00  0.00    +0.000 C 
ATOM     63  C62 UNL     1      82.791  63.568 101.429  0.00  0.00    +0.000 C 
ENDBRANCH  40  61
BRANCH   1  65
ATOM     64  C1  UNL     1      70.427  63.964 106.393  0.00  0.00    +0.000 C 
ATOM     65  C2  UNL     1      71.616  63.519 107.251  0.00  0.00    +0.000 C 
ENDBRANCH   1  65
BRANCH   5  66
ATOM     66  C6  UNL     1      75.279  67.522 110.042  0.00  0.00    +0.000 C 
BRANCH  66  67
ATOM     67  O2  UNL     1      75.376  68.812 110.580  0.00  0.00    +0.000 OA
ATOM     68  H10 UNL     1      74.453  69.173 110.664  0.00  0.00    +0.000 HD
ENDBRANCH  66  67
BRANCH  66  69
ATOM     69  C7  UNL     1      75.349  66.486 111.213  0.00  0.00    +0.000 C 
ATOM     70  C8  UNL     1      75.862  65.101 110.795  0.00  0.00    +0.000 C 
BRANCH  69  71
ATOM     71  C9  UNL     1      74.092  66.425 112.121  0.00  0.00    +0.000 C 
BRANCH  71  72
ATOM     72  C10 UNL     1      74.331  66.805 113.563  0.00  0.00    +0.000 C 
ATOM     73  C11 UNL     1      75.362  67.583 113.925  0.00  0.00    +0.000 C 
ATOM     74  C12 UNL     1      75.613  67.913 115.365  0.00  0.00    +0.000 C 
ENDBRANCH  71  72
ENDBRANCH  69  71
ENDBRANCH  66  69
ENDBRANCH   5  66
BRANCH  15  75
ATOM     75  C22 UNL     1      77.279  74.535 106.954  0.00  0.00    +0.000 C 
BRANCH  75  76
ATOM     76  C23 UNL     1      76.503  75.321 108.036  0.00  0.00    +0.000 C 
ATOM     77  C24 UNL     1      75.032  75.542 107.641  0.00  0.00    +0.000 C 
ATOM     78  C25 UNL     1      77.176  76.679 108.283  0.00  0.00    +0.000 C 
ENDBRANCH  75  76
ENDBRANCH  15  75
BRANCH  20  79
ATOM     79  C29 UNL     1      79.771  75.660 103.892  0.00  0.00    +0.000 C 
BRANCH  79  80
ATOM     80  C30 UNL     1      79.047  76.978 103.518  0.00  0.00    +0.000 C 
ATOM     81  C31 UNL     1      78.012  77.374 104.582  0.00  0.00    +0.000 C 
ATOM     82  C32 UNL     1      78.358  76.838 102.152  0.00  0.00    +0.000 C 
ENDBRANCH  79  80
ENDBRANCH  20  79
BRANCH  35  83
ATOM     83  C42 UNL     1      79.342  67.800  98.611  0.00  0.00    +0.000 C 
BRANCH  83  84
ATOM     84  C43 UNL     1      79.814  68.369  97.245  0.00  0.00    +0.000 C 
ATOM     85  C44 UNL     1      79.402  67.468  96.074  0.00  0.00    +0.000 C 
ATOM     86  C45 UNL     1      79.226  69.775  97.040  0.00  0.00    +0.000 C 
ENDBRANCH  83  84
ENDBRANCH  35  83
BRANCH  44  87
ATOM     87  C51 UNL     1      76.795  60.104 101.188  0.00  0.00    +0.000 C 
BRANCH  87  88
ATOM     88  C52 UNL     1      75.723  59.930 100.082  0.00  0.00    +0.000 C 
ATOM     89  C53 UNL     1      74.928  61.210  99.791  0.00  0.00    +0.000 C 
ATOM     90  C54 UNL     1      76.286  59.319  98.790  0.00  0.00    +0.000 C 
ENDBRANCH  87  88
ENDBRANCH  44  87
TORSDOF 16
ENDMDL
MODEL 12
REMARK VINA RESULT:      -6.5      3.200     10.997
REMARK  Name = ./S1514.pdb
REMARK  40 active torsions:
REMARK  status: ('A' for Active; 'I' for Inactive)
REMARK    1  A    between atoms: C1_1  and  C2_2
REMARK    2  A    between atoms: C2_2  and  C3_3
REMARK    3  A    between atoms: C5_7  and  C6_8
REMARK    4  A    between atoms: C6_8  and  O2_9
REMARK    5  A    between atoms: C6_8  and  C7_10
REMARK    6  A    between atoms: C7_10  and  C8_11
REMARK    7  A    between atoms: C7_10  and  C9_12
REMARK    8  A    between atoms: C9_12  and  C10_13
REMARK    9  A    between atoms: C11_14  and  C12_15
REMARK   10  A    between atoms: N2_16  and  C13_17
REMARK   11  A    between atoms: C15_20  and  C16_21
REMARK   12  A    between atoms: C16_21  and  C17_22
REMARK   13  A    between atoms: C16_21  and  C18_23
REMARK   14  A    between atoms: N3_24  and  C19_25
REMARK   15  A    between atoms: C21_28  and  C22_29
REMARK   16  A    between atoms: C22_29  and  C23_30
REMARK   17  A    between atoms: C23_30  and  C24_31
REMARK   18  A    between atoms: C23_30  and  C25_32
REMARK   19  A    between atoms: N4_33  and  C26_34
REMARK   20  A    between atoms: C28_37  and  C29_38
REMARK   21  A    between atoms: C29_38  and  C30_39
REMARK   22  A    between atoms: C30_39  and  C31_40
REMARK   23  A    between atoms: C30_39  and  C32_41
REMARK   24  A    between atoms: N5_42  and  C33_43
REMARK   25  A    between atoms: C35_46  and  C36_47
REMARK   26  A    between atoms: C38_51  and  C39_52
REMARK   27  A    between atoms: C41_56  and  C42_57
REMARK   28  A    between atoms: C42_57  and  C43_58
REMARK   29  A    between atoms: C43_58  and  C44_59
REMARK   30  A    between atoms: C43_58  and  C45_60
REMARK   31  A    between atoms: N8_61  and  C46_62
REMARK   32  A    between atoms: C48_65  and  C60_83
REMARK   33  A    between atoms: C50_69  and  C51_70
REMARK   34  A    between atoms: C51_70  and  C52_71
REMARK   35  A    between atoms: C52_71  and  C53_72
REMARK   36  A    between atoms: C52_71  and  C54_73
REMARK   37  A    between atoms: N10_74  and  C55_75
REMARK   38  A    between atoms: N11_79  and  C58_80
REMARK   39  A    between atoms: C60_83  and  C61_84
REMARK   40  A    between atoms: C60_83  and  C62_85
REMARK                            x       y       z     vdW  Elec       q    Type
REMARK                         _______ _______ _______ _____ _____    ______ ____
ROOT
ATOM      1  C3  UNL     1      71.249  67.611 107.364  0.00  0.00    +0.000 C 
ATOM      2  N1  UNL     1      71.273  68.958 107.954  0.00  0.00    +0.000 N 
ATOM      3  C4  UNL     1      71.936  70.074 107.337  0.00  0.00    +0.000 C 
ATOM      4  O1  UNL     1      72.739  69.884 106.385  0.00  0.00    +0.000 OA
ATOM      5  C5  UNL     1      71.639  71.482 107.805  0.00  0.00    +0.000 C 
ATOM      6  N2  UNL     1      70.975  72.231 106.710  0.00  0.00    +0.000 N 
ATOM      7  C13 UNL     1      69.571  71.887 106.443  0.00  0.00    +0.000 C 
ATOM      8  C14 UNL     1      71.722  73.004 105.737  0.00  0.00    +0.000 C 
ATOM      9  O3  UNL     1      72.853  72.587 105.368  0.00  0.00    +0.000 OA
ATOM     10  C15 UNL     1      71.138  74.231 105.038  0.00  0.00    +0.000 C 
ATOM     11  N3  UNL     1      72.190  75.021 104.342  0.00  0.00    +0.000 N 
ATOM     12  C19 UNL     1      73.402  75.468 105.048  0.00  0.00    +0.000 C 
ATOM     13  C20 UNL     1      72.271  74.916 102.908  0.00  0.00    +0.000 C 
ATOM     14  O4  UNL     1      72.401  73.767 102.398  0.00  0.00    +0.000 OA
ATOM     15  C21 UNL     1      72.037  76.103 101.983  0.00  0.00    +0.000 C 
ATOM     16  N4  UNL     1      72.436  75.753 100.600  0.00  0.00    +0.000 N 
ATOM     17  C26 UNL     1      71.418  75.327  99.633  0.00  0.00    +0.000 C 
ATOM     18  C27 UNL     1      73.836  75.692 100.239  0.00  0.00    +0.000 C 
ATOM     19  O5  UNL     1      74.689  75.393 101.118  0.00  0.00    +0.000 OA
ATOM     20  C28 UNL     1      74.317  76.074  98.852  0.00  0.00    +0.000 C 
ATOM     21  N5  UNL     1      75.467  75.228  98.470  0.00  0.00    +0.000 N 
ATOM     22  C33 UNL     1      75.190  73.876  97.964  0.00  0.00    +0.000 C 
ATOM     23  C34 UNL     1      76.835  75.604  98.766  0.00  0.00    +0.000 C 
ATOM     24  O6  UNL     1      77.093  76.239  99.827  0.00  0.00    +0.000 OA
ATOM     25  C35 UNL     1      77.975  75.278  97.830  0.00  0.00    +0.000 C 
ATOM     26  C36 UNL     1      77.711  75.908  96.454  0.00  0.00    +0.000 C 
ATOM     27  N6  UNL     1      78.187  73.822  97.797  0.00  0.00    +0.000 N 
ATOM     28  C37 UNL     1      78.844  73.069  96.760  0.00  0.00    +0.000 C 
ATOM     29  O7  UNL     1      78.988  73.539  95.601  0.00  0.00    +0.000 OA
ATOM     30  C38 UNL     1      79.333  71.669  97.044  0.00  0.00    +0.000 C 
ATOM     31  C39 UNL     1      80.432  71.701  98.113  0.00  0.00    +0.000 C 
ATOM     32  N7  UNL     1      78.220  70.816  97.477  0.00  0.00    +0.000 N 
ATOM     33  C40 UNL     1      78.340  69.390  97.597  0.00  0.00    +0.000 C 
ATOM     34  O8  UNL     1      79.394  68.815  97.209  0.00  0.00    +0.000 OA
ATOM     35  C41 UNL     1      77.203  68.595  98.216  0.00  0.00    +0.000 C 
ATOM     36  N8  UNL     1      77.678  67.343  98.852  0.00  0.00    +0.000 N 
ATOM     37  C46 UNL     1      78.313  66.288  98.053  0.00  0.00    +0.000 C 
ATOM     38  C47 UNL     1      77.273  67.045 100.207  0.00  0.00    +0.000 C 
ATOM     39  O9  UNL     1      76.231  67.578 100.676  0.00  0.00    +0.000 OA
ATOM     40  C48 UNL     1      78.098  66.138 101.099  0.00  0.00    +0.000 C 
ATOM     41  N9  UNL     1      77.244  65.545 102.135  0.00  0.00    +0.000 N 
ATOM     42  C49 UNL     1      76.687  64.224 102.013  0.00  0.00    +0.000 C 
ATOM     43  O10 UNL     1      76.999  63.509 101.020  0.00  0.00    +0.000 OA
ATOM     44  C50 UNL     1      75.636  63.721 102.986  0.00  0.00    +0.000 C 
ATOM     45  N10 UNL     1      75.724  64.439 104.277  0.00  0.00    +0.000 N 
ATOM     46  C55 UNL     1      76.922  64.311 105.120  0.00  0.00    +0.000 C 
ATOM     47  C56 UNL     1      74.729  65.429 104.617  0.00  0.00    +0.000 C 
ATOM     48  O11 UNL     1      74.107  66.036 103.702  0.00  0.00    +0.000 OA
ATOM     49  C57 UNL     1      74.453  65.800 106.054  0.00  0.00    +0.000 C 
ATOM     50  N11 UNL     1      73.023  66.037 106.309  0.00  0.00    +0.000 N 
ATOM     51  C58 UNL     1      72.029  65.045 105.873  0.00  0.00    +0.000 C 
ATOM     52  C59 UNL     1      72.645  67.008 107.313  0.00  0.00    +0.000 C 
ATOM     53  O12 UNL     1      73.483  67.343 108.196  0.00  0.00    +0.000 OA
ATOM     54  H7  UNL     1      70.680  69.158 108.789  0.00  0.00    +0.000 HD
ATOM     55  H66 UNL     1      78.063  73.329  98.711  0.00  0.00    +0.000 HD
ATOM     56  H71 UNL     1      77.295  71.248  97.708  0.00  0.00    +0.000 HD
ATOM     57  H86 UNL     1      76.876  66.176 102.880  0.00  0.00    +0.000 HD
ENDROOT
BRANCH  10  58
ATOM     58  C16 UNL     1      70.207  75.126 105.935  0.00  0.00    +0.000 C 
ATOM     59  C17 UNL     1      70.894  75.807 107.129  0.00  0.00    +0.000 C 
ATOM     60  C18 UNL     1      69.475  76.171 105.080  0.00  0.00    +0.000 C 
ENDBRANCH  10  58
BRANCH  40  61
ATOM     61  C60 UNL     1      79.308  66.893 101.715  0.00  0.00    +0.000 C 
ATOM     62  C61 UNL     1      79.373  66.811 103.248  0.00  0.00    +0.000 C 
ATOM     63  C62 UNL     1      80.626  66.401 101.102  0.00  0.00    +0.000 C 
ENDBRANCH  40  61
BRANCH   1  65
ATOM     64  C1  UNL     1      70.626  66.490 109.603  0.00  0.00    +0.000 C 
ATOM     65  C2  UNL     1      70.249  66.715 108.135  0.00  0.00    +0.000 C 
ENDBRANCH   1  65
BRANCH   5  66
ATOM     66  C6  UNL     1      72.897  72.208 108.376  0.00  0.00    +0.000 C 
BRANCH  66  67
ATOM     67  O2  UNL     1      72.538  72.867 109.559  0.00  0.00    +0.000 OA
ATOM     68  H10 UNL     1      71.919  72.271 110.060  0.00  0.00    +0.000 HD
ENDBRANCH  66  67
BRANCH  66  69
ATOM     69  C7  UNL     1      74.147  71.311 108.664  0.00  0.00    +0.000 C 
ATOM     70  C8  UNL     1      74.543  71.244 110.146  0.00  0.00    +0.000 C 
BRANCH  69  71
ATOM     71  C9  UNL     1      75.356  71.534 107.717  0.00  0.00    +0.000 C 
BRANCH  71  72
ATOM     72  C10 UNL     1      76.034  70.270 107.243  0.00  0.00    +0.000 C 
ATOM     73  C11 UNL     1      77.140  69.799 107.837  0.00  0.00    +0.000 C 
ATOM     74  C12 UNL     1      77.829  68.570 107.325  0.00  0.00    +0.000 C 
ENDBRANCH  71  72
ENDBRANCH  69  71
ENDBRANCH  66  69
ENDBRANCH   5  66
BRANCH  15  75
ATOM     75  C22 UNL     1      72.755  77.414 102.412  0.00  0.00    +0.000 C 
BRANCH  75  76
ATOM     76  C23 UNL     1      71.812  78.601 102.716  0.00  0.00    +0.000 C 
ATOM     77  C24 UNL     1      71.720  78.890 104.224  0.00  0.00    +0.000 C 
ATOM     78  C25 UNL     1      70.408  78.312 102.164  0.00  0.00    +0.000 C 
ENDBRANCH  75  76
ENDBRANCH  15  75
BRANCH  20  79
ATOM     79  C29 UNL     1      74.650  77.588  98.774  0.00  0.00    +0.000 C 
BRANCH  79  80
ATOM     80  C30 UNL     1      73.634  78.408  97.939  0.00  0.00    +0.000 C 
ATOM     81  C31 UNL     1      72.490  78.944  98.812  0.00  0.00    +0.000 C 
ATOM     82  C32 UNL     1      73.060  77.547  96.804  0.00  0.00    +0.000 C 
ENDBRANCH  79  80
ENDBRANCH  20  79
BRANCH  35  83
ATOM     83  C42 UNL     1      75.969  68.318  97.301  0.00  0.00    +0.000 C 
BRANCH  83  84
ATOM     84  C43 UNL     1      74.629  69.024  97.643  0.00  0.00    +0.000 C 
ATOM     85  C44 UNL     1      74.805  70.100  98.722  0.00  0.00    +0.000 C 
ATOM     86  C45 UNL     1      74.044  69.665  96.374  0.00  0.00    +0.000 C 
ENDBRANCH  83  84
ENDBRANCH  35  83
BRANCH  44  87
ATOM     87  C51 UNL     1      75.732  62.174 103.180  0.00  0.00    +0.000 C 
BRANCH  87  88
ATOM     88  C52 UNL     1      74.432  61.361 102.950  0.00  0.00    +0.000 C 
ATOM     89  C53 UNL     1      73.318  61.690 103.954  0.00  0.00    +0.000 C 
ATOM     90  C54 UNL     1      73.919  61.441 101.505  0.00  0.00    +0.000 C 
ENDBRANCH  87  88
ENDBRANCH  44  87
TORSDOF 16
ENDMDL
MODEL 13
REMARK VINA RESULT:      -6.5      6.658     13.722
REMARK  Name = ./S1514.pdb
REMARK  40 active torsions:
REMARK  status: ('A' for Active; 'I' for Inactive)
REMARK    1  A    between atoms: C1_1  and  C2_2
REMARK    2  A    between atoms: C2_2  and  C3_3
REMARK    3  A    between atoms: C5_7  and  C6_8
REMARK    4  A    between atoms: C6_8  and  O2_9
REMARK    5  A    between atoms: C6_8  and  C7_10
REMARK    6  A    between atoms: C7_10  and  C8_11
REMARK    7  A    between atoms: C7_10  and  C9_12
REMARK    8  A    between atoms: C9_12  and  C10_13
REMARK    9  A    between atoms: C11_14  and  C12_15
REMARK   10  A    between atoms: N2_16  and  C13_17
REMARK   11  A    between atoms: C15_20  and  C16_21
REMARK   12  A    between atoms: C16_21  and  C17_22
REMARK   13  A    between atoms: C16_21  and  C18_23
REMARK   14  A    between atoms: N3_24  and  C19_25
REMARK   15  A    between atoms: C21_28  and  C22_29
REMARK   16  A    between atoms: C22_29  and  C23_30
REMARK   17  A    between atoms: C23_30  and  C24_31
REMARK   18  A    between atoms: C23_30  and  C25_32
REMARK   19  A    between atoms: N4_33  and  C26_34
REMARK   20  A    between atoms: C28_37  and  C29_38
REMARK   21  A    between atoms: C29_38  and  C30_39
REMARK   22  A    between atoms: C30_39  and  C31_40
REMARK   23  A    between atoms: C30_39  and  C32_41
REMARK   24  A    between atoms: N5_42  and  C33_43
REMARK   25  A    between atoms: C35_46  and  C36_47
REMARK   26  A    between atoms: C38_51  and  C39_52
REMARK   27  A    between atoms: C41_56  and  C42_57
REMARK   28  A    between atoms: C42_57  and  C43_58
REMARK   29  A    between atoms: C43_58  and  C44_59
REMARK   30  A    between atoms: C43_58  and  C45_60
REMARK   31  A    between atoms: N8_61  and  C46_62
REMARK   32  A    between atoms: C48_65  and  C60_83
REMARK   33  A    between atoms: C50_69  and  C51_70
REMARK   34  A    between atoms: C51_70  and  C52_71
REMARK   35  A    between atoms: C52_71  and  C53_72
REMARK   36  A    between atoms: C52_71  and  C54_73
REMARK   37  A    between atoms: N10_74  and  C55_75
REMARK   38  A    between atoms: N11_79  and  C58_80
REMARK   39  A    between atoms: C60_83  and  C61_84
REMARK   40  A    between atoms: C60_83  and  C62_85
REMARK                            x       y       z     vdW  Elec       q    Type
REMARK                         _______ _______ _______ _____ _____    ______ ____
ROOT
ATOM      1  C3  UNL     1      72.367  61.002 103.182  0.00  0.00    +0.000 C 
ATOM      2  N1  UNL     1      72.129  60.460 101.835  0.00  0.00    +0.000 N 
ATOM      3  C4  UNL     1      73.171  59.900 101.019  0.00  0.00    +0.000 C 
ATOM      4  O1  UNL     1      74.379  60.078 101.327  0.00  0.00    +0.000 OA
ATOM      5  C5  UNL     1      72.814  59.060  99.812  0.00  0.00    +0.000 C 
ATOM      6  N2  UNL     1      73.267  57.666 100.035  0.00  0.00    +0.000 N 
ATOM      7  C13 UNL     1      72.476  56.868 100.982  0.00  0.00    +0.000 C 
ATOM      8  C14 UNL     1      74.580  57.204  99.628  0.00  0.00    +0.000 C 
ATOM      9  O3  UNL     1      75.553  58.003  99.693  0.00  0.00    +0.000 OA
ATOM     10  C15 UNL     1      74.861  55.749  99.253  0.00  0.00    +0.000 C 
ATOM     11  N3  UNL     1      76.177  55.599  98.576  0.00  0.00    +0.000 N 
ATOM     12  C19 UNL     1      76.533  56.418  97.406  0.00  0.00    +0.000 C 
ATOM     13  C20 UNL     1      77.265  55.044  99.339  0.00  0.00    +0.000 C 
ATOM     14  O4  UNL     1      77.575  55.597 100.433  0.00  0.00    +0.000 OA
ATOM     15  C21 UNL     1      77.940  53.730  98.971  0.00  0.00    +0.000 C 
ATOM     16  N4  UNL     1      79.172  53.550  99.774  0.00  0.00    +0.000 N 
ATOM     17  C26 UNL     1      79.140  52.718 100.983  0.00  0.00    +0.000 C 
ATOM     18  C27 UNL     1      80.366  54.303  99.455  0.00  0.00    +0.000 C 
ATOM     19  O5  UNL     1      80.256  55.437  98.917  0.00  0.00    +0.000 OA
ATOM     20  C28 UNL     1      81.751  53.721  99.661  0.00  0.00    +0.000 C 
ATOM     21  N5  UNL     1      82.691  54.792 100.058  0.00  0.00    +0.000 N 
ATOM     22  C33 UNL     1      82.697  55.216 101.465  0.00  0.00    +0.000 C 
ATOM     23  C34 UNL     1      83.440  55.561  99.085  0.00  0.00    +0.000 C 
ATOM     24  O6  UNL     1      82.921  55.827  97.965  0.00  0.00    +0.000 OA
ATOM     25  C35 UNL     1      84.846  56.044  99.358  0.00  0.00    +0.000 C 
ATOM     26  C36 UNL     1      85.756  54.843  99.657  0.00  0.00    +0.000 C 
ATOM     27  N6  UNL     1      84.820  57.062 100.421  0.00  0.00    +0.000 N 
ATOM     28  C37 UNL     1      85.920  57.458 101.263  0.00  0.00    +0.000 C 
ATOM     29  O7  UNL     1      86.924  56.715 101.419  0.00  0.00    +0.000 OA
ATOM     30  C38 UNL     1      85.856  58.765 102.016  0.00  0.00    +0.000 C 
ATOM     31  C39 UNL     1      85.816  59.940 101.030  0.00  0.00    +0.000 C 
ATOM     32  N7  UNL     1      84.681  58.792 102.896  0.00  0.00    +0.000 N 
ATOM     33  C40 UNL     1      84.487  59.807 103.894  0.00  0.00    +0.000 C 
ATOM     34  O8  UNL     1      85.401  60.646 104.121  0.00  0.00    +0.000 OA
ATOM     35  C41 UNL     1      83.169  59.870 104.646  0.00  0.00    +0.000 C 
ATOM     36  N8  UNL     1      82.859  61.242 105.114  0.00  0.00    +0.000 N 
ATOM     37  C46 UNL     1      83.729  61.921 106.081  0.00  0.00    +0.000 C 
ATOM     38  C47 UNL     1      81.558  61.805 104.829  0.00  0.00    +0.000 C 
ATOM     39  O9  UNL     1      80.587  61.037 104.590  0.00  0.00    +0.000 OA
ATOM     40  C48 UNL     1      81.340  63.304 104.766  0.00  0.00    +0.000 C 
ATOM     41  N9  UNL     1      79.933  63.616 105.044  0.00  0.00    +0.000 N 
ATOM     42  C49 UNL     1      79.475  64.025 106.345  0.00  0.00    +0.000 C 
ATOM     43  O10 UNL     1      80.317  64.199 107.271  0.00  0.00    +0.000 OA
ATOM     44  C50 UNL     1      77.994  64.128 106.661  0.00  0.00    +0.000 C 
ATOM     45  N10 UNL     1      77.204  64.343 105.428  0.00  0.00    +0.000 N 
ATOM     46  C55 UNL     1      77.375  65.573 104.641  0.00  0.00    +0.000 C 
ATOM     47  C56 UNL     1      76.419  63.263 104.881  0.00  0.00    +0.000 C 
ATOM     48  O11 UNL     1      76.750  62.066 105.108  0.00  0.00    +0.000 OA
ATOM     49  C57 UNL     1      75.234  63.531 103.987  0.00  0.00    +0.000 C 
ATOM     50  N11 UNL     1      74.119  62.602 104.234  0.00  0.00    +0.000 N 
ATOM     51  C58 UNL     1      73.642  62.384 105.608  0.00  0.00    +0.000 C 
ATOM     52  C59 UNL     1      73.260  62.233 103.129  0.00  0.00    +0.000 C 
ATOM     53  O12 UNL     1      73.221  62.968 102.104  0.00  0.00    +0.000 OA
ATOM     54  H7  UNL     1      71.148  60.353 101.496  0.00  0.00    +0.000 HD
ATOM     55  H66 UNL     1      84.004  57.717 100.396  0.00  0.00    +0.000 HD
ATOM     56  H71 UNL     1      83.949  58.050 102.808  0.00  0.00    +0.000 HD
ATOM     57  H86 UNL     1      79.225  63.343 104.328  0.00  0.00    +0.000 HD
ENDROOT
BRANCH  10  58
ATOM     58  C16 UNL     1      73.699  55.028  98.477  0.00  0.00    +0.000 C 
ATOM     59  C17 UNL     1      73.602  55.354  96.978  0.00  0.00    +0.000 C 
ATOM     60  C18 UNL     1      73.773  53.509  98.684  0.00  0.00    +0.000 C 
ENDBRANCH  10  58
BRANCH  40  61
ATOM     61  C60 UNL     1      81.800  63.889 103.403  0.00  0.00    +0.000 C 
ATOM     62  C61 UNL     1      80.661  64.514 102.582  0.00  0.00    +0.000 C 
ATOM     63  C62 UNL     1      82.930  64.908 103.601  0.00  0.00    +0.000 C 
ENDBRANCH  40  61
BRANCH   1  65
ATOM     64  C1  UNL     1      70.221  62.434 103.251  0.00  0.00    +0.000 C 
ATOM     65  C2  UNL     1      71.016  61.286 103.883  0.00  0.00    +0.000 C 
ENDBRANCH   1  65
BRANCH   5  66
ATOM     66  C6  UNL     1      73.335  59.673  98.474  0.00  0.00    +0.000 C 
BRANCH  66  67
ATOM     67  O2  UNL     1      73.567  58.635  97.563  0.00  0.00    +0.000 OA
ATOM     68  H10 UNL     1      72.967  57.881  97.807  0.00  0.00    +0.000 HD
ENDBRANCH  66  67
BRANCH  66  69
ATOM     69  C7  UNL     1      72.415  60.740  97.792  0.00  0.00    +0.000 C 
ATOM     70  C8  UNL     1      72.574  62.159  98.355  0.00  0.00    +0.000 C 
BRANCH  69  71
ATOM     71  C9  UNL     1      70.933  60.317  97.607  0.00  0.00    +0.000 C 
BRANCH  71  72
ATOM     72  C10 UNL     1      69.951  61.034  98.503  0.00  0.00    +0.000 C 
ATOM     73  C11 UNL     1      69.336  60.407  99.517  0.00  0.00    +0.000 C 
ATOM     74  C12 UNL     1      68.328  61.118 100.368  0.00  0.00    +0.000 C 
ENDBRANCH  71  72
ENDBRANCH  69  71
ENDBRANCH  66  69
ENDBRANCH   5  66
BRANCH  15  75
ATOM     75  C22 UNL     1      78.280  53.572  97.462  0.00  0.00    +0.000 C 
BRANCH  75  76
ATOM     76  C23 UNL     1      77.474  52.478  96.725  0.00  0.00    +0.000 C 
ATOM     77  C24 UNL     1      76.392  53.079  95.811  0.00  0.00    +0.000 C 
ATOM     78  C25 UNL     1      76.817  51.534  97.742  0.00  0.00    +0.000 C 
ENDBRANCH  75  76
ENDBRANCH  15  75
BRANCH  20  79
ATOM     79  C29 UNL     1      82.230  52.958  98.397  0.00  0.00    +0.000 C 
BRANCH  79  80
ATOM     80  C30 UNL     1      82.166  51.416  98.537  0.00  0.00    +0.000 C 
ATOM     81  C31 UNL     1      80.843  50.856  97.994  0.00  0.00    +0.000 C 
ATOM     82  C32 UNL     1      82.337  51.008 100.007  0.00  0.00    +0.000 C 
ENDBRANCH  79  80
ENDBRANCH  20  79
BRANCH  35  83
ATOM     83  C42 UNL     1      82.974  58.834 105.797  0.00  0.00    +0.000 C 
BRANCH  83  84
ATOM     84  C43 UNL     1      82.289  57.482 105.459  0.00  0.00    +0.000 C 
ATOM     85  C44 UNL     1      81.274  57.621 104.317  0.00  0.00    +0.000 C 
ATOM     86  C45 UNL     1      83.356  56.445 105.071  0.00  0.00    +0.000 C 
ENDBRANCH  83  84
ENDBRANCH  35  83
BRANCH  44  87
ATOM     87  C51 UNL     1      77.714  65.235 107.726  0.00  0.00    +0.000 C 
BRANCH  87  88
ATOM     88  C52 UNL     1      76.835  64.832 108.937  0.00  0.00    +0.000 C 
ATOM     89  C53 UNL     1      75.367  64.570 108.570  0.00  0.00    +0.000 C 
ATOM     90  C54 UNL     1      77.423  63.665 109.745  0.00  0.00    +0.000 C 
ENDBRANCH  87  88
ENDBRANCH  44  87
TORSDOF 16
ENDMDL
MODEL 14
REMARK VINA RESULT:      -6.4      2.763      6.197
REMARK  Name = ./S1514.pdb
REMARK  40 active torsions:
REMARK  status: ('A' for Active; 'I' for Inactive)
REMARK    1  A    between atoms: C1_1  and  C2_2
REMARK    2  A    between atoms: C2_2  and  C3_3
REMARK    3  A    between atoms: C5_7  and  C6_8
REMARK    4  A    between atoms: C6_8  and  O2_9
REMARK    5  A    between atoms: C6_8  and  C7_10
REMARK    6  A    between atoms: C7_10  and  C8_11
REMARK    7  A    between atoms: C7_10  and  C9_12
REMARK    8  A    between atoms: C9_12  and  C10_13
REMARK    9  A    between atoms: C11_14  and  C12_15
REMARK   10  A    between atoms: N2_16  and  C13_17
REMARK   11  A    between atoms: C15_20  and  C16_21
REMARK   12  A    between atoms: C16_21  and  C17_22
REMARK   13  A    between atoms: C16_21  and  C18_23
REMARK   14  A    between atoms: N3_24  and  C19_25
REMARK   15  A    between atoms: C21_28  and  C22_29
REMARK   16  A    between atoms: C22_29  and  C23_30
REMARK   17  A    between atoms: C23_30  and  C24_31
REMARK   18  A    between atoms: C23_30  and  C25_32
REMARK   19  A    between atoms: N4_33  and  C26_34
REMARK   20  A    between atoms: C28_37  and  C29_38
REMARK   21  A    between atoms: C29_38  and  C30_39
REMARK   22  A    between atoms: C30_39  and  C31_40
REMARK   23  A    between atoms: C30_39  and  C32_41
REMARK   24  A    between atoms: N5_42  and  C33_43
REMARK   25  A    between atoms: C35_46  and  C36_47
REMARK   26  A    between atoms: C38_51  and  C39_52
REMARK   27  A    between atoms: C41_56  and  C42_57
REMARK   28  A    between atoms: C42_57  and  C43_58
REMARK   29  A    between atoms: C43_58  and  C44_59
REMARK   30  A    between atoms: C43_58  and  C45_60
REMARK   31  A    between atoms: N8_61  and  C46_62
REMARK   32  A    between atoms: C48_65  and  C60_83
REMARK   33  A    between atoms: C50_69  and  C51_70
REMARK   34  A    between atoms: C51_70  and  C52_71
REMARK   35  A    between atoms: C52_71  and  C53_72
REMARK   36  A    between atoms: C52_71  and  C54_73
REMARK   37  A    between atoms: N10_74  and  C55_75
REMARK   38  A    between atoms: N11_79  and  C58_80
REMARK   39  A    between atoms: C60_83  and  C61_84
REMARK   40  A    between atoms: C60_83  and  C62_85
REMARK                            x       y       z     vdW  Elec       q    Type
REMARK                         _______ _______ _______ _____ _____    ______ ____
ROOT
ATOM      1  C3  UNL     1      74.299  75.887 102.609  0.00  0.00    +0.000 C 
ATOM      2  N1  UNL     1      73.118  75.018 102.728  0.00  0.00    +0.000 N 
ATOM      3  C4  UNL     1      73.205  73.597 102.929  0.00  0.00    +0.000 C 
ATOM      4  O1  UNL     1      74.302  73.002 102.761  0.00  0.00    +0.000 OA
ATOM      5  C5  UNL     1      71.987  72.823 103.382  0.00  0.00    +0.000 C 
ATOM      6  N2  UNL     1      72.232  72.276 104.738  0.00  0.00    +0.000 N 
ATOM      7  C13 UNL     1      72.189  73.240 105.848  0.00  0.00    +0.000 C 
ATOM      8  C14 UNL     1      72.808  70.963 104.951  0.00  0.00    +0.000 C 
ATOM      9  O3  UNL     1      73.674  70.540 104.138  0.00  0.00    +0.000 OA
ATOM     10  C15 UNL     1      72.512  70.124 106.194  0.00  0.00    +0.000 C 
ATOM     11  N3  UNL     1      72.957  68.715 106.027  0.00  0.00    +0.000 N 
ATOM     12  C19 UNL     1      72.541  67.915 104.864  0.00  0.00    +0.000 C 
ATOM     13  C20 UNL     1      74.160  68.306 106.704  0.00  0.00    +0.000 C 
ATOM     14  O4  UNL     1      75.220  68.961 106.491  0.00  0.00    +0.000 OA
ATOM     15  C21 UNL     1      74.171  67.235 107.786  0.00  0.00    +0.000 C 
ATOM     16  N4  UNL     1      75.566  66.853 108.108  0.00  0.00    +0.000 N 
ATOM     17  C26 UNL     1      76.235  67.448 109.270  0.00  0.00    +0.000 C 
ATOM     18  C27 UNL     1      76.317  66.009 107.204  0.00  0.00    +0.000 C 
ATOM     19  O5  UNL     1      76.057  66.037 105.970  0.00  0.00    +0.000 OA
ATOM     20  C28 UNL     1      77.345  65.017 107.712  0.00  0.00    +0.000 C 
ATOM     21  N5  UNL     1      78.460  64.910 106.745  0.00  0.00    +0.000 N 
ATOM     22  C33 UNL     1      79.498  65.949 106.774  0.00  0.00    +0.000 C 
ATOM     23  C34 UNL     1      78.450  63.951 105.659  0.00  0.00    +0.000 C 
ATOM     24  O6  UNL     1      77.358  63.647 105.103  0.00  0.00    +0.000 OA
ATOM     25  C35 UNL     1      79.714  63.277 105.177  0.00  0.00    +0.000 C 
ATOM     26  C36 UNL     1      80.367  62.512 106.337  0.00  0.00    +0.000 C 
ATOM     27  N6  UNL     1      80.591  64.272 104.538  0.00  0.00    +0.000 N 
ATOM     28  C37 UNL     1      82.014  64.164 104.337  0.00  0.00    +0.000 C 
ATOM     29  O7  UNL     1      82.711  63.362 105.012  0.00  0.00    +0.000 OA
ATOM     30  C38 UNL     1      82.699  65.059 103.333  0.00  0.00    +0.000 C 
ATOM     31  C39 UNL     1      82.187  64.755 101.919  0.00  0.00    +0.000 C 
ATOM     32  N7  UNL     1      82.473  66.471 103.667  0.00  0.00    +0.000 N 
ATOM     33  C40 UNL     1      83.187  67.540 103.026  0.00  0.00    +0.000 C 
ATOM     34  O8  UNL     1      84.128  67.276 102.229  0.00  0.00    +0.000 OA
ATOM     35  C41 UNL     1      82.778  68.977 103.298  0.00  0.00    +0.000 C 
ATOM     36  N8  UNL     1      83.104  69.875 102.165  0.00  0.00    +0.000 N 
ATOM     37  C46 UNL     1      84.495  70.088 101.750  0.00  0.00    +0.000 C 
ATOM     38  C47 UNL     1      82.078  70.751 101.643  0.00  0.00    +0.000 C 
ATOM     39  O9  UNL     1      81.099  71.066 102.374  0.00  0.00    +0.000 OA
ATOM     40  C48 UNL     1      82.127  71.267 100.219  0.00  0.00    +0.000 C 
ATOM     41  N9  UNL     1      81.370  72.521 100.117  0.00  0.00    +0.000 N 
ATOM     42  C49 UNL     1      82.005  73.811 100.164  0.00  0.00    +0.000 C 
ATOM     43  O10 UNL     1      83.265  73.880 100.218  0.00  0.00    +0.000 OA
ATOM     44  C50 UNL     1      81.188  75.086 100.277  0.00  0.00    +0.000 C 
ATOM     45  N10 UNL     1      79.818  74.884  99.756  0.00  0.00    +0.000 N 
ATOM     46  C55 UNL     1      79.601  74.577  98.334  0.00  0.00    +0.000 C 
ATOM     47  C56 UNL     1      78.709  74.780 100.673  0.00  0.00    +0.000 C 
ATOM     48  O11 UNL     1      78.902  74.375 101.852  0.00  0.00    +0.000 OA
ATOM     49  C57 UNL     1      77.299  75.093 100.235  0.00  0.00    +0.000 C 
ATOM     50  N11 UNL     1      76.526  75.786 101.279  0.00  0.00    +0.000 N 
ATOM     51  C58 UNL     1      77.093  76.968 101.944  0.00  0.00    +0.000 C 
ATOM     52  C59 UNL     1      75.098  75.559 101.356  0.00  0.00    +0.000 C 
ATOM     53  O12 UNL     1      74.488  75.109 100.348  0.00  0.00    +0.000 OA
ATOM     54  H7  UNL     1      72.172  75.453 102.802  0.00  0.00    +0.000 HD
ATOM     55  H66 UNL     1      80.103  65.004 103.973  0.00  0.00    +0.000 HD
ATOM     56  H71 UNL     1      81.772  66.725 104.401  0.00  0.00    +0.000 HD
ATOM     57  H86 UNL     1      80.332  72.471 100.211  0.00  0.00    +0.000 HD
ENDROOT
BRANCH  10  58
ATOM     58  C16 UNL     1      71.037  70.231 106.730  0.00  0.00    +0.000 C 
ATOM     59  C17 UNL     1      69.936  69.914 105.706  0.00  0.00    +0.000 C 
ATOM     60  C18 UNL     1      70.855  69.368 107.986  0.00  0.00    +0.000 C 
ENDBRANCH  10  58
BRANCH  40  61
ATOM     61  C60 UNL     1      81.614  70.204  99.210  0.00  0.00    +0.000 C 
ATOM     62  C61 UNL     1      81.493  68.792  99.806  0.00  0.00    +0.000 C 
ATOM     63  C62 UNL     1      80.275  70.636  98.597  0.00  0.00    +0.000 C 
ENDBRANCH  40  61
BRANCH   1  65
ATOM     64  C1  UNL     1      72.537  77.655 101.952  0.00  0.00    +0.000 C 
ATOM     65  C2  UNL     1      73.868  77.373 102.659  0.00  0.00    +0.000 C 
ENDBRANCH   1  65
BRANCH   5  66
ATOM     66  C6  UNL     1      71.540  71.741 102.350  0.00  0.00    +0.000 C 
BRANCH  66  67
ATOM     67  O2  UNL     1      70.139  71.685 102.334  0.00  0.00    +0.000 OA
ATOM     68  H10 UNL     1      69.812  72.123 103.164  0.00  0.00    +0.000 HD
ENDBRANCH  66  67
BRANCH  66  69
ATOM     69  C7  UNL     1      72.049  71.927 100.882  0.00  0.00    +0.000 C 
ATOM     70  C8  UNL     1      71.515  73.187 100.187  0.00  0.00    +0.000 C 
BRANCH  69  71
ATOM     71  C9  UNL     1      71.977  70.659  99.989  0.00  0.00    +0.000 C 
BRANCH  71  72
ATOM     72  C10 UNL     1      72.838  70.705  98.749  0.00  0.00    +0.000 C 
ATOM     73  C11 UNL     1      72.302  70.678  97.519  0.00  0.00    +0.000 C 
ATOM     74  C12 UNL     1      73.171  70.677  96.298  0.00  0.00    +0.000 C 
ENDBRANCH  71  72
ENDBRANCH  69  71
ENDBRANCH  66  69
ENDBRANCH   5  66
BRANCH  15  75
ATOM     75  C22 UNL     1      73.351  65.957 107.446  0.00  0.00    +0.000 C 
BRANCH  75  76
ATOM     76  C23 UNL     1      72.231  65.616 108.455  0.00  0.00    +0.000 C 
ATOM     77  C24 UNL     1      70.832  65.780 107.836  0.00  0.00    +0.000 C 
ATOM     78  C25 UNL     1      72.349  66.514 109.695  0.00  0.00    +0.000 C 
ENDBRANCH  75  76
ENDBRANCH  15  75
BRANCH  20  79
ATOM     79  C29 UNL     1      76.693  63.640 108.010  0.00  0.00    +0.000 C 
BRANCH  79  80
ATOM     80  C30 UNL     1      76.889  63.161 109.471  0.00  0.00    +0.000 C 
ATOM     81  C31 UNL     1      76.088  64.022 110.459  0.00  0.00    +0.000 C 
ATOM     82  C32 UNL     1      78.378  63.192 109.846  0.00  0.00    +0.000 C 
ENDBRANCH  79  80
ENDBRANCH  20  79
BRANCH  35  83
ATOM     83  C42 UNL     1      83.259  69.594 104.650  0.00  0.00    +0.000 C 
BRANCH  83  84
ATOM     84  C43 UNL     1      82.190  69.922 105.728  0.00  0.00    +0.000 C 
ATOM     85  C44 UNL     1      81.923  71.429 105.833  0.00  0.00    +0.000 C 
ATOM     86  C45 UNL     1      80.879  69.192 105.395  0.00  0.00    +0.000 C 
ENDBRANCH  83  84
ENDBRANCH  35  83
BRANCH  44  87
ATOM     87  C51 UNL     1      81.901  76.285  99.575  0.00  0.00    +0.000 C 
BRANCH  87  88
ATOM     88  C52 UNL     1      81.898  77.638 100.331  0.00  0.00    +0.000 C 
ATOM     89  C53 UNL     1      83.169  78.469 100.105  0.00  0.00    +0.000 C 
ATOM     90  C54 UNL     1      80.635  78.471 100.069  0.00  0.00    +0.000 C 
ENDBRANCH  87  88
ENDBRANCH  44  87
TORSDOF 16
ENDMDL
MODEL 15
REMARK VINA RESULT:      -6.4      2.605     10.411
REMARK  Name = ./S1514.pdb
REMARK  40 active torsions:
REMARK  status: ('A' for Active; 'I' for Inactive)
REMARK    1  A    between atoms: C1_1  and  C2_2
REMARK    2  A    between atoms: C2_2  and  C3_3
REMARK    3  A    between atoms: C5_7  and  C6_8
REMARK    4  A    between atoms: C6_8  and  O2_9
REMARK    5  A    between atoms: C6_8  and  C7_10
REMARK    6  A    between atoms: C7_10  and  C8_11
REMARK    7  A    between atoms: C7_10  and  C9_12
REMARK    8  A    between atoms: C9_12  and  C10_13
REMARK    9  A    between atoms: C11_14  and  C12_15
REMARK   10  A    between atoms: N2_16  and  C13_17
REMARK   11  A    between atoms: C15_20  and  C16_21
REMARK   12  A    between atoms: C16_21  and  C17_22
REMARK   13  A    between atoms: C16_21  and  C18_23
REMARK   14  A    between atoms: N3_24  and  C19_25
REMARK   15  A    between atoms: C21_28  and  C22_29
REMARK   16  A    between atoms: C22_29  and  C23_30
REMARK   17  A    between atoms: C23_30  and  C24_31
REMARK   18  A    between atoms: C23_30  and  C25_32
REMARK   19  A    between atoms: N4_33  and  C26_34
REMARK   20  A    between atoms: C28_37  and  C29_38
REMARK   21  A    between atoms: C29_38  and  C30_39
REMARK   22  A    between atoms: C30_39  and  C31_40
REMARK   23  A    between atoms: C30_39  and  C32_41
REMARK   24  A    between atoms: N5_42  and  C33_43
REMARK   25  A    between atoms: C35_46  and  C36_47
REMARK   26  A    between atoms: C38_51  and  C39_52
REMARK   27  A    between atoms: C41_56  and  C42_57
REMARK   28  A    between atoms: C42_57  and  C43_58
REMARK   29  A    between atoms: C43_58  and  C44_59
REMARK   30  A    between atoms: C43_58  and  C45_60
REMARK   31  A    between atoms: N8_61  and  C46_62
REMARK   32  A    between atoms: C48_65  and  C60_83
REMARK   33  A    between atoms: C50_69  and  C51_70
REMARK   34  A    between atoms: C51_70  and  C52_71
REMARK   35  A    between atoms: C52_71  and  C53_72
REMARK   36  A    between atoms: C52_71  and  C54_73
REMARK   37  A    between atoms: N10_74  and  C55_75
REMARK   38  A    between atoms: N11_79  and  C58_80
REMARK   39  A    between atoms: C60_83  and  C61_84
REMARK   40  A    between atoms: C60_83  and  C62_85
REMARK                            x       y       z     vdW  Elec       q    Type
REMARK                         _______ _______ _______ _____ _____    ______ ____
ROOT
ATOM      1  C3  UNL     1      76.781  63.255 103.478  0.00  0.00    +0.000 C 
ATOM      2  N1  UNL     1      76.306  63.536 104.842  0.00  0.00    +0.000 N 
ATOM      3  C4  UNL     1      75.888  64.841 105.275  0.00  0.00    +0.000 C 
ATOM      4  O1  UNL     1      76.148  65.852 104.572  0.00  0.00    +0.000 OA
ATOM      5  C5  UNL     1      75.098  64.994 106.556  0.00  0.00    +0.000 C 
ATOM      6  N2  UNL     1      73.736  65.484 106.235  0.00  0.00    +0.000 N 
ATOM      7  C13 UNL     1      72.815  64.507 105.635  0.00  0.00    +0.000 C 
ATOM      8  C14 UNL     1      73.413  66.897 106.188  0.00  0.00    +0.000 C 
ATOM      9  O3  UNL     1      74.286  67.706 105.774  0.00  0.00    +0.000 OA
ATOM     10  C15 UNL     1      72.013  67.432 106.490  0.00  0.00    +0.000 C 
ATOM     11  N3  UNL     1      72.017  68.907 106.686  0.00  0.00    +0.000 N 
ATOM     12  C19 UNL     1      72.935  69.547 107.642  0.00  0.00    +0.000 C 
ATOM     13  C20 UNL     1      71.510  69.728 105.617  0.00  0.00    +0.000 C 
ATOM     14  O4  UNL     1      72.019  69.598 104.467  0.00  0.00    +0.000 OA
ATOM     15  C21 UNL     1      70.283  70.616 105.775  0.00  0.00    +0.000 C 
ATOM     16  N4  UNL     1      70.159  71.520 104.609  0.00  0.00    +0.000 N 
ATOM     17  C26 UNL     1      69.254  71.172 103.507  0.00  0.00    +0.000 C 
ATOM     18  C27 UNL     1      71.029  72.670 104.483  0.00  0.00    +0.000 C 
ATOM     19  O5  UNL     1      72.181  72.633 104.992  0.00  0.00    +0.000 OA
ATOM     20  C28 UNL     1      70.555  73.959 103.839  0.00  0.00    +0.000 C 
ATOM     21  N5  UNL     1      71.674  74.599 103.115  0.00  0.00    +0.000 N 
ATOM     22  C33 UNL     1      72.009  74.093 101.777  0.00  0.00    +0.000 C 
ATOM     23  C34 UNL     1      72.563  75.549 103.754  0.00  0.00    +0.000 C 
ATOM     24  O6  UNL     1      72.854  75.409 104.976  0.00  0.00    +0.000 OA
ATOM     25  C35 UNL     1      73.146  76.727 103.008  0.00  0.00    +0.000 C 
ATOM     26  C36 UNL     1      72.011  77.601 102.455  0.00  0.00    +0.000 C 
ATOM     27  N6  UNL     1      74.091  76.246 101.986  0.00  0.00    +0.000 N 
ATOM     28  C37 UNL     1      74.525  76.955 100.811  0.00  0.00    +0.000 C 
ATOM     29  O7  UNL     1      73.862  77.920 100.347  0.00  0.00    +0.000 OA
ATOM     30  C38 UNL     1      75.772  76.513 100.085  0.00  0.00    +0.000 C 
ATOM     31  C39 UNL     1      76.998  76.686 100.990  0.00  0.00    +0.000 C 
ATOM     32  N7  UNL     1      75.645  75.116  99.653  0.00  0.00    +0.000 N 
ATOM     33  C40 UNL     1      76.575  74.499  98.749  0.00  0.00    +0.000 C 
ATOM     34  O8  UNL     1      77.473  75.195  98.202  0.00  0.00    +0.000 OA
ATOM     35  C41 UNL     1      76.480  73.006  98.485  0.00  0.00    +0.000 C 
ATOM     36  N8  UNL     1      77.788  72.421  98.109  0.00  0.00    +0.000 N 
ATOM     37  C46 UNL     1      78.478  72.845  96.884  0.00  0.00    +0.000 C 
ATOM     38  C47 UNL     1      78.256  71.240  98.799  0.00  0.00    +0.000 C 
ATOM     39  O9  UNL     1      77.425  70.486  99.375  0.00  0.00    +0.000 OA
ATOM     40  C48 UNL     1      79.732  70.906  98.887  0.00  0.00    +0.000 C 
ATOM     41  N9  UNL     1      79.906  69.463  99.092  0.00  0.00    +0.000 N 
ATOM     42  C49 UNL     1      80.193  68.559  98.010  0.00  0.00    +0.000 C 
ATOM     43  O10 UNL     1      80.380  69.021  96.850  0.00  0.00    +0.000 OA
ATOM     44  C50 UNL     1      80.150  67.054  98.211  0.00  0.00    +0.000 C 
ATOM     45  N10 UNL     1      80.374  66.703  99.630  0.00  0.00    +0.000 N 
ATOM     46  C55 UNL     1      81.661  67.002 100.276  0.00  0.00    +0.000 C 
ATOM     47  C56 UNL     1      79.267  66.259 100.443  0.00  0.00    +0.000 C 
ATOM     48  O11 UNL     1      78.091  66.614 100.154  0.00  0.00    +0.000 OA
ATOM     49  C57 UNL     1      79.489  65.419 101.677  0.00  0.00    +0.000 C 
ATOM     50  N11 UNL     1      78.455  64.385 101.848  0.00  0.00    +0.000 N 
ATOM     51  C58 UNL     1      78.112  63.501 100.724  0.00  0.00    +0.000 C 
ATOM     52  C59 UNL     1      78.084  63.986 103.189  0.00  0.00    +0.000 C 
ATOM     53  O12 UNL     1      78.875  64.216 104.145  0.00  0.00    +0.000 OA
ATOM     54  H7  UNL     1      76.137  62.739 105.495  0.00  0.00    +0.000 HD
ATOM     55  H66 UNL     1      74.674  75.423 102.266  0.00  0.00    +0.000 HD
ATOM     56  H71 UNL     1      74.850  74.534 100.006  0.00  0.00    +0.000 HD
ATOM     57  H86 UNL     1      79.619  69.065 100.013  0.00  0.00    +0.000 HD
ENDROOT
BRANCH  10  58
ATOM     58  C16 UNL     1      71.246  66.674 107.634  0.00  0.00    +0.000 C 
ATOM     59  C17 UNL     1      70.465  67.567 108.612  0.00  0.00    +0.000 C 
ATOM     60  C18 UNL     1      70.320  65.600 107.045  0.00  0.00    +0.000 C 
ENDBRANCH  10  58
BRANCH  40  61
ATOM     61  C60 UNL     1      80.438  71.732  99.997  0.00  0.00    +0.000 C 
ATOM     62  C61 UNL     1      79.949  71.408 101.417  0.00  0.00    +0.000 C 
ATOM     63  C62 UNL     1      81.962  71.568  99.912  0.00  0.00    +0.000 C 
ENDBRANCH  40  61
BRANCH   1  65
ATOM     64  C1  UNL     1      75.739  61.114 102.482  0.00  0.00    +0.000 C 
ATOM     65  C2  UNL     1      76.905  61.726 103.267  0.00  0.00    +0.000 C 
ENDBRANCH   1  65
BRANCH   5  66
ATOM     66  C6  UNL     1      75.835  65.866 107.620  0.00  0.00    +0.000 C 
BRANCH  66  67
ATOM     67  O2  UNL     1      74.920  66.226 108.619  0.00  0.00    +0.000 OA
ATOM     68  H10 UNL     1      75.402  66.203 109.489  0.00  0.00    +0.000 HD
ENDBRANCH  66  67
BRANCH  66  69
ATOM     69  C7  UNL     1      77.089  65.223 108.300  0.00  0.00    +0.000 C 
ATOM     70  C8  UNL     1      78.420  65.572 107.618  0.00  0.00    +0.000 C 
BRANCH  69  71
ATOM     71  C9  UNL     1      76.957  63.716 108.648  0.00  0.00    +0.000 C 
BRANCH  71  72
ATOM     72  C10 UNL     1      76.926  63.406 110.125  0.00  0.00    +0.000 C 
ATOM     73  C11 UNL     1      77.995  62.905 110.762  0.00  0.00    +0.000 C 
ATOM     74  C12 UNL     1      77.935  62.557 112.219  0.00  0.00    +0.000 C 
ENDBRANCH  71  72
ENDBRANCH  69  71
ENDBRANCH  66  69
ENDBRANCH   5  66
BRANCH  15  75
ATOM     75  C22 UNL     1      70.249  71.454 107.085  0.00  0.00    +0.000 C 
BRANCH  75  76
ATOM     76  C23 UNL     1      69.177  72.567 107.116  0.00  0.00    +0.000 C 
ATOM     77  C24 UNL     1      69.239  73.388 108.416  0.00  0.00    +0.000 C 
ATOM     78  C25 UNL     1      67.777  71.954 106.966  0.00  0.00    +0.000 C 
ENDBRANCH  75  76
ENDBRANCH  15  75
BRANCH  20  79
ATOM     79  C29 UNL     1      69.916  74.907 104.889  0.00  0.00    +0.000 C 
BRANCH  79  80
ATOM     80  C30 UNL     1      68.499  75.402 104.502  0.00  0.00    +0.000 C 
ATOM     81  C31 UNL     1      68.561  76.686 103.661  0.00  0.00    +0.000 C 
ATOM     82  C32 UNL     1      67.659  75.649 105.763  0.00  0.00    +0.000 C 
ENDBRANCH  79  80
ENDBRANCH  20  79
BRANCH  35  83
ATOM     83  C42 UNL     1      75.362  72.544  97.499  0.00  0.00    +0.000 C 
BRANCH  83  84
ATOM     84  C43 UNL     1      73.973  72.170  98.088  0.00  0.00    +0.000 C 
ATOM     85  C44 UNL     1      73.284  71.066  97.277  0.00  0.00    +0.000 C 
ATOM     86  C45 UNL     1      74.137  71.709  99.545  0.00  0.00    +0.000 C 
ENDBRANCH  83  84
ENDBRANCH  35  83
BRANCH  44  87
ATOM     87  C51 UNL     1      81.161  66.325  97.270  0.00  0.00    +0.000 C 
BRANCH  87  88
ATOM     88  C52 UNL     1      80.575  65.654  96.002  0.00  0.00    +0.000 C 
ATOM     89  C53 UNL     1      79.045  65.527  96.026  0.00  0.00    +0.000 C 
ATOM     90  C54 UNL     1      81.058  66.307  94.698  0.00  0.00    +0.000 C 
ENDBRANCH  87  88
ENDBRANCH  44  87
TORSDOF 16
ENDMDL
MODEL 16
REMARK VINA RESULT:      -6.4      2.427     10.602
REMARK  Name = ./S1514.pdb
REMARK  40 active torsions:
REMARK  status: ('A' for Active; 'I' for Inactive)
REMARK    1  A    between atoms: C1_1  and  C2_2
REMARK    2  A    between atoms: C2_2  and  C3_3
REMARK    3  A    between atoms: C5_7  and  C6_8
REMARK    4  A    between atoms: C6_8  and  O2_9
REMARK    5  A    between atoms: C6_8  and  C7_10
REMARK    6  A    between atoms: C7_10  and  C8_11
REMARK    7  A    between atoms: C7_10  and  C9_12
REMARK    8  A    between atoms: C9_12  and  C10_13
REMARK    9  A    between atoms: C11_14  and  C12_15
REMARK   10  A    between atoms: N2_16  and  C13_17
REMARK   11  A    between atoms: C15_20  and  C16_21
REMARK   12  A    between atoms: C16_21  and  C17_22
REMARK   13  A    between atoms: C16_21  and  C18_23
REMARK   14  A    between atoms: N3_24  and  C19_25
REMARK   15  A    between atoms: C21_28  and  C22_29
REMARK   16  A    between atoms: C22_29  and  C23_30
REMARK   17  A    between atoms: C23_30  and  C24_31
REMARK   18  A    between atoms: C23_30  and  C25_32
REMARK   19  A    between atoms: N4_33  and  C26_34
REMARK   20  A    between atoms: C28_37  and  C29_38
REMARK   21  A    between atoms: C29_38  and  C30_39
REMARK   22  A    between atoms: C30_39  and  C31_40
REMARK   23  A    between atoms: C30_39  and  C32_41
REMARK   24  A    between atoms: N5_42  and  C33_43
REMARK   25  A    between atoms: C35_46  and  C36_47
REMARK   26  A    between atoms: C38_51  and  C39_52
REMARK   27  A    between atoms: C41_56  and  C42_57
REMARK   28  A    between atoms: C42_57  and  C43_58
REMARK   29  A    between atoms: C43_58  and  C44_59
REMARK   30  A    between atoms: C43_58  and  C45_60
REMARK   31  A    between atoms: N8_61  and  C46_62
REMARK   32  A    between atoms: C48_65  and  C60_83
REMARK   33  A    between atoms: C50_69  and  C51_70
REMARK   34  A    between atoms: C51_70  and  C52_71
REMARK   35  A    between atoms: C52_71  and  C53_72
REMARK   36  A    between atoms: C52_71  and  C54_73
REMARK   37  A    between atoms: N10_74  and  C55_75
REMARK   38  A    between atoms: N11_79  and  C58_80
REMARK   39  A    between atoms: C60_83  and  C61_84
REMARK   40  A    between atoms: C60_83  and  C62_85
REMARK                            x       y       z     vdW  Elec       q    Type
REMARK                         _______ _______ _______ _____ _____    ______ ____
ROOT
ATOM      1  C3  UNL     1      73.179  63.818 106.936  0.00  0.00    +0.000 C 
ATOM      2  N1  UNL     1      72.967  64.989 107.801  0.00  0.00    +0.000 N 
ATOM      3  C4  UNL     1      73.350  66.323 107.425  0.00  0.00    +0.000 C 
ATOM      4  O1  UNL     1      74.112  66.506 106.439  0.00  0.00    +0.000 OA
ATOM      5  C5  UNL     1      72.803  67.509 108.189  0.00  0.00    +0.000 C 
ATOM      6  N2  UNL     1      71.934  68.309 107.293  0.00  0.00    +0.000 N 
ATOM      7  C13 UNL     1      70.615  67.738 106.985  0.00  0.00    +0.000 C 
ATOM      8  C14 UNL     1      72.446  69.406 106.495  0.00  0.00    +0.000 C 
ATOM      9  O3  UNL     1      73.612  69.322 106.024  0.00  0.00    +0.000 OA
ATOM     10  C15 UNL     1      71.583  70.599 106.085  0.00  0.00    +0.000 C 
ATOM     11  N3  UNL     1      72.407  71.719 105.556  0.00  0.00    +0.000 N 
ATOM     12  C19 UNL     1      73.545  72.257 106.318  0.00  0.00    +0.000 C 
ATOM     13  C20 UNL     1      72.417  71.931 104.132  0.00  0.00    +0.000 C 
ATOM     14  O4  UNL     1      72.744  70.965 103.384  0.00  0.00    +0.000 OA
ATOM     15  C21 UNL     1      71.890  73.205 103.487  0.00  0.00    +0.000 C 
ATOM     16  N4  UNL     1      72.263  73.240 102.054  0.00  0.00    +0.000 N 
ATOM     17  C26 UNL     1      71.294  72.817 101.037  0.00  0.00    +0.000 C 
ATOM     18  C27 UNL     1      73.621  73.551 101.662  0.00  0.00    +0.000 C 
ATOM     19  O5  UNL     1      74.571  73.265 102.440  0.00  0.00    +0.000 OA
ATOM     20  C28 UNL     1      73.926  74.304 100.381  0.00  0.00    +0.000 C 
ATOM     21  N5  UNL     1      75.198  73.817  99.804  0.00  0.00    +0.000 N 
ATOM     22  C33 UNL     1      75.169  72.570  99.026  0.00  0.00    +0.000 C 
ATOM     23  C34 UNL     1      76.477  74.404 100.149  0.00  0.00    +0.000 C 
ATOM     24  O6  UNL     1      76.667  74.848 101.316  0.00  0.00    +0.000 OA
ATOM     25  C35 UNL     1      77.598  74.527  99.144  0.00  0.00    +0.000 C 
ATOM     26  C36 UNL     1      77.126  75.356  97.940  0.00  0.00    +0.000 C 
ATOM     27  N6  UNL     1      78.097  73.186  98.795  0.00  0.00    +0.000 N 
ATOM     28  C37 UNL     1      78.827  72.819  97.609  0.00  0.00    +0.000 C 
ATOM     29  O7  UNL     1      78.799  73.537  96.575  0.00  0.00    +0.000 OA
ATOM     30  C38 UNL     1      79.606  71.526  97.578  0.00  0.00    +0.000 C 
ATOM     31  C39 UNL     1      80.742  71.569  98.608  0.00  0.00    +0.000 C 
ATOM     32  N7  UNL     1      78.718  70.387  97.838  0.00  0.00    +0.000 N 
ATOM     33  C40 UNL     1      79.133  69.025  97.647  0.00  0.00    +0.000 C 
ATOM     34  O8  UNL     1      80.255  68.778  97.126  0.00  0.00    +0.000 OA
ATOM     35  C41 UNL     1      78.222  67.898  98.102  0.00  0.00    +0.000 C 
ATOM     36  N8  UNL     1      78.979  66.672  98.447  0.00  0.00    +0.000 N 
ATOM     37  C46 UNL     1      79.763  65.961  97.429  0.00  0.00    +0.000 C 
ATOM     38  C47 UNL     1      78.730  66.022  99.714  0.00  0.00    +0.000 C 
ATOM     39  O9  UNL     1      77.632  66.214 100.305  0.00  0.00    +0.000 OA
ATOM     40  C48 UNL     1      79.775  65.146 100.375  0.00  0.00    +0.000 C 
ATOM     41  N9  UNL     1      79.126  64.186 101.276  0.00  0.00    +0.000 N 
ATOM     42  C49 UNL     1      78.842  62.831 100.884  0.00  0.00    +0.000 C 
ATOM     43  O10 UNL     1      79.229  62.419  99.755  0.00  0.00    +0.000 OA
ATOM     44  C50 UNL     1      77.978  61.929 101.746  0.00  0.00    +0.000 C 
ATOM     45  N10 UNL     1      78.000  62.368 103.159  0.00  0.00    +0.000 N 
ATOM     46  C55 UNL     1      79.249  62.325 103.932  0.00  0.00    +0.000 C 
ATOM     47  C56 UNL     1      76.849  63.033 103.722  0.00  0.00    +0.000 C 
ATOM     48  O11 UNL     1      76.060  63.670 102.970  0.00  0.00    +0.000 OA
ATOM     49  C57 UNL     1      76.594  63.034 105.209  0.00  0.00    +0.000 C 
ATOM     50  N11 UNL     1      75.165  62.905 105.536  0.00  0.00    +0.000 N 
ATOM     51  C58 UNL     1      74.367  61.837 104.916  0.00  0.00    +0.000 C 
ATOM     52  C59 UNL     1      74.662  63.547 106.732  0.00  0.00    +0.000 C 
ATOM     53  O12 UNL     1      75.469  63.863 107.650  0.00  0.00    +0.000 OA
ATOM     54  H7  UNL     1      72.399  64.883 108.670  0.00  0.00    +0.000 HD
ATOM     55  H66 UNL     1      78.134  72.501  99.585  0.00  0.00    +0.000 HD
ATOM     56  H71 UNL     1      77.742  70.556  98.173  0.00  0.00    +0.000 HD
ATOM     57  H86 UNL     1      78.686  64.558 102.146  0.00  0.00    +0.000 HD
ENDROOT
BRANCH  10  58
ATOM     58  C16 UNL     1      70.548  71.073 107.170  0.00  0.00    +0.000 C 
ATOM     59  C17 UNL     1      70.955  72.318 107.974  0.00  0.00    +0.000 C 
ATOM     60  C18 UNL     1      69.163  71.278 106.542  0.00  0.00    +0.000 C 
ENDBRANCH  10  58
BRANCH  40  61
ATOM     61  C60 UNL     1      80.843  65.996 101.116  0.00  0.00    +0.000 C 
ATOM     62  C61 UNL     1      81.087  65.557 102.569  0.00  0.00    +0.000 C 
ATOM     63  C62 UNL     1      82.167  66.007 100.338  0.00  0.00    +0.000 C 
ENDBRANCH  40  61
BRANCH   1  65
ATOM     64  C1  UNL     1      73.316  61.676 108.369  0.00  0.00    +0.000 C 
ATOM     65  C2  UNL     1      72.432  62.593 107.516  0.00  0.00    +0.000 C 
ENDBRANCH   1  65
BRANCH   5  66
ATOM     66  C6  UNL     1      73.922  68.350 108.879  0.00  0.00    +0.000 C 
BRANCH  66  67
ATOM     67  O2  UNL     1      73.529  69.695 108.895  0.00  0.00    +0.000 OA
ATOM     68  H10 UNL     1      74.056  70.154 109.602  0.00  0.00    +0.000 HD
ENDBRANCH  66  67
BRANCH  66  69
ATOM     69  C7  UNL     1      74.313  67.928 110.335  0.00  0.00    +0.000 C 
ATOM     70  C8  UNL     1      75.817  68.014 110.630  0.00  0.00    +0.000 C 
BRANCH  69  71
ATOM     71  C9  UNL     1      73.664  66.612 110.841  0.00  0.00    +0.000 C 
BRANCH  71  72
ATOM     72  C10 UNL     1      74.620  65.454 111.007  0.00  0.00    +0.000 C 
ATOM     73  C11 UNL     1      74.185  64.188 111.083  0.00  0.00    +0.000 C 
ATOM     74  C12 UNL     1      75.141  63.053 111.295  0.00  0.00    +0.000 C 
ENDBRANCH  71  72
ENDBRANCH  69  71
ENDBRANCH  66  69
ENDBRANCH   5  66
BRANCH  15  75
ATOM     75  C22 UNL     1      72.353  74.522 104.173  0.00  0.00    +0.000 C 
BRANCH  75  76
ATOM     76  C23 UNL     1      71.233  75.307 104.894  0.00  0.00    +0.000 C 
ATOM     77  C24 UNL     1      71.585  75.590 106.365  0.00  0.00    +0.000 C 
ATOM     78  C25 UNL     1      69.913  74.524 104.825  0.00  0.00    +0.000 C 
ENDBRANCH  75  76
ENDBRANCH  15  75
BRANCH  20  79
ATOM     79  C29 UNL     1      73.940  75.837 100.623  0.00  0.00    +0.000 C 
BRANCH  79  80
ATOM     80  C30 UNL     1      73.034  76.630  99.647  0.00  0.00    +0.000 C 
ATOM     81  C31 UNL     1      71.581  76.136  99.699  0.00  0.00    +0.000 C 
ATOM     82  C32 UNL     1      73.569  76.517  98.212  0.00  0.00    +0.000 C 
ENDBRANCH  79  80
ENDBRANCH  20  79
BRANCH  35  83
ATOM     83  C42 UNL     1      77.014  67.560  97.172  0.00  0.00    +0.000 C 
BRANCH  83  84
ATOM     84  C43 UNL     1      75.606  68.071  97.584  0.00  0.00    +0.000 C 
ATOM     85  C44 UNL     1      75.304  69.457  97.001  0.00  0.00    +0.000 C 
ATOM     86  C45 UNL     1      74.536  67.073  97.111  0.00  0.00    +0.000 C 
ENDBRANCH  83  84
ENDBRANCH  35  83
BRANCH  44  87
ATOM     87  C51 UNL     1      78.397  60.431 101.602  0.00  0.00    +0.000 C 
BRANCH  87  88
ATOM     88  C52 UNL     1      77.402  59.373 102.145  0.00  0.00    +0.000 C 
ATOM     89  C53 UNL     1      76.986  58.329 101.098  0.00  0.00    +0.000 C 
ATOM     90  C54 UNL     1      77.885  58.701 103.438  0.00  0.00    +0.000 C 
ENDBRANCH  87  88
ENDBRANCH  44  87
TORSDOF 16
ENDMDL
MODEL 17
REMARK VINA RESULT:      -6.4      6.540     14.738
REMARK  Name = ./S1514.pdb
REMARK  40 active torsions:
REMARK  status: ('A' for Active; 'I' for Inactive)
REMARK    1  A    between atoms: C1_1  and  C2_2
REMARK    2  A    between atoms: C2_2  and  C3_3
REMARK    3  A    between atoms: C5_7  and  C6_8
REMARK    4  A    between atoms: C6_8  and  O2_9
REMARK    5  A    between atoms: C6_8  and  C7_10
REMARK    6  A    between atoms: C7_10  and  C8_11
REMARK    7  A    between atoms: C7_10  and  C9_12
REMARK    8  A    between atoms: C9_12  and  C10_13
REMARK    9  A    between atoms: C11_14  and  C12_15
REMARK   10  A    between atoms: N2_16  and  C13_17
REMARK   11  A    between atoms: C15_20  and  C16_21
REMARK   12  A    between atoms: C16_21  and  C17_22
REMARK   13  A    between atoms: C16_21  and  C18_23
REMARK   14  A    between atoms: N3_24  and  C19_25
REMARK   15  A    between atoms: C21_28  and  C22_29
REMARK   16  A    between atoms: C22_29  and  C23_30
REMARK   17  A    between atoms: C23_30  and  C24_31
REMARK   18  A    between atoms: C23_30  and  C25_32
REMARK   19  A    between atoms: N4_33  and  C26_34
REMARK   20  A    between atoms: C28_37  and  C29_38
REMARK   21  A    between atoms: C29_38  and  C30_39
REMARK   22  A    between atoms: C30_39  and  C31_40
REMARK   23  A    between atoms: C30_39  and  C32_41
REMARK   24  A    between atoms: N5_42  and  C33_43
REMARK   25  A    between atoms: C35_46  and  C36_47
REMARK   26  A    between atoms: C38_51  and  C39_52
REMARK   27  A    between atoms: C41_56  and  C42_57
REMARK   28  A    between atoms: C42_57  and  C43_58
REMARK   29  A    between atoms: C43_58  and  C44_59
REMARK   30  A    between atoms: C43_58  and  C45_60
REMARK   31  A    between atoms: N8_61  and  C46_62
REMARK   32  A    between atoms: C48_65  and  C60_83
REMARK   33  A    between atoms: C50_69  and  C51_70
REMARK   34  A    between atoms: C51_70  and  C52_71
REMARK   35  A    between atoms: C52_71  and  C53_72
REMARK   36  A    between atoms: C52_71  and  C54_73
REMARK   37  A    between atoms: N10_74  and  C55_75
REMARK   38  A    between atoms: N11_79  and  C58_80
REMARK   39  A    between atoms: C60_83  and  C61_84
REMARK   40  A    between atoms: C60_83  and  C62_85
REMARK                            x       y       z     vdW  Elec       q    Type
REMARK                         _______ _______ _______ _____ _____    ______ ____
ROOT
ATOM      1  C3  UNL     1      87.991  66.517  96.875  0.00  0.00    +0.000 C 
ATOM      2  N1  UNL     1      88.924  67.550  96.398  0.00  0.00    +0.000 N 
ATOM      3  C4  UNL     1      88.668  68.958  96.526  0.00  0.00    +0.000 C 
ATOM      4  O1  UNL     1      87.516  69.366  96.828  0.00  0.00    +0.000 OA
ATOM      5  C5  UNL     1      89.795  69.950  96.337  0.00  0.00    +0.000 C 
ATOM      6  N2  UNL     1      90.058  70.641  97.622  0.00  0.00    +0.000 N 
ATOM      7  C13 UNL     1      90.752  69.857  98.654  0.00  0.00    +0.000 C 
ATOM      8  C14 UNL     1      89.396  71.878  97.986  0.00  0.00    +0.000 C 
ATOM      9  O3  UNL     1      88.203  72.059  97.620  0.00  0.00    +0.000 OA
ATOM     10  C15 UNL     1      90.035  72.915  98.910  0.00  0.00    +0.000 C 
ATOM     11  N3  UNL     1      89.308  74.212  98.870  0.00  0.00    +0.000 N 
ATOM     12  C19 UNL     1      89.027  74.892  97.596  0.00  0.00    +0.000 C 
ATOM     13  C20 UNL     1      88.458  74.540  99.986  0.00  0.00    +0.000 C 
ATOM     14  O4  UNL     1      87.552  73.720 100.310  0.00  0.00    +0.000 OA
ATOM     15  C21 UNL     1      88.713  75.739 100.888  0.00  0.00    +0.000 C 
ATOM     16  N4  UNL     1      87.548  75.964 101.774  0.00  0.00    +0.000 N 
ATOM     17  C26 UNL     1      87.565  75.450 103.148  0.00  0.00    +0.000 C 
ATOM     18  C27 UNL     1      86.338  76.561 101.249  0.00  0.00    +0.000 C 
ATOM     19  O5  UNL     1      86.045  76.398 100.034  0.00  0.00    +0.000 OA
ATOM     20  C28 UNL     1      85.463  77.462 102.099  0.00  0.00    +0.000 C 
ATOM     21  N5  UNL     1      84.043  77.277 101.728  0.00  0.00    +0.000 N 
ATOM     22  C33 UNL     1      83.332  76.118 102.283  0.00  0.00    +0.000 C 
ATOM     23  C34 UNL     1      83.407  78.068 100.693  0.00  0.00    +0.000 C 
ATOM     24  O6  UNL     1      84.077  78.440  99.689  0.00  0.00    +0.000 OA
ATOM     25  C35 UNL     1      81.958  78.485 100.784  0.00  0.00    +0.000 C 
ATOM     26  C36 UNL     1      81.735  79.306 102.063  0.00  0.00    +0.000 C 
ATOM     27  N6  UNL     1      81.093  77.299 100.670  0.00  0.00    +0.000 N 
ATOM     28  C37 UNL     1      79.730  77.178 101.118  0.00  0.00    +0.000 C 
ATOM     29  O7  UNL     1      79.253  77.962 101.981  0.00  0.00    +0.000 OA
ATOM     30  C38 UNL     1      78.860  76.066 100.585  0.00  0.00    +0.000 C 
ATOM     31  C39 UNL     1      78.648  76.239  99.076  0.00  0.00    +0.000 C 
ATOM     32  N7  UNL     1      79.466  74.760 100.873  0.00  0.00    +0.000 N 
ATOM     33  C40 UNL     1      78.759  73.523 100.687  0.00  0.00    +0.000 C 
ATOM     34  O8  UNL     1      77.536  73.540 100.380  0.00  0.00    +0.000 OA
ATOM     35  C41 UNL     1      79.505  72.208 100.839  0.00  0.00    +0.000 C 
ATOM     36  N8  UNL     1      78.898  71.125 100.030  0.00  0.00    +0.000 N 
ATOM     37  C46 UNL     1      77.530  70.665 100.295  0.00  0.00    +0.000 C 
ATOM     38  C47 UNL     1      79.744  70.336  99.162  0.00  0.00    +0.000 C 
ATOM     39  O9  UNL     1      80.981  70.265  99.397  0.00  0.00    +0.000 OA
ATOM     40  C48 UNL     1      79.186  69.625  97.945  0.00  0.00    +0.000 C 
ATOM     41  N9  UNL     1      80.045  68.487  97.596  0.00  0.00    +0.000 N 
ATOM     42  C49 UNL     1      79.744  67.140  98.003  0.00  0.00    +0.000 C 
ATOM     43  O10 UNL     1      78.666  66.905  98.619  0.00  0.00    +0.000 OA
ATOM     44  C50 UNL     1      80.752  66.020  97.820  0.00  0.00    +0.000 C 
ATOM     45  N10 UNL     1      81.701  66.335  96.730  0.00  0.00    +0.000 N 
ATOM     46  C55 UNL     1      81.226  66.468  95.345  0.00  0.00    +0.000 C 
ATOM     47  C56 UNL     1      83.056  66.719  97.046  0.00  0.00    +0.000 C 
ATOM     48  O11 UNL     1      83.316  67.254  98.160  0.00  0.00    +0.000 OA
ATOM     49  C57 UNL     1      84.173  66.547  96.046  0.00  0.00    +0.000 C 
ATOM     50  N11 UNL     1      85.433  66.121  96.676  0.00  0.00    +0.000 N 
ATOM     51  C58 UNL     1      85.438  64.975  97.598  0.00  0.00    +0.000 C 
ATOM     52  C59 UNL     1      86.686  66.553  96.093  0.00  0.00    +0.000 C 
ATOM     53  O12 UNL     1      86.708  66.939  94.892  0.00  0.00    +0.000 OA
ATOM     54  H7  UNL     1      89.872  67.265  96.069  0.00  0.00    +0.000 HD
ATOM     55  H66 UNL     1      81.418  76.570  99.993  0.00  0.00    +0.000 HD
ATOM     56  H71 UNL     1      80.448  74.711 101.231  0.00  0.00    +0.000 HD
ATOM     57  H86 UNL     1      80.993  68.693  97.213  0.00  0.00    +0.000 HD
ENDROOT
BRANCH  10  58
ATOM     58  C16 UNL     1      91.588  73.090  98.736  0.00  0.00    +0.000 C 
ATOM     59  C17 UNL     1      92.025  74.067  97.633  0.00  0.00    +0.000 C 
ATOM     60  C18 UNL     1      92.241  73.473 100.071  0.00  0.00    +0.000 C 
ENDBRANCH  10  58
BRANCH  40  61
ATOM     61  C60 UNL     1      79.008  70.598  96.748  0.00  0.00    +0.000 C 
ATOM     62  C61 UNL     1      79.324  69.967  95.384  0.00  0.00    +0.000 C 
ATOM     63  C62 UNL     1      77.595  71.198  96.739  0.00  0.00    +0.000 C 
ENDBRANCH  40  61
BRANCH   1  65
ATOM     64  C1  UNL     1      88.797  64.555  95.405  0.00  0.00    +0.000 C 
ATOM     65  C2  UNL     1      88.670  65.127  96.821  0.00  0.00    +0.000 C 
ENDBRANCH   1  65
BRANCH   5  66
ATOM     66  C6  UNL     1      89.546  70.929  95.148  0.00  0.00    +0.000 C 
BRANCH  66  67
ATOM     67  O2  UNL     1      90.150  72.159  95.442  0.00  0.00    +0.000 OA
ATOM     68  H10 UNL     1      89.880  72.412  96.365  0.00  0.00    +0.000 HD
ENDBRANCH  66  67
BRANCH  66  69
ATOM     69  C7  UNL     1      90.040  70.455  93.740  0.00  0.00    +0.000 C 
ATOM     70  C8  UNL     1      90.538  71.590  92.835  0.00  0.00    +0.000 C 
BRANCH  69  71
ATOM     71  C9  UNL     1      89.104  69.456  93.009  0.00  0.00    +0.000 C 
BRANCH  71  72
ATOM     72  C10 UNL     1      89.592  68.027  92.986  0.00  0.00    +0.000 C 
ATOM     73  C11 UNL     1      90.811  67.693  93.436  0.00  0.00    +0.000 C 
ATOM     74  C12 UNL     1      91.300  66.278  93.363  0.00  0.00    +0.000 C 
ENDBRANCH  71  72
ENDBRANCH  69  71
ENDBRANCH  66  69
ENDBRANCH   5  66
BRANCH  15  75
ATOM     75  C22 UNL     1      89.054  77.058 100.137  0.00  0.00    +0.000 C 
BRANCH  75  76
ATOM     76  C23 UNL     1      90.565  77.343  99.977  0.00  0.00    +0.000 C 
ATOM     77  C24 UNL     1      91.369  76.888 101.207  0.00  0.00    +0.000 C 
ATOM     78  C25 UNL     1      90.795  78.844  99.743  0.00  0.00    +0.000 C 
ENDBRANCH  75  76
ENDBRANCH  15  75
BRANCH  20  79
ATOM     79  C29 UNL     1      85.911  78.944 101.987  0.00  0.00    +0.000 C 
BRANCH  79  80
ATOM     80  C30 UNL     1      86.737  79.440 103.201  0.00  0.00    +0.000 C 
ATOM     81  C31 UNL     1      88.245  79.272 102.963  0.00  0.00    +0.000 C 
ATOM     82  C32 UNL     1      86.325  78.680 104.470  0.00  0.00    +0.000 C 
ENDBRANCH  79  80
ENDBRANCH  20  79
BRANCH  35  83
ATOM     83  C42 UNL     1      79.775  71.725 102.298  0.00  0.00    +0.000 C 
BRANCH  83  84
ATOM     84  C43 UNL     1      81.249  71.641 102.783  0.00  0.00    +0.000 C 
ATOM     85  C44 UNL     1      81.754  70.194 102.837  0.00  0.00    +0.000 C 
ATOM     86  C45 UNL     1      82.149  72.462 101.846  0.00  0.00    +0.000 C 
ENDBRANCH  83  84
ENDBRANCH  35  83
BRANCH  44  87
ATOM     87  C51 UNL     1      80.044  64.647  97.588  0.00  0.00    +0.000 C 
BRANCH  87  88
ATOM     88  C52 UNL     1      80.347  63.524  98.613  0.00  0.00    +0.000 C 
ATOM     89  C53 UNL     1      81.802  63.516  99.102  0.00  0.00    +0.000 C 
ATOM     90  C54 UNL     1      79.364  63.505  99.793  0.00  0.00    +0.000 C 
ENDBRANCH  87  88
ENDBRANCH  44  87
TORSDOF 16
ENDMDL
MODEL 18
REMARK VINA RESULT:      -6.3      6.669     16.736
REMARK  Name = ./S1514.pdb
REMARK  40 active torsions:
REMARK  status: ('A' for Active; 'I' for Inactive)
REMARK    1  A    between atoms: C1_1  and  C2_2
REMARK    2  A    between atoms: C2_2  and  C3_3
REMARK    3  A    between atoms: C5_7  and  C6_8
REMARK    4  A    between atoms: C6_8  and  O2_9
REMARK    5  A    between atoms: C6_8  and  C7_10
REMARK    6  A    between atoms: C7_10  and  C8_11
REMARK    7  A    between atoms: C7_10  and  C9_12
REMARK    8  A    between atoms: C9_12  and  C10_13
REMARK    9  A    between atoms: C11_14  and  C12_15
REMARK   10  A    between atoms: N2_16  and  C13_17
REMARK   11  A    between atoms: C15_20  and  C16_21
REMARK   12  A    between atoms: C16_21  and  C17_22
REMARK   13  A    between atoms: C16_21  and  C18_23
REMARK   14  A    between atoms: N3_24  and  C19_25
REMARK   15  A    between atoms: C21_28  and  C22_29
REMARK   16  A    between atoms: C22_29  and  C23_30
REMARK   17  A    between atoms: C23_30  and  C24_31
REMARK   18  A    between atoms: C23_30  and  C25_32
REMARK   19  A    between atoms: N4_33  and  C26_34
REMARK   20  A    between atoms: C28_37  and  C29_38
REMARK   21  A    between atoms: C29_38  and  C30_39
REMARK   22  A    between atoms: C30_39  and  C31_40
REMARK   23  A    between atoms: C30_39  and  C32_41
REMARK   24  A    between atoms: N5_42  and  C33_43
REMARK   25  A    between atoms: C35_46  and  C36_47
REMARK   26  A    between atoms: C38_51  and  C39_52
REMARK   27  A    between atoms: C41_56  and  C42_57
REMARK   28  A    between atoms: C42_57  and  C43_58
REMARK   29  A    between atoms: C43_58  and  C44_59
REMARK   30  A    between atoms: C43_58  and  C45_60
REMARK   31  A    between atoms: N8_61  and  C46_62
REMARK   32  A    between atoms: C48_65  and  C60_83
REMARK   33  A    between atoms: C50_69  and  C51_70
REMARK   34  A    between atoms: C51_70  and  C52_71
REMARK   35  A    between atoms: C52_71  and  C53_72
REMARK   36  A    between atoms: C52_71  and  C54_73
REMARK   37  A    between atoms: N10_74  and  C55_75
REMARK   38  A    between atoms: N11_79  and  C58_80
REMARK   39  A    between atoms: C60_83  and  C61_84
REMARK   40  A    between atoms: C60_83  and  C62_85
REMARK                            x       y       z     vdW  Elec       q    Type
REMARK                         _______ _______ _______ _____ _____    ______ ____
ROOT
ATOM      1  C3  UNL     1      78.974  52.395 103.109  0.00  0.00    +0.000 C 
ATOM      2  N1  UNL     1      79.970  51.994 102.104  0.00  0.00    +0.000 N 
ATOM      3  C4  UNL     1      80.724  52.939 101.326  0.00  0.00    +0.000 C 
ATOM      4  O1  UNL     1      80.381  54.150 101.297  0.00  0.00    +0.000 OA
ATOM      5  C5  UNL     1      81.955  52.484 100.573  0.00  0.00    +0.000 C 
ATOM      6  N2  UNL     1      83.152  53.140 101.153  0.00  0.00    +0.000 N 
ATOM      7  C13 UNL     1      83.607  52.633 102.456  0.00  0.00    +0.000 C 
ATOM      8  C14 UNL     1      83.654  54.408 100.662  0.00  0.00    +0.000 C 
ATOM      9  O3  UNL     1      82.831  55.270 100.251  0.00  0.00    +0.000 OA
ATOM     10  C15 UNL     1      85.130  54.799 100.748  0.00  0.00    +0.000 C 
ATOM     11  N3  UNL     1      85.436  55.985  99.903  0.00  0.00    +0.000 N 
ATOM     12  C19 UNL     1      85.066  56.025  98.480  0.00  0.00    +0.000 C 
ATOM     13  C20 UNL     1      85.623  57.251 100.565  0.00  0.00    +0.000 C 
ATOM     14  O4  UNL     1      84.701  57.675 101.319  0.00  0.00    +0.000 OA
ATOM     15  C21 UNL     1      86.942  58.010 100.528  0.00  0.00    +0.000 C 
ATOM     16  N4  UNL     1      86.756  59.376 101.071  0.00  0.00    +0.000 N 
ATOM     17  C26 UNL     1      87.105  59.661 102.467  0.00  0.00    +0.000 C 
ATOM     18  C27 UNL     1      86.099  60.392 100.276  0.00  0.00    +0.000 C 
ATOM     19  O5  UNL     1      85.237  60.048  99.423  0.00  0.00    +0.000 OA
ATOM     20  C28 UNL     1      86.492  61.853 100.373  0.00  0.00    +0.000 C 
ATOM     21  N5  UNL     1      85.299  62.707 100.182  0.00  0.00    +0.000 N 
ATOM     22  C33 UNL     1      84.404  62.906 101.330  0.00  0.00    +0.000 C 
ATOM     23  C34 UNL     1      84.884  63.172  98.874  0.00  0.00    +0.000 C 
ATOM     24  O6  UNL     1      85.061  62.436  97.863  0.00  0.00    +0.000 OA
ATOM     25  C35 UNL     1      84.257  64.532  98.670  0.00  0.00    +0.000 C 
ATOM     26  C36 UNL     1      85.221  65.623  99.159  0.00  0.00    +0.000 C 
ATOM     27  N6  UNL     1      82.931  64.565  99.309  0.00  0.00    +0.000 N 
ATOM     28  C37 UNL     1      82.202  65.737  99.721  0.00  0.00    +0.000 C 
ATOM     29  O7  UNL     1      82.784  66.838  99.905  0.00  0.00    +0.000 OA
ATOM     30  C38 UNL     1      80.719  65.643  99.986  0.00  0.00    +0.000 C 
ATOM     31  C39 UNL     1      79.974  65.284  98.694  0.00  0.00    +0.000 C 
ATOM     32  N7  UNL     1      80.447  64.647 101.029  0.00  0.00    +0.000 N 
ATOM     33  C40 UNL     1      79.157  64.505 101.646  0.00  0.00    +0.000 C 
ATOM     34  O8  UNL     1      78.243  65.332 101.382  0.00  0.00    +0.000 OA
ATOM     35  C41 UNL     1      78.905  63.342 102.589  0.00  0.00    +0.000 C 
ATOM     36  N8  UNL     1      77.477  62.949 102.622  0.00  0.00    +0.000 N 
ATOM     37  C46 UNL     1      76.451  63.883 103.101  0.00  0.00    +0.000 C 
ATOM     38  C47 UNL     1      77.125  61.558 102.441  0.00  0.00    +0.000 C 
ATOM     39  O9  UNL     1      77.981  60.664 102.682  0.00  0.00    +0.000 OA
ATOM     40  C48 UNL     1      75.760  61.147 101.925  0.00  0.00    +0.000 C 
ATOM     41  N9  UNL     1      75.450  59.782 102.367  0.00  0.00    +0.000 N 
ATOM     42  C49 UNL     1      74.633  59.512 103.521  0.00  0.00    +0.000 C 
ATOM     43  O10 UNL     1      74.095  60.474 104.138  0.00  0.00    +0.000 OA
ATOM     44  C50 UNL     1      74.508  58.108 104.084  0.00  0.00    +0.000 C 
ATOM     45  N10 UNL     1      74.788  57.094 103.043  0.00  0.00    +0.000 N 
ATOM     46  C55 UNL     1      73.909  56.968 101.871  0.00  0.00    +0.000 C 
ATOM     47  C56 UNL     1      76.034  56.367 103.067  0.00  0.00    +0.000 C 
ATOM     48  O11 UNL     1      77.052  56.879 103.609  0.00  0.00    +0.000 OA
ATOM     49  C57 UNL     1      76.167  55.018 102.402  0.00  0.00    +0.000 C 
ATOM     50  N11 UNL     1      77.010  54.090 103.173  0.00  0.00    +0.000 N 
ATOM     51  C58 UNL     1      76.753  53.891 104.608  0.00  0.00    +0.000 C 
ATOM     52  C59 UNL     1      77.794  53.104 102.461  0.00  0.00    +0.000 C 
ATOM     53  O12 UNL     1      77.473  52.794 101.281  0.00  0.00    +0.000 OA
ATOM     54  H7  UNL     1      80.245  50.990 102.033  0.00  0.00    +0.000 HD
ATOM     55  H66 UNL     1      82.375  63.682  99.235  0.00  0.00    +0.000 HD
ATOM     56  H71 UNL     1      81.213  64.010 101.350  0.00  0.00    +0.000 HD
ATOM     57  H86 UNL     1      75.998  58.999 101.949  0.00  0.00    +0.000 HD
ENDROOT
BRANCH  10  58
ATOM     58  C16 UNL     1      86.143  53.619 100.519  0.00  0.00    +0.000 C 
ATOM     59  C17 UNL     1      85.929  52.802  99.235  0.00  0.00    +0.000 C 
ATOM     60  C18 UNL     1      87.590  54.129 100.587  0.00  0.00    +0.000 C 
ENDBRANCH  10  58
BRANCH  40  61
ATOM     61  C60 UNL     1      75.672  61.283 100.380  0.00  0.00    +0.000 C 
ATOM     62  C61 UNL     1      76.157  60.040  99.619  0.00  0.00    +0.000 C 
ATOM     63  C62 UNL     1      74.244  61.645  99.947  0.00  0.00    +0.000 C 
ENDBRANCH  40  61
BRANCH   1  65
ATOM     64  C1  UNL     1      79.658  50.143 104.170  0.00  0.00    +0.000 C 
ATOM     65  C2  UNL     1      78.537  51.163 103.938  0.00  0.00    +0.000 C 
ENDBRANCH   1  65
BRANCH   5  66
ATOM     66  C6  UNL     1      81.828  52.682  99.030  0.00  0.00    +0.000 C 
BRANCH  66  67
ATOM     67  O2  UNL     1      82.700  51.791  98.389  0.00  0.00    +0.000 OA
ATOM     68  H10 UNL     1      82.492  50.877  98.720  0.00  0.00    +0.000 HD
ENDBRANCH  66  67
BRANCH  66  69
ATOM     69  C7  UNL     1      80.397  52.506  98.421  0.00  0.00    +0.000 C 
ATOM     70  C8  UNL     1      80.190  51.179  97.678  0.00  0.00    +0.000 C 
BRANCH  69  71
ATOM     71  C9  UNL     1      79.850  53.734  97.645  0.00  0.00    +0.000 C 
BRANCH  71  72
ATOM     72  C10 UNL     1      78.611  54.360  98.238  0.00  0.00    +0.000 C 
ATOM     73  C11 UNL     1      78.584  55.648  98.613  0.00  0.00    +0.000 C 
ATOM     74  C12 UNL     1      77.362  56.244  99.243  0.00  0.00    +0.000 C 
ENDBRANCH  71  72
ENDBRANCH  69  71
ENDBRANCH  66  69
ENDBRANCH   5  66
BRANCH  15  75
ATOM     75  C22 UNL     1      87.605  58.097  99.124  0.00  0.00    +0.000 C 
BRANCH  75  76
ATOM     76  C23 UNL     1      89.021  57.484  99.035  0.00  0.00    +0.000 C 
ATOM     77  C24 UNL     1      89.888  57.862 100.248  0.00  0.00    +0.000 C 
ATOM     78  C25 UNL     1      89.715  57.949  97.746  0.00  0.00    +0.000 C 
ENDBRANCH  75  76
ENDBRANCH  15  75
BRANCH  20  79
ATOM     79  C29 UNL     1      87.625  62.195  99.368  0.00  0.00    +0.000 C 
BRANCH  79  80
ATOM     80  C30 UNL     1      88.965  61.480  99.673  0.00  0.00    +0.000 C 
ATOM     81  C31 UNL     1      89.611  62.017 100.959  0.00  0.00    +0.000 C 
ATOM     82  C32 UNL     1      89.937  61.648  98.496  0.00  0.00    +0.000 C 
ENDBRANCH  79  80
ENDBRANCH  20  79
BRANCH  35  83
ATOM     83  C42 UNL     1      79.475  63.482 104.035  0.00  0.00    +0.000 C 
BRANCH  83  84
ATOM     84  C43 UNL     1      80.941  63.035 104.294  0.00  0.00    +0.000 C 
ATOM     85  C44 UNL     1      81.208  62.773 105.781  0.00  0.00    +0.000 C 
ATOM     86  C45 UNL     1      81.241  61.761 103.488  0.00  0.00    +0.000 C 
ENDBRANCH  83  84
ENDBRANCH  35  83
BRANCH  44  87
ATOM     87  C51 UNL     1      73.112  57.882 104.748  0.00  0.00    +0.000 C 
BRANCH  87  88
ATOM     88  C52 UNL     1      73.106  57.543 106.260  0.00  0.00    +0.000 C 
ATOM     89  C53 UNL     1      74.016  58.454 107.097  0.00  0.00    +0.000 C 
ATOM     90  C54 UNL     1      71.692  57.472 106.856  0.00  0.00    +0.000 C 
ENDBRANCH  87  88
ENDBRANCH  44  87
TORSDOF 16
ENDMDL
MODEL 19
REMARK VINA RESULT:      -6.3      5.712     15.436
REMARK  Name = ./S1514.pdb
REMARK  40 active torsions:
REMARK  status: ('A' for Active; 'I' for Inactive)
REMARK    1  A    between atoms: C1_1  and  C2_2
REMARK    2  A    between atoms: C2_2  and  C3_3
REMARK    3  A    between atoms: C5_7  and  C6_8
REMARK    4  A    between atoms: C6_8  and  O2_9
REMARK    5  A    between atoms: C6_8  and  C7_10
REMARK    6  A    between atoms: C7_10  and  C8_11
REMARK    7  A    between atoms: C7_10  and  C9_12
REMARK    8  A    between atoms: C9_12  and  C10_13
REMARK    9  A    between atoms: C11_14  and  C12_15
REMARK   10  A    between atoms: N2_16  and  C13_17
REMARK   11  A    between atoms: C15_20  and  C16_21
REMARK   12  A    between atoms: C16_21  and  C17_22
REMARK   13  A    between atoms: C16_21  and  C18_23
REMARK   14  A    between atoms: N3_24  and  C19_25
REMARK   15  A    between atoms: C21_28  and  C22_29
REMARK   16  A    between atoms: C22_29  and  C23_30
REMARK   17  A    between atoms: C23_30  and  C24_31
REMARK   18  A    between atoms: C23_30  and  C25_32
REMARK   19  A    between atoms: N4_33  and  C26_34
REMARK   20  A    between atoms: C28_37  and  C29_38
REMARK   21  A    between atoms: C29_38  and  C30_39
REMARK   22  A    between atoms: C30_39  and  C31_40
REMARK   23  A    between atoms: C30_39  and  C32_41
REMARK   24  A    between atoms: N5_42  and  C33_43
REMARK   25  A    between atoms: C35_46  and  C36_47
REMARK   26  A    between atoms: C38_51  and  C39_52
REMARK   27  A    between atoms: C41_56  and  C42_57
REMARK   28  A    between atoms: C42_57  and  C43_58
REMARK   29  A    between atoms: C43_58  and  C44_59
REMARK   30  A    between atoms: C43_58  and  C45_60
REMARK   31  A    between atoms: N8_61  and  C46_62
REMARK   32  A    between atoms: C48_65  and  C60_83
REMARK   33  A    between atoms: C50_69  and  C51_70
REMARK   34  A    between atoms: C51_70  and  C52_71
REMARK   35  A    between atoms: C52_71  and  C53_72
REMARK   36  A    between atoms: C52_71  and  C54_73
REMARK   37  A    between atoms: N10_74  and  C55_75
REMARK   38  A    between atoms: N11_79  and  C58_80
REMARK   39  A    between atoms: C60_83  and  C61_84
REMARK   40  A    between atoms: C60_83  and  C62_85
REMARK                            x       y       z     vdW  Elec       q    Type
REMARK                         _______ _______ _______ _____ _____    ______ ____
ROOT
ATOM      1  C3  UNL     1      81.354  65.576  98.470  0.00  0.00    +0.000 C 
ATOM      2  N1  UNL     1      82.001  65.759  97.161  0.00  0.00    +0.000 N 
ATOM      3  C4  UNL     1      82.817  66.898  96.841  0.00  0.00    +0.000 C 
ATOM      4  O1  UNL     1      82.807  67.912  97.589  0.00  0.00    +0.000 OA
ATOM      5  C5  UNL     1      83.720  66.863  95.627  0.00  0.00    +0.000 C 
ATOM      6  N2  UNL     1      85.134  66.914  96.069  0.00  0.00    +0.000 N 
ATOM      7  C13 UNL     1      85.676  65.683  96.664  0.00  0.00    +0.000 C 
ATOM      8  C14 UNL     1      85.852  68.163  96.227  0.00  0.00    +0.000 C 
ATOM      9  O3  UNL     1      85.223  69.178  96.633  0.00  0.00    +0.000 OA
ATOM     10  C15 UNL     1      87.367  68.271  96.053  0.00  0.00    +0.000 C 
ATOM     11  N3  UNL     1      87.811  69.687  95.952  0.00  0.00    +0.000 N 
ATOM     12  C19 UNL     1      87.203  70.610  94.980  0.00  0.00    +0.000 C 
ATOM     13  C20 UNL     1      88.446  70.276  97.102  0.00  0.00    +0.000 C 
ATOM     14  O4  UNL     1      87.829  70.255  98.205  0.00  0.00    +0.000 OA
ATOM     15  C21 UNL     1      89.888  70.766  97.083  0.00  0.00    +0.000 C 
ATOM     16  N4  UNL     1      90.175  71.544  98.310  0.00  0.00    +0.000 N 
ATOM     17  C26 UNL     1      90.845  70.897  99.445  0.00  0.00    +0.000 C 
ATOM     18  C27 UNL     1      89.673  72.894  98.451  0.00  0.00    +0.000 C 
ATOM     19  O5  UNL     1      88.606  73.221  97.865  0.00  0.00    +0.000 OA
ATOM     20  C28 UNL     1      90.449  73.956  99.206  0.00  0.00    +0.000 C 
ATOM     21  N5  UNL     1      89.510  74.869  99.893  0.00  0.00    +0.000 N 
ATOM     22  C33 UNL     1      88.933  74.430 101.171  0.00  0.00    +0.000 C 
ATOM     23  C34 UNL     1      88.993  76.065  99.259  0.00  0.00    +0.000 C 
ATOM     24  O6  UNL     1      88.776  76.069  98.014  0.00  0.00    +0.000 OA
ATOM     25  C35 UNL     1      88.722  77.331 100.038  0.00  0.00    +0.000 C 
ATOM     26  C36 UNL     1      90.014  77.805 100.720  0.00  0.00    +0.000 C 
ATOM     27  N6  UNL     1      87.597  77.110 100.962  0.00  0.00    +0.000 N 
ATOM     28  C37 UNL     1      87.295  77.867 102.150  0.00  0.00    +0.000 C 
ATOM     29  O7  UNL     1      88.171  78.571 102.717  0.00  0.00    +0.000 OA
ATOM     30  C38 UNL     1      85.917  77.785 102.761  0.00  0.00    +0.000 C 
ATOM     31  C39 UNL     1      84.874  78.351 101.790  0.00  0.00    +0.000 C 
ATOM     32  N7  UNL     1      85.594  76.397 103.110  0.00  0.00    +0.000 N 
ATOM     33  C40 UNL     1      84.453  76.047 103.910  0.00  0.00    +0.000 C 
ATOM     34  O8  UNL     1      83.756  76.955 104.440  0.00  0.00    +0.000 OA
ATOM     35  C41 UNL     1      84.085  74.583 104.084  0.00  0.00    +0.000 C 
ATOM     36  N8  UNL     1      82.636  74.397 104.334  0.00  0.00    +0.000 N 
ATOM     37  C46 UNL     1      82.003  74.956 105.535  0.00  0.00    +0.000 C 
ATOM     38  C47 UNL     1      81.901  73.438 103.540  0.00  0.00    +0.000 C 
ATOM     39  O9  UNL     1      82.521  72.496 102.974  0.00  0.00    +0.000 OA
ATOM     40  C48 UNL     1      80.405  73.561 103.334  0.00  0.00    +0.000 C 
ATOM     41  N9  UNL     1      79.834  72.244 103.026  0.00  0.00    +0.000 N 
ATOM     42  C49 UNL     1      79.207  71.422 104.027  0.00  0.00    +0.000 C 
ATOM     43  O10 UNL     1      79.069  71.870 105.200  0.00  0.00    +0.000 OA
ATOM     44  C50 UNL     1      78.824  69.982 103.734  0.00  0.00    +0.000 C 
ATOM     45  N10 UNL     1      78.625  69.773 102.283  0.00  0.00    +0.000 N 
ATOM     46  C55 UNL     1      77.539  70.466 101.573  0.00  0.00    +0.000 C 
ATOM     47  C56 UNL     1      79.616  69.054 101.519  0.00  0.00    +0.000 C 
ATOM     48  O11 UNL     1      80.816  69.032 101.907  0.00  0.00    +0.000 OA
ATOM     49  C57 UNL     1      79.260  68.369 100.222  0.00  0.00    +0.000 C 
ATOM     50  N11 UNL     1      79.957  67.084 100.054  0.00  0.00    +0.000 N 
ATOM     51  C58 UNL     1      79.932  66.092 101.139  0.00  0.00    +0.000 C 
ATOM     52  C59 UNL     1      80.303  66.648  98.718  0.00  0.00    +0.000 C 
ATOM     53  O12 UNL     1      79.696  67.142  97.729  0.00  0.00    +0.000 OA
ATOM     54  H7  UNL     1      81.983  64.976  96.471  0.00  0.00    +0.000 HD
ATOM     55  H66 UNL     1      86.824  76.510 100.593  0.00  0.00    +0.000 HD
ATOM     56  H71 UNL     1      86.210  75.620 102.775  0.00  0.00    +0.000 HD
ATOM     57  H86 UNL     1      80.067  71.818 102.103  0.00  0.00    +0.000 HD
ENDROOT
BRANCH  10  58
ATOM     58  C16 UNL     1      87.970  67.368  94.916  0.00  0.00    +0.000 C 
ATOM     59  C17 UNL     1      87.773  67.887  93.484  0.00  0.00    +0.000 C 
ATOM     60  C18 UNL     1      89.457  67.091  95.179  0.00  0.00    +0.000 C 
ENDBRANCH  10  58
BRANCH  40  61
ATOM     61  C60 UNL     1      80.066  74.605 102.235  0.00  0.00    +0.000 C 
ATOM     62  C61 UNL     1      79.081  74.089 101.174  0.00  0.00    +0.000 C 
ATOM     63  C62 UNL     1      79.537  75.902 102.861  0.00  0.00    +0.000 C 
ENDBRANCH  40  61
BRANCH   1  65
ATOM     64  C1  UNL     1      81.706  63.146  99.265  0.00  0.00    +0.000 C 
ATOM     65  C2  UNL     1      80.772  64.145  98.574  0.00  0.00    +0.000 C 
ENDBRANCH   1  65
BRANCH   5  66
ATOM     66  C6  UNL     1      83.361  67.958  94.575  0.00  0.00    +0.000 C 
BRANCH  66  67
ATOM     67  O2  UNL     1      84.547  68.451  94.015  0.00  0.00    +0.000 OA
ATOM     68  H10 UNL     1      84.703  67.960  93.164  0.00  0.00    +0.000 HD
ENDBRANCH  66  67
BRANCH  66  69
ATOM     69  C7  UNL     1      82.404  67.522  93.415  0.00  0.00    +0.000 C 
ATOM     70  C8  UNL     1      82.292  68.545  92.276  0.00  0.00    +0.000 C 
BRANCH  69  71
ATOM     71  C9  UNL     1      81.031  66.954  93.864  0.00  0.00    +0.000 C 
BRANCH  71  72
ATOM     72  C10 UNL     1      79.912  67.966  93.921  0.00  0.00    +0.000 C 
ATOM     73  C11 UNL     1      78.647  67.634  93.621  0.00  0.00    +0.000 C 
ATOM     74  C12 UNL     1      77.555  68.660  93.636  0.00  0.00    +0.000 C 
ENDBRANCH  71  72
ENDBRANCH  69  71
ENDBRANCH  66  69
ENDBRANCH   5  66
BRANCH  15  75
ATOM     75  C22 UNL     1      90.273  71.609  95.834  0.00  0.00    +0.000 C 
BRANCH  75  76
ATOM     76  C23 UNL     1      91.304  70.945  94.894  0.00  0.00    +0.000 C 
ATOM     77  C24 UNL     1      90.645  70.394  93.617  0.00  0.00    +0.000 C 
ATOM     78  C25 UNL     1      92.027  69.805  95.628  0.00  0.00    +0.000 C 
ENDBRANCH  75  76
ENDBRANCH  15  75
BRANCH  20  79
ATOM     79  C29 UNL     1      91.421  74.714  98.264  0.00  0.00    +0.000 C 
BRANCH  79  80
ATOM     80  C30 UNL     1      92.870  74.163  98.288  0.00  0.00    +0.000 C 
ATOM     81  C31 UNL     1      93.887  75.267  98.612  0.00  0.00    +0.000 C 
ATOM     82  C32 UNL     1      93.216  73.518  96.937  0.00  0.00    +0.000 C 
ENDBRANCH  79  80
ENDBRANCH  20  79
BRANCH  35  83
ATOM     83  C42 UNL     1      84.934  73.769 105.110  0.00  0.00    +0.000 C 
BRANCH  83  84
ATOM     84  C43 UNL     1      86.111  72.911 104.571  0.00  0.00    +0.000 C 
ATOM     85  C44 UNL     1      86.034  72.718 103.052  0.00  0.00    +0.000 C 
ATOM     86  C45 UNL     1      87.447  73.580 104.935  0.00  0.00    +0.000 C 
ENDBRANCH  83  84
ENDBRANCH  35  83
BRANCH  44  87
ATOM     87  C51 UNL     1      77.570  69.548 104.557  0.00  0.00    +0.000 C 
BRANCH  87  88
ATOM     88  C52 UNL     1      77.767  68.391 105.570  0.00  0.00    +0.000 C 
ATOM     89  C53 UNL     1      76.809  68.457 106.769  0.00  0.00    +0.000 C 
ATOM     90  C54 UNL     1      77.740  67.004 104.913  0.00  0.00    +0.000 C 
ENDBRANCH  87  88
ENDBRANCH  44  87
TORSDOF 16
ENDMDL
MODEL 20
REMARK VINA RESULT:      -6.3      2.829      8.931
REMARK  Name = ./S1514.pdb
REMARK  40 active torsions:
REMARK  status: ('A' for Active; 'I' for Inactive)
REMARK    1  A    between atoms: C1_1  and  C2_2
REMARK    2  A    between atoms: C2_2  and  C3_3
REMARK    3  A    between atoms: C5_7  and  C6_8
REMARK    4  A    between atoms: C6_8  and  O2_9
REMARK    5  A    between atoms: C6_8  and  C7_10
REMARK    6  A    between atoms: C7_10  and  C8_11
REMARK    7  A    between atoms: C7_10  and  C9_12
REMARK    8  A    between atoms: C9_12  and  C10_13
REMARK    9  A    between atoms: C11_14  and  C12_15
REMARK   10  A    between atoms: N2_16  and  C13_17
REMARK   11  A    between atoms: C15_20  and  C16_21
REMARK   12  A    between atoms: C16_21  and  C17_22
REMARK   13  A    between atoms: C16_21  and  C18_23
REMARK   14  A    between atoms: N3_24  and  C19_25
REMARK   15  A    between atoms: C21_28  and  C22_29
REMARK   16  A    between atoms: C22_29  and  C23_30
REMARK   17  A    between atoms: C23_30  and  C24_31
REMARK   18  A    between atoms: C23_30  and  C25_32
REMARK   19  A    between atoms: N4_33  and  C26_34
REMARK   20  A    between atoms: C28_37  and  C29_38
REMARK   21  A    between atoms: C29_38  and  C30_39
REMARK   22  A    between atoms: C30_39  and  C31_40
REMARK   23  A    between atoms: C30_39  and  C32_41
REMARK   24  A    between atoms: N5_42  and  C33_43
REMARK   25  A    between atoms: C35_46  and  C36_47
REMARK   26  A    between atoms: C38_51  and  C39_52
REMARK   27  A    between atoms: C41_56  and  C42_57
REMARK   28  A    between atoms: C42_57  and  C43_58
REMARK   29  A    between atoms: C43_58  and  C44_59
REMARK   30  A    between atoms: C43_58  and  C45_60
REMARK   31  A    between atoms: N8_61  and  C46_62
REMARK   32  A    between atoms: C48_65  and  C60_83
REMARK   33  A    between atoms: C50_69  and  C51_70
REMARK   34  A    between atoms: C51_70  and  C52_71
REMARK   35  A    between atoms: C52_71  and  C53_72
REMARK   36  A    between atoms: C52_71  and  C54_73
REMARK   37  A    between atoms: N10_74  and  C55_75
REMARK   38  A    between atoms: N11_79  and  C58_80
REMARK   39  A    between atoms: C60_83  and  C61_84
REMARK   40  A    between atoms: C60_83  and  C62_85
REMARK                            x       y       z     vdW  Elec       q    Type
REMARK                         _______ _______ _______ _____ _____    ______ ____
ROOT
ATOM      1  C3  UNL     1      80.929  67.263  99.063  0.00  0.00    +0.000 C 
ATOM      2  N1  UNL     1      80.280  68.001  97.969  0.00  0.00    +0.000 N 
ATOM      3  C4  UNL     1      79.058  68.739  98.136  0.00  0.00    +0.000 C 
ATOM      4  O1  UNL     1      78.359  68.577  99.171  0.00  0.00    +0.000 OA
ATOM      5  C5  UNL     1      78.633  69.743  97.086  0.00  0.00    +0.000 C 
ATOM      6  N2  UNL     1      78.659  71.104  97.672  0.00  0.00    +0.000 N 
ATOM      7  C13 UNL     1      79.988  71.698  97.883  0.00  0.00    +0.000 C 
ATOM      8  C14 UNL     1      77.500  71.694  98.314  0.00  0.00    +0.000 C 
ATOM      9  O3  UNL     1      76.718  70.946  98.961  0.00  0.00    +0.000 OA
ATOM     10  C15 UNL     1      77.259  73.203  98.354  0.00  0.00    +0.000 C 
ATOM     11  N3  UNL     1      75.871  73.528  98.777  0.00  0.00    +0.000 N 
ATOM     12  C19 UNL     1      74.707  72.928  98.105  0.00  0.00    +0.000 C 
ATOM     13  C20 UNL     1      75.672  74.009 100.119  0.00  0.00    +0.000 C 
ATOM     14  O4  UNL     1      76.098  73.303 101.078  0.00  0.00    +0.000 OA
ATOM     15  C21 UNL     1      75.129  75.399 100.423  0.00  0.00    +0.000 C 
ATOM     16  N4  UNL     1      74.798  75.511 101.862  0.00  0.00    +0.000 N 
ATOM     17  C26 UNL     1      75.754  76.134 102.785  0.00  0.00    +0.000 C 
ATOM     18  C27 UNL     1      73.604  74.882 102.386  0.00  0.00    +0.000 C 
ATOM     19  O5  UNL     1      73.155  73.845 101.827  0.00  0.00    +0.000 OA
ATOM     20  C28 UNL     1      72.820  75.495 103.531  0.00  0.00    +0.000 C 
ATOM     21  N5  UNL     1      72.245  74.424 104.373  0.00  0.00    +0.000 N 
ATOM     22  C33 UNL     1      73.120  73.780 105.362  0.00  0.00    +0.000 C 
ATOM     23  C34 UNL     1      70.934  73.862 104.117  0.00  0.00    +0.000 C 
ATOM     24  O6  UNL     1      70.521  73.753 102.929  0.00  0.00    +0.000 OA
ATOM     25  C35 UNL     1      70.023  73.415 105.237  0.00  0.00    +0.000 C 
ATOM     26  C36 UNL     1      69.738  74.598 106.176  0.00  0.00    +0.000 C 
ATOM     27  N6  UNL     1      70.603  72.239 105.906  0.00  0.00    +0.000 N 
ATOM     28  C37 UNL     1      70.309  71.771 107.236  0.00  0.00    +0.000 C 
ATOM     29  O7  UNL     1      69.792  72.530 108.098  0.00  0.00    +0.000 OA
ATOM     30  C38 UNL     1      70.666  70.358 107.630  0.00  0.00    +0.000 C 
ATOM     31  C39 UNL     1      69.861  69.357 106.792  0.00  0.00    +0.000 C 
ATOM     32  N7  UNL     1      72.106  70.128 107.462  0.00  0.00    +0.000 N 
ATOM     33  C40 UNL     1      72.766  68.957 107.970  0.00  0.00    +0.000 C 
ATOM     34  O8  UNL     1      72.129  68.141 108.690  0.00  0.00    +0.000 OA
ATOM     35  C41 UNL     1      74.219  68.705 107.607  0.00  0.00    +0.000 C 
ATOM     36  N8  UNL     1      74.556  67.262 107.621  0.00  0.00    +0.000 N 
ATOM     37  C46 UNL     1      74.470  66.482 108.861  0.00  0.00    +0.000 C 
ATOM     38  C47 UNL     1      75.228  66.684 106.478  0.00  0.00    +0.000 C 
ATOM     39  O9  UNL     1      75.888  67.430 105.704  0.00  0.00    +0.000 OA
ATOM     40  C48 UNL     1      75.122  65.206 106.160  0.00  0.00    +0.000 C 
ATOM     41  N9  UNL     1      76.286  64.781 105.373  0.00  0.00    +0.000 N 
ATOM     42  C49 UNL     1      77.430  64.144 105.970  0.00  0.00    +0.000 C 
ATOM     43  O10 UNL     1      77.413  63.867 107.202  0.00  0.00    +0.000 OA
ATOM     44  C50 UNL     1      78.704  63.915 105.176  0.00  0.00    +0.000 C 
ATOM     45  N10 UNL     1      78.421  63.860 103.725  0.00  0.00    +0.000 N 
ATOM     46  C55 UNL     1      77.587  62.783 103.170  0.00  0.00    +0.000 C 
ATOM     47  C56 UNL     1      78.785  64.972 102.880  0.00  0.00    +0.000 C 
ATOM     48  O11 UNL     1      78.873  66.132 103.369  0.00  0.00    +0.000 OA
ATOM     49  C57 UNL     1      79.008  64.790 101.399  0.00  0.00    +0.000 C 
ATOM     50  N11 UNL     1      80.122  65.608 100.892  0.00  0.00    +0.000 N 
ATOM     51  C58 UNL     1      81.422  65.577 101.579  0.00  0.00    +0.000 C 
ATOM     52  C59 UNL     1      80.062  66.105  99.535  0.00  0.00    +0.000 C 
ATOM     53  O12 UNL     1      79.295  65.544  98.704  0.00  0.00    +0.000 OA
ATOM     54  H7  UNL     1      80.783  68.110  97.060  0.00  0.00    +0.000 HD
ATOM     55  H66 UNL     1      71.082  71.555 105.276  0.00  0.00    +0.000 HD
ATOM     56  H71 UNL     1      72.689  70.836 106.959  0.00  0.00    +0.000 HD
ATOM     57  H86 UNL     1      76.362  65.128 104.392  0.00  0.00    +0.000 HD
ENDROOT
BRANCH  10  58
ATOM     58  C16 UNL     1      77.691  73.978  97.056  0.00  0.00    +0.000 C 
ATOM     59  C17 UNL     1      76.705  75.050  96.566  0.00  0.00    +0.000 C 
ATOM     60  C18 UNL     1      79.090  74.586  97.230  0.00  0.00    +0.000 C 
ENDBRANCH  10  58
BRANCH  40  61
ATOM     61  C60 UNL     1      73.788  64.873 105.439  0.00  0.00    +0.000 C 
ATOM     62  C61 UNL     1      72.679  64.382 106.382  0.00  0.00    +0.000 C 
ATOM     63  C62 UNL     1      73.295  66.076 104.623  0.00  0.00    +0.000 C 
ENDBRANCH  40  61
BRANCH   1  65
ATOM     64  C1  UNL     1      82.518  66.721  97.102  0.00  0.00    +0.000 C 
ATOM     65  C2  UNL     1      82.339  66.800  98.623  0.00  0.00    +0.000 C 
ENDBRANCH   1  65
BRANCH   5  66
ATOM     66  C6  UNL     1      77.267  69.381  96.423  0.00  0.00    +0.000 C 
BRANCH  66  67
ATOM     67  O2  UNL     1      76.749  70.527  95.805  0.00  0.00    +0.000 OA
ATOM     68  H10 UNL     1      77.471  70.920  95.247  0.00  0.00    +0.000 HD
ENDBRANCH  66  67
BRANCH  66  69
ATOM     69  C7  UNL     1      77.287  68.216  95.377  0.00  0.00    +0.000 C 
ATOM     70  C8  UNL     1      77.126  66.819  95.992  0.00  0.00    +0.000 C 
BRANCH  69  71
ATOM     71  C9  UNL     1      78.421  68.292  94.320  0.00  0.00    +0.000 C 
BRANCH  71  72
ATOM     72  C10 UNL     1      79.421  67.163  94.377  0.00  0.00    +0.000 C 
ATOM     73  C11 UNL     1      80.157  66.820  93.309  0.00  0.00    +0.000 C 
ATOM     74  C12 UNL     1      81.112  65.666  93.367  0.00  0.00    +0.000 C 
ENDBRANCH  71  72
ENDBRANCH  69  71
ENDBRANCH  66  69
ENDBRANCH   5  66
BRANCH  15  75
ATOM     75  C22 UNL     1      73.894  75.815  99.574  0.00  0.00    +0.000 C 
BRANCH  75  76
ATOM     76  C23 UNL     1      74.132  77.009  98.622  0.00  0.00    +0.000 C 
ATOM     77  C24 UNL     1      74.707  78.229  99.364  0.00  0.00    +0.000 C 
ATOM     78  C25 UNL     1      72.816  77.404  97.934  0.00  0.00    +0.000 C 
ENDBRANCH  75  76
ENDBRANCH  15  75
BRANCH  20  79
ATOM     79  C29 UNL     1      71.738  76.475 103.005  0.00  0.00    +0.000 C 
BRANCH  79  80
ATOM     80  C30 UNL     1      72.312  77.659 102.187  0.00  0.00    +0.000 C 
ATOM     81  C31 UNL     1      72.881  78.753 103.102  0.00  0.00    +0.000 C 
ATOM     82  C32 UNL     1      71.226  78.255 101.278  0.00  0.00    +0.000 C 
ENDBRANCH  79  80
ENDBRANCH  20  79
BRANCH  35  83
ATOM     83  C42 UNL     1      75.286  69.530 108.393  0.00  0.00    +0.000 C 
BRANCH  83  84
ATOM     84  C43 UNL     1      75.796  70.857 107.766  0.00  0.00    +0.000 C 
ATOM     85  C44 UNL     1      75.517  70.924 106.259  0.00  0.00    +0.000 C 
ATOM     86  C45 UNL     1      75.124  72.050 108.464  0.00  0.00    +0.000 C 
ENDBRANCH  83  84
ENDBRANCH  35  83
BRANCH  44  87
ATOM     87  C51 UNL     1      79.458  62.637 105.665  0.00  0.00    +0.000 C 
BRANCH  87  88
ATOM     88  C52 UNL     1      80.923  62.467 105.190  0.00  0.00    +0.000 C 
ATOM     89  C53 UNL     1      81.900  62.130 106.326  0.00  0.00    +0.000 C 
ATOM     90  C54 UNL     1      81.067  61.481 104.022  0.00  0.00    +0.000 C 
ENDBRANCH  87  88
ENDBRANCH  44  87
TORSDOF 16
ENDMDL
