MODEL 1
REMARK VINA RESULT:      -7.6      0.000      0.000
REMARK  Name = ./S1553.pdb
REMARK  5 active torsions:
REMARK  status: ('A' for Active; 'I' for Inactive)
REMARK    1  A    between atoms: N1_1  and  C1_2
REMARK    2  A    between atoms: C7_12  and  C8_13
REMARK    3  A    between atoms: C8_13  and  O1_14
REMARK    4  A    between atoms: C13_21  and  N4_22
REMARK    5  A    between atoms: C15_24  and  O4_25
REMARK                            x       y       z     vdW  Elec       q    Type
REMARK                         _______ _______ _______ _____ _____    ______ ____
ROOT
ATOM      1  C1  UNL     1      59.306  59.506 112.321  0.00  0.00    +0.000 A 
ATOM      2  C2  UNL     1      58.632  60.527 111.633  0.00  0.00    +0.000 A 
ATOM      3  F1  UNL     1      57.391  60.921 112.013  0.00  0.00    +0.000 F 
ATOM      4  C3  UNL     1      59.256  61.146 110.549  0.00  0.00    +0.000 A 
ATOM      5  C4  UNL     1      60.532  60.744 110.154  0.00  0.00    +0.000 A 
ATOM      6  F2  UNL     1      61.146  61.359 109.112  0.00  0.00    +0.000 F 
ATOM      7  C5  UNL     1      61.171  59.704 110.850  0.00  0.00    +0.000 A 
ATOM      8  N2  UNL     1      60.550  59.129 111.918  0.00  0.00    +0.000 NA
ATOM      9  N3  UNL     1      62.500  59.288 110.489  0.00  0.00    +0.000 N 
ATOM     10  C6  UNL     1      63.472  59.580 111.404  0.00  0.00    +0.000 A 
ATOM     11  C7  UNL     1      64.832  59.471 111.094  0.00  0.00    +0.000 A 
ATOM     12  C9  UNL     1      65.189  59.079 109.794  0.00  0.00    +0.000 A 
ATOM     13  O3  UNL     1      66.406  59.026 109.461  0.00  0.00    +0.000 OA
ATOM     14  C10 UNL     1      64.191  58.736 108.862  0.00  0.00    +0.000 A 
ATOM     15  C11 UNL     1      64.543  58.356 107.559  0.00  0.00    +0.000 A 
ATOM     16  C12 UNL     1      63.573  57.988 106.637  0.00  0.00    +0.000 A 
ATOM     17  C13 UNL     1      62.225  57.915 107.009  0.00  0.00    +0.000 A 
ATOM     18  C17 UNL     1      61.849  58.251 108.332  0.00  0.00    +0.000 A 
ATOM     19  C18 UNL     1      62.824  58.772 109.246  0.00  0.00    +0.000 A 
ATOM     20 CL1  UNL     1      60.229  57.791 108.876  0.00  0.00    +0.000 Cl
ATOM     21  F3  UNL     1      63.967  57.658 105.382  0.00  0.00    +0.000 F 
ENDROOT
BRANCH  17  22
ATOM     22  N4  UNL     1      61.259  57.497 106.025  0.00  0.00    +0.000 N 
ATOM     23  C14 UNL     1      60.915  57.882 104.640  0.00  0.00    +0.000 C 
ATOM     24  C15 UNL     1      59.737  56.976 104.504  0.00  0.00    +0.000 C 
ATOM     25  C16 UNL     1      60.097  56.591 105.899  0.00  0.00    +0.000 C 
BRANCH  24  26
ATOM     26  O4  UNL     1      58.523  57.675 104.448  0.00  0.00    +0.000 OA
ATOM     27  H10 UNL     1      58.714  58.506 103.943  0.00  0.00    +0.000 HD
ENDBRANCH  24  26
ENDBRANCH  17  22
BRANCH   1  28
ATOM     28  N1  UNL     1      58.702  58.859 113.442  0.00  0.00    +0.000 N 
ATOM     29  H1  UNL     1      58.075  58.037 113.298  0.00  0.00    +0.000 HD
ATOM     30  H2  UNL     1      58.871  59.192 114.417  0.00  0.00    +0.000 HD
ENDBRANCH   1  28
BRANCH  11  31
ATOM     31  C8  UNL     1      65.852  59.810 112.125  0.00  0.00    +0.000 C 
ATOM     32  O2  UNL     1      65.499  60.303 113.231  0.00  0.00    +0.000 OA
BRANCH  31  33
ATOM     33  O1  UNL     1      67.207  59.584 111.893  0.00  0.00    +0.000 OA
ATOM     34  H5  UNL     1      67.515  59.053 111.087  0.00  0.00    +0.000 HD
ENDBRANCH  31  33
ENDBRANCH  11  31
TORSDOF 5
ENDMDL
MODEL 2
REMARK VINA RESULT:      -7.4      2.650      6.000
REMARK  Name = ./S1553.pdb
REMARK  5 active torsions:
REMARK  status: ('A' for Active; 'I' for Inactive)
REMARK    1  A    between atoms: N1_1  and  C1_2
REMARK    2  A    between atoms: C7_12  and  C8_13
REMARK    3  A    between atoms: C8_13  and  O1_14
REMARK    4  A    between atoms: C13_21  and  N4_22
REMARK    5  A    between atoms: C15_24  and  O4_25
REMARK                            x       y       z     vdW  Elec       q    Type
REMARK                         _______ _______ _______ _____ _____    ______ ____
ROOT
ATOM      1  C1  UNL     1      61.911  58.576 104.058  0.00  0.00    +0.000 A 
ATOM      2  C2  UNL     1      60.800  57.780 104.377  0.00  0.00    +0.000 A 
ATOM      3  F1  UNL     1      59.821  57.554 103.465  0.00  0.00    +0.000 F 
ATOM      4  C3  UNL     1      60.711  57.210 105.647  0.00  0.00    +0.000 A 
ATOM      5  C4  UNL     1      61.715  57.440 106.588  0.00  0.00    +0.000 A 
ATOM      6  F2  UNL     1      61.637  56.870 107.817  0.00  0.00    +0.000 F 
ATOM      7  C5  UNL     1      62.803  58.260 106.246  0.00  0.00    +0.000 A 
ATOM      8  N2  UNL     1      62.878  58.789 104.992  0.00  0.00    +0.000 NA
ATOM      9  N3  UNL     1      63.871  58.490 107.181  0.00  0.00    +0.000 N 
ATOM     10  C6  UNL     1      65.070  57.924 106.851  0.00  0.00    +0.000 A 
ATOM     11  C7  UNL     1      66.124  57.843 107.767  0.00  0.00    +0.000 A 
ATOM     12  C9  UNL     1      65.916  58.334 109.066  0.00  0.00    +0.000 A 
ATOM     13  O3  UNL     1      66.824  58.224 109.936  0.00  0.00    +0.000 OA
ATOM     14  C10 UNL     1      64.697  58.955 109.397  0.00  0.00    +0.000 A 
ATOM     15  C11 UNL     1      64.481  59.436 110.698  0.00  0.00    +0.000 A 
ATOM     16  C12 UNL     1      63.297  60.077 111.033  0.00  0.00    +0.000 A 
ATOM     17  C13 UNL     1      62.320  60.326 110.062  0.00  0.00    +0.000 A 
ATOM     18  C17 UNL     1      62.534  59.890 108.731  0.00  0.00    +0.000 A 
ATOM     19  C18 UNL     1      63.686  59.100 108.410  0.00  0.00    +0.000 A 
ATOM     20 CL1  UNL     1      61.481  60.542 107.467  0.00  0.00    +0.000 Cl
ATOM     21  F3  UNL     1      63.129  60.495 112.312  0.00  0.00    +0.000 F 
ENDROOT
BRANCH  17  22
ATOM     22  N4  UNL     1      61.121  61.024 110.452  0.00  0.00    +0.000 N 
ATOM     23  C14 UNL     1      59.700  60.668 110.653  0.00  0.00    +0.000 C 
ATOM     24  C15 UNL     1      59.222  62.052 110.944  0.00  0.00    +0.000 C 
ATOM     25  C16 UNL     1      60.660  62.398 110.745  0.00  0.00    +0.000 C 
BRANCH  24  26
ATOM     26  O4  UNL     1      58.411  62.568 109.924  0.00  0.00    +0.000 OA
ATOM     27  H10 UNL     1      58.970  62.559 109.106  0.00  0.00    +0.000 HD
ENDBRANCH  24  26
ENDBRANCH  17  22
BRANCH   1  28
ATOM     28  N1  UNL     1      62.040  59.166 102.764  0.00  0.00    +0.000 N 
ATOM     29  H1  UNL     1      62.970  59.510 102.435  0.00  0.00    +0.000 HD
ATOM     30  H2  UNL     1      61.218  59.265 102.127  0.00  0.00    +0.000 HD
ENDBRANCH   1  28
BRANCH  11  31
ATOM     31  C8  UNL     1      67.408  57.208 107.358  0.00  0.00    +0.000 C 
ATOM     32  O2  UNL     1      67.475  55.960 107.189  0.00  0.00    +0.000 OA
BRANCH  31  33
ATOM     33  O1  UNL     1      68.551  57.976 107.150  0.00  0.00    +0.000 OA
ATOM     34  H5  UNL     1      68.584  58.672 106.414  0.00  0.00    +0.000 HD
ENDBRANCH  31  33
ENDBRANCH  11  31
TORSDOF 5
ENDMDL
MODEL 3
REMARK VINA RESULT:      -7.3      3.726      8.152
REMARK  Name = ./S1553.pdb
REMARK  5 active torsions:
REMARK  status: ('A' for Active; 'I' for Inactive)
REMARK    1  A    between atoms: N1_1  and  C1_2
REMARK    2  A    between atoms: C7_12  and  C8_13
REMARK    3  A    between atoms: C8_13  and  O1_14
REMARK    4  A    between atoms: C13_21  and  N4_22
REMARK    5  A    between atoms: C15_24  and  O4_25
REMARK                            x       y       z     vdW  Elec       q    Type
REMARK                         _______ _______ _______ _____ _____    ______ ____
ROOT
ATOM      1  C1  UNL     1      58.535  54.204 104.311  0.00  0.00    +0.000 A 
ATOM      2  C2  UNL     1      59.381  53.229 104.861  0.00  0.00    +0.000 A 
ATOM      3  F1  UNL     1      58.891  52.031 105.267  0.00  0.00    +0.000 F 
ATOM      4  C3  UNL     1      60.745  53.498 104.980  0.00  0.00    +0.000 A 
ATOM      5  C4  UNL     1      61.254  54.729 104.563  0.00  0.00    +0.000 A 
ATOM      6  F2  UNL     1      62.583  54.982 104.663  0.00  0.00    +0.000 F 
ATOM      7  C5  UNL     1      60.377  55.692 104.038  0.00  0.00    +0.000 A 
ATOM      8  N2  UNL     1      59.052  55.398 103.913  0.00  0.00    +0.000 NA
ATOM      9  N3  UNL     1      60.873  56.958 103.570  0.00  0.00    +0.000 N 
ATOM     10  C6  UNL     1      60.804  57.149 102.218  0.00  0.00    +0.000 A 
ATOM     11  C7  UNL     1      61.470  58.207 101.589  0.00  0.00    +0.000 A 
ATOM     12  C9  UNL     1      62.249  59.067 102.379  0.00  0.00    +0.000 A 
ATOM     13  O3  UNL     1      62.909  59.997 101.837  0.00  0.00    +0.000 OA
ATOM     14  C10 UNL     1      62.288  58.899 103.776  0.00  0.00    +0.000 A 
ATOM     15  C11 UNL     1      63.075  59.750 104.567  0.00  0.00    +0.000 A 
ATOM     16  C12 UNL     1      63.102  59.616 105.947  0.00  0.00    +0.000 A 
ATOM     17  C13 UNL     1      62.286  58.677 106.591  0.00  0.00    +0.000 A 
ATOM     18  C17 UNL     1      61.449  57.836 105.817  0.00  0.00    +0.000 A 
ATOM     19  C18 UNL     1      61.524  57.868 104.385  0.00  0.00    +0.000 A 
ATOM     20 CL1  UNL     1      60.170  56.944 106.653  0.00  0.00    +0.000 Cl
ATOM     21  F3  UNL     1      63.903  60.445 106.662  0.00  0.00    +0.000 F 
ENDROOT
BRANCH  17  22
ATOM     22  N4  UNL     1      62.326  58.598 108.029  0.00  0.00    +0.000 N 
ATOM     23  C14 UNL     1      62.803  57.618 109.028  0.00  0.00    +0.000 C 
ATOM     24  C15 UNL     1      62.326  58.363 110.231  0.00  0.00    +0.000 C 
ATOM     25  C16 UNL     1      61.854  59.346 109.213  0.00  0.00    +0.000 C 
BRANCH  24  26
ATOM     26  O4  UNL     1      61.260  57.719 110.875  0.00  0.00    +0.000 OA
ATOM     27  H10 UNL     1      60.467  58.294 110.721  0.00  0.00    +0.000 HD
ENDBRANCH  24  26
ENDBRANCH  17  22
BRANCH   1  28
ATOM     28  N1  UNL     1      57.136  53.957 104.163  0.00  0.00    +0.000 N 
ATOM     29  H1  UNL     1      56.476  54.203 104.934  0.00  0.00    +0.000 HD
ATOM     30  H2  UNL     1      56.749  53.529 103.293  0.00  0.00    +0.000 HD
ENDBRANCH   1  28
BRANCH  11  31
ATOM     31  C8  UNL     1      61.369  58.365 100.111  0.00  0.00    +0.000 C 
ATOM     32  O2  UNL     1      60.625  57.599  99.439  0.00  0.00    +0.000 OA
BRANCH  31  33
ATOM     33  O1  UNL     1      62.083  59.359  99.447  0.00  0.00    +0.000 OA
ATOM     34  H5  UNL     1      61.757  60.318  99.441  0.00  0.00    +0.000 HD
ENDBRANCH  31  33
ENDBRANCH  11  31
TORSDOF 5
ENDMDL
MODEL 4
REMARK VINA RESULT:      -7.3      1.725      2.385
REMARK  Name = ./S1553.pdb
REMARK  5 active torsions:
REMARK  status: ('A' for Active; 'I' for Inactive)
REMARK    1  A    between atoms: N1_1  and  C1_2
REMARK    2  A    between atoms: C7_12  and  C8_13
REMARK    3  A    between atoms: C8_13  and  O1_14
REMARK    4  A    between atoms: C13_21  and  N4_22
REMARK    5  A    between atoms: C15_24  and  O4_25
REMARK                            x       y       z     vdW  Elec       q    Type
REMARK                         _______ _______ _______ _____ _____    ______ ____
ROOT
ATOM      1  C1  UNL     1      58.989  59.326 112.592  0.00  0.00    +0.000 A 
ATOM      2  C2  UNL     1      58.480  60.450 111.924  0.00  0.00    +0.000 A 
ATOM      3  F1  UNL     1      57.144  60.687 111.877  0.00  0.00    +0.000 F 
ATOM      4  C3  UNL     1      59.364  61.337 111.309  0.00  0.00    +0.000 A 
ATOM      5  C4  UNL     1      60.738  61.098 111.355  0.00  0.00    +0.000 A 
ATOM      6  F2  UNL     1      61.598  61.971 110.772  0.00  0.00    +0.000 F 
ATOM      7  C5  UNL     1      61.214  59.952 112.012  0.00  0.00    +0.000 A 
ATOM      8  N2  UNL     1      60.332  59.112 112.623  0.00  0.00    +0.000 NA
ATOM      9  N3  UNL     1      62.626  59.694 112.106  0.00  0.00    +0.000 N 
ATOM     10  C6  UNL     1      63.158  59.802 113.359  0.00  0.00    +0.000 A 
ATOM     11  C7  UNL     1      64.541  59.831 113.573  0.00  0.00    +0.000 A 
ATOM     12  C9  UNL     1      65.388  59.776 112.455  0.00  0.00    +0.000 A 
ATOM     13  O3  UNL     1      66.639  59.858 112.605  0.00  0.00    +0.000 OA
ATOM     14  C10 UNL     1      64.845  59.621 111.166  0.00  0.00    +0.000 A 
ATOM     15  C11 UNL     1      65.688  59.578 110.045  0.00  0.00    +0.000 A 
ATOM     16  C12 UNL     1      65.170  59.398 108.771  0.00  0.00    +0.000 A 
ATOM     17  C13 UNL     1      63.801  59.178 108.580  0.00  0.00    +0.000 A 
ATOM     18  C17 UNL     1      62.934  59.172 109.700  0.00  0.00    +0.000 A 
ATOM     19  C18 UNL     1      63.439  59.504 111.001  0.00  0.00    +0.000 A 
ATOM     20 CL1  UNL     1      61.302  58.524 109.482  0.00  0.00    +0.000 Cl
ATOM     21  F3  UNL     1      66.027  59.394 107.719  0.00  0.00    +0.000 F 
ENDROOT
BRANCH  17  22
ATOM     22  N4  UNL     1      63.315  58.964 107.240  0.00  0.00    +0.000 N 
ATOM     23  C14 UNL     1      62.603  59.767 106.225  0.00  0.00    +0.000 C 
ATOM     24  C15 UNL     1      62.453  58.672 105.221  0.00  0.00    +0.000 C 
ATOM     25  C16 UNL     1      63.178  57.873 106.251  0.00  0.00    +0.000 C 
BRANCH  24  26
ATOM     26  O4  UNL     1      61.123  58.256 105.072  0.00  0.00    +0.000 OA
ATOM     27  H10 UNL     1      60.759  58.786 104.317  0.00  0.00    +0.000 HD
ENDBRANCH  24  26
ENDBRANCH  17  22
BRANCH   1  28
ATOM     28  N1  UNL     1      58.113  58.405 113.243  0.00  0.00    +0.000 N 
ATOM     29  H1  UNL     1      57.668  57.632 112.700  0.00  0.00    +0.000 HD
ATOM     30  H2  UNL     1      57.900  58.485 114.262  0.00  0.00    +0.000 HD
ENDBRANCH   1  28
BRANCH  11  31
ATOM     31  C8  UNL     1      65.069  59.959 114.960  0.00  0.00    +0.000 C 
ATOM     32  O2  UNL     1      64.411  59.506 115.936  0.00  0.00    +0.000 OA
BRANCH  31  33
ATOM     33  O1  UNL     1      66.296  60.573 115.204  0.00  0.00    +0.000 OA
ATOM     34  H5  UNL     1      67.166  60.108 114.973  0.00  0.00    +0.000 HD
ENDBRANCH  31  33
ENDBRANCH  11  31
TORSDOF 5
ENDMDL
MODEL 5
REMARK VINA RESULT:      -7.3      4.754      7.287
REMARK  Name = ./S1553.pdb
REMARK  5 active torsions:
REMARK  status: ('A' for Active; 'I' for Inactive)
REMARK    1  A    between atoms: N1_1  and  C1_2
REMARK    2  A    between atoms: C7_12  and  C8_13
REMARK    3  A    between atoms: C8_13  and  O1_14
REMARK    4  A    between atoms: C13_21  and  N4_22
REMARK    5  A    between atoms: C15_24  and  O4_25
REMARK                            x       y       z     vdW  Elec       q    Type
REMARK                         _______ _______ _______ _____ _____    ______ ____
ROOT
ATOM      1  C1  UNL     1      63.052  59.558 107.889  0.00  0.00    +0.000 A 
ATOM      2  C2  UNL     1      64.420  59.304 108.077  0.00  0.00    +0.000 A 
ATOM      3  F1  UNL     1      65.170  60.096 108.882  0.00  0.00    +0.000 F 
ATOM      4  C3  UNL     1      65.006  58.215 107.431  0.00  0.00    +0.000 A 
ATOM      5  C4  UNL     1      64.238  57.397 106.602  0.00  0.00    +0.000 A 
ATOM      6  F2  UNL     1      64.805  56.328 105.990  0.00  0.00    +0.000 F 
ATOM      7  C5  UNL     1      62.877  57.692 106.417  0.00  0.00    +0.000 A 
ATOM      8  N2  UNL     1      62.322  58.748 107.075  0.00  0.00    +0.000 NA
ATOM      9  N3  UNL     1      62.050  56.849 105.596  0.00  0.00    +0.000 N 
ATOM     10  C6  UNL     1      61.102  56.128 106.266  0.00  0.00    +0.000 A 
ATOM     11  C7  UNL     1      60.397  55.087 105.651  0.00  0.00    +0.000 A 
ATOM     12  C9  UNL     1      60.707  54.769 104.320  0.00  0.00    +0.000 A 
ATOM     13  O3  UNL     1      60.133  53.798 103.752  0.00  0.00    +0.000 OA
ATOM     14  C10 UNL     1      61.652  55.536 103.613  0.00  0.00    +0.000 A 
ATOM     15  C11 UNL     1      61.973  55.214 102.286  0.00  0.00    +0.000 A 
ATOM     16  C12 UNL     1      62.881  55.977 101.567  0.00  0.00    +0.000 A 
ATOM     17  C13 UNL     1      63.442  57.133 102.123  0.00  0.00    +0.000 A 
ATOM     18  C17 UNL     1      63.099  57.506 103.447  0.00  0.00    +0.000 A 
ATOM     19  C18 UNL     1      62.278  56.644 104.246  0.00  0.00    +0.000 A 
ATOM     20 CL1  UNL     1      63.512  59.142 103.980  0.00  0.00    +0.000 Cl
ATOM     21  F3  UNL     1      63.177  55.603 100.297  0.00  0.00    +0.000 F 
ENDROOT
BRANCH  17  22
ATOM     22  N4  UNL     1      64.355  57.911 101.325  0.00  0.00    +0.000 N 
ATOM     23  C14 UNL     1      65.667  57.684 100.683  0.00  0.00    +0.000 C 
ATOM     24  C15 UNL     1      65.851  59.078 100.184  0.00  0.00    +0.000 C 
ATOM     25  C16 UNL     1      64.524  59.294 100.830  0.00  0.00    +0.000 C 
BRANCH  24  26
ATOM     26  O4  UNL     1      66.879  59.759 100.851  0.00  0.00    +0.000 OA
ATOM     27  H10 UNL     1      67.719  59.488 100.400  0.00  0.00    +0.000 HD
ENDBRANCH  24  26
ENDBRANCH  17  22
BRANCH   1  28
ATOM     28  N1  UNL     1      62.417  60.656 108.544  0.00  0.00    +0.000 N 
ATOM     29  H1  UNL     1      61.380  60.661 108.674  0.00  0.00    +0.000 HD
ATOM     30  H2  UNL     1      62.967  61.469 108.901  0.00  0.00    +0.000 HD
ENDBRANCH   1  28
BRANCH  11  31
ATOM     31  C8  UNL     1      59.380  54.327 106.430  0.00  0.00    +0.000 C 
ATOM     32  O2  UNL     1      59.645  53.916 107.592  0.00  0.00    +0.000 OA
BRANCH  31  33
ATOM     33  O1  UNL     1      58.121  54.062 105.895  0.00  0.00    +0.000 OA
ATOM     34  H5  UNL     1      57.841  54.454 105.004  0.00  0.00    +0.000 HD
ENDBRANCH  31  33
ENDBRANCH  11  31
TORSDOF 5
ENDMDL
MODEL 6
REMARK VINA RESULT:      -7.2      4.169      6.217
REMARK  Name = ./S1553.pdb
REMARK  5 active torsions:
REMARK  status: ('A' for Active; 'I' for Inactive)
REMARK    1  A    between atoms: N1_1  and  C1_2
REMARK    2  A    between atoms: C7_12  and  C8_13
REMARK    3  A    between atoms: C8_13  and  O1_14
REMARK    4  A    between atoms: C13_21  and  N4_22
REMARK    5  A    between atoms: C15_24  and  O4_25
REMARK                            x       y       z     vdW  Elec       q    Type
REMARK                         _______ _______ _______ _____ _____    ______ ____
ROOT
ATOM      1  C1  UNL     1      62.485  59.183 116.376  0.00  0.00    +0.000 A 
ATOM      2  C2  UNL     1      62.168  57.832 116.163  0.00  0.00    +0.000 A 
ATOM      3  F1  UNL     1      62.590  56.874 117.027  0.00  0.00    +0.000 F 
ATOM      4  C3  UNL     1      61.402  57.478 115.052  0.00  0.00    +0.000 A 
ATOM      5  C4  UNL     1      60.966  58.460 114.162  0.00  0.00    +0.000 A 
ATOM      6  F2  UNL     1      60.205  58.116 113.093  0.00  0.00    +0.000 F 
ATOM      7  C5  UNL     1      61.319  59.800 114.391  0.00  0.00    +0.000 A 
ATOM      8  N2  UNL     1      62.051  60.124 115.494  0.00  0.00    +0.000 NA
ATOM      9  N3  UNL     1      60.858  60.840 113.511  0.00  0.00    +0.000 N 
ATOM     10  C6  UNL     1      59.944  61.700 114.050  0.00  0.00    +0.000 A 
ATOM     11  C7  UNL     1      59.220  62.598 113.258  0.00  0.00    +0.000 A 
ATOM     12  C9  UNL     1      59.429  62.579 111.870  0.00  0.00    +0.000 A 
ATOM     13  O3  UNL     1      58.752  63.334 111.118  0.00  0.00    +0.000 OA
ATOM     14  C10 UNL     1      60.400  61.725 111.316  0.00  0.00    +0.000 A 
ATOM     15  C11 UNL     1      60.604  61.694 109.928  0.00  0.00    +0.000 A 
ATOM     16  C12 UNL     1      61.576  60.879 109.367  0.00  0.00    +0.000 A 
ATOM     17  C13 UNL     1      62.430  60.122 110.180  0.00  0.00    +0.000 A 
ATOM     18  C17 UNL     1      62.274  60.170 111.587  0.00  0.00    +0.000 A 
ATOM     19  C18 UNL     1      61.179  60.894 112.165  0.00  0.00    +0.000 A 
ATOM     20 CL1  UNL     1      63.582  59.522 112.588  0.00  0.00    +0.000 Cl
ATOM     21  F3  UNL     1      61.710  60.866 108.018  0.00  0.00    +0.000 F 
ENDROOT
BRANCH  17  22
ATOM     22  N4  UNL     1      63.446  59.315 109.553  0.00  0.00    +0.000 N 
ATOM     23  C14 UNL     1      63.577  57.903 109.139  0.00  0.00    +0.000 C 
ATOM     24  C15 UNL     1      64.997  57.994 108.688  0.00  0.00    +0.000 C 
ATOM     25  C16 UNL     1      64.851  59.419 109.104  0.00  0.00    +0.000 C 
BRANCH  24  26
ATOM     26  O4  UNL     1      65.875  57.290 109.524  0.00  0.00    +0.000 OA
ATOM     27  H10 UNL     1      66.642  57.032 108.952  0.00  0.00    +0.000 HD
ENDBRANCH  24  26
ENDBRANCH  17  22
BRANCH   1  28
ATOM     28  N1  UNL     1      63.257  59.582 117.509  0.00  0.00    +0.000 N 
ATOM     29  H1  UNL     1      64.150  60.107 117.376  0.00  0.00    +0.000 HD
ATOM     30  H2  UNL     1      62.950  59.359 118.482  0.00  0.00    +0.000 HD
ENDBRANCH   1  28
BRANCH  11  31
ATOM     31  C8  UNL     1      58.229  63.509 113.896  0.00  0.00    +0.000 C 
ATOM     32  O2  UNL     1      58.523  64.128 114.955  0.00  0.00    +0.000 OA
BRANCH  31  33
ATOM     33  O1  UNL     1      56.968  63.699 113.336  0.00  0.00    +0.000 OA
ATOM     34  H5  UNL     1      56.221  64.129 113.868  0.00  0.00    +0.000 HD
ENDBRANCH  31  33
ENDBRANCH  11  31
TORSDOF 5
ENDMDL
MODEL 7
REMARK VINA RESULT:      -7.1     11.102     12.859
REMARK  Name = ./S1553.pdb
REMARK  5 active torsions:
REMARK  status: ('A' for Active; 'I' for Inactive)
REMARK    1  A    between atoms: N1_1  and  C1_2
REMARK    2  A    between atoms: C7_12  and  C8_13
REMARK    3  A    between atoms: C8_13  and  O1_14
REMARK    4  A    between atoms: C13_21  and  N4_22
REMARK    5  A    between atoms: C15_24  and  O4_25
REMARK                            x       y       z     vdW  Elec       q    Type
REMARK                         _______ _______ _______ _____ _____    ______ ____
ROOT
ATOM      1  C1  UNL     1      70.665  68.749 106.638  0.00  0.00    +0.000 A 
ATOM      2  C2  UNL     1      71.403  68.832 105.448  0.00  0.00    +0.000 A 
ATOM      3  F1  UNL     1      71.001  69.640 104.434  0.00  0.00    +0.000 F 
ATOM      4  C3  UNL     1      72.570  68.079 105.315  0.00  0.00    +0.000 A 
ATOM      5  C4  UNL     1      72.988  67.248 106.354  0.00  0.00    +0.000 A 
ATOM      6  F2  UNL     1      74.132  66.530 106.231  0.00  0.00    +0.000 F 
ATOM      7  C5  UNL     1      72.214  67.170 107.525  0.00  0.00    +0.000 A 
ATOM      8  N2  UNL     1      71.090  67.931 107.639  0.00  0.00    +0.000 NA
ATOM      9  N3  UNL     1      72.634  66.348 108.628  0.00  0.00    +0.000 N 
ATOM     10  C6  UNL     1      73.026  67.027 109.747  0.00  0.00    +0.000 A 
ATOM     11  C7  UNL     1      73.692  66.390 110.800  0.00  0.00    +0.000 A 
ATOM     12  C9  UNL     1      73.985  65.023 110.672  0.00  0.00    +0.000 A 
ATOM     13  O3  UNL     1      74.636  64.429 111.576  0.00  0.00    +0.000 OA
ATOM     14  C10 UNL     1      73.546  64.311 109.540  0.00  0.00    +0.000 A 
ATOM     15  C11 UNL     1      73.847  62.948 109.404  0.00  0.00    +0.000 A 
ATOM     16  C12 UNL     1      73.397  62.225 108.308  0.00  0.00    +0.000 A 
ATOM     17  C13 UNL     1      72.568  62.821 107.350  0.00  0.00    +0.000 A 
ATOM     18  C17 UNL     1      72.212  64.185 107.489  0.00  0.00    +0.000 A 
ATOM     19  C18 UNL     1      72.791  64.976 108.536  0.00  0.00    +0.000 A 
ATOM     20 CL1  UNL     1      70.881  64.800 106.498  0.00  0.00    +0.000 Cl
ATOM     21  F3  UNL     1      73.742  60.917 108.211  0.00  0.00    +0.000 F 
ENDROOT
BRANCH  17  22
ATOM     22  N4  UNL     1      72.100  62.020 106.247  0.00  0.00    +0.000 N 
ATOM     23  C14 UNL     1      72.357  61.957 104.793  0.00  0.00    +0.000 C 
ATOM     24  C15 UNL     1      71.348  60.898 104.492  0.00  0.00    +0.000 C 
ATOM     25  C16 UNL     1      71.102  60.967 105.962  0.00  0.00    +0.000 C 
BRANCH  24  26
ATOM     26  O4  UNL     1      70.261  61.384 103.753  0.00  0.00    +0.000 OA
ATOM     27  H10 UNL     1      70.363  61.004 102.843  0.00  0.00    +0.000 HD
ENDBRANCH  24  26
ENDBRANCH  17  22
BRANCH   1  28
ATOM     28  N1  UNL     1      69.473  69.516 106.814  0.00  0.00    +0.000 N 
ATOM     29  H1  UNL     1      69.370  70.441 106.340  0.00  0.00    +0.000 HD
ATOM     30  H2  UNL     1      68.689  69.173 107.413  0.00  0.00    +0.000 HD
ENDBRANCH   1  28
BRANCH  11  31
ATOM     31  C8  UNL     1      74.105  67.179 111.994  0.00  0.00    +0.000 C 
ATOM     32  O2  UNL     1      74.766  68.245 111.855  0.00  0.00    +0.000 OA
BRANCH  31  33
ATOM     33  O1  UNL     1      73.767  66.762 113.279  0.00  0.00    +0.000 OA
ATOM     34  H5  UNL     1      73.061  67.252 113.816  0.00  0.00    +0.000 HD
ENDBRANCH  31  33
ENDBRANCH  11  31
TORSDOF 5
ENDMDL
MODEL 8
REMARK VINA RESULT:      -7.1      3.594      8.702
REMARK  Name = ./S1553.pdb
REMARK  5 active torsions:
REMARK  status: ('A' for Active; 'I' for Inactive)
REMARK    1  A    between atoms: N1_1  and  C1_2
REMARK    2  A    between atoms: C7_12  and  C8_13
REMARK    3  A    between atoms: C8_13  and  O1_14
REMARK    4  A    between atoms: C13_21  and  N4_22
REMARK    5  A    between atoms: C15_24  and  O4_25
REMARK                            x       y       z     vdW  Elec       q    Type
REMARK                         _______ _______ _______ _____ _____    ______ ____
ROOT
ATOM      1  C1  UNL     1      63.324  57.050 101.326  0.00  0.00    +0.000 A 
ATOM      2  C2  UNL     1      63.120  58.434 101.219  0.00  0.00    +0.000 A 
ATOM      3  F1  UNL     1      63.704  59.148 100.224  0.00  0.00    +0.000 F 
ATOM      4  C3  UNL     1      62.298  59.077 102.145  0.00  0.00    +0.000 A 
ATOM      5  C4  UNL     1      61.696  58.346 103.170  0.00  0.00    +0.000 A 
ATOM      6  F2  UNL     1      60.882  58.968 104.059  0.00  0.00    +0.000 F 
ATOM      7  C5  UNL     1      61.938  56.965 103.263  0.00  0.00    +0.000 A 
ATOM      8  N2  UNL     1      62.728  56.357 102.334  0.00  0.00    +0.000 NA
ATOM      9  N3  UNL     1      61.306  56.178 104.288  0.00  0.00    +0.000 N 
ATOM     10  C6  UNL     1      60.364  55.292 103.847  0.00  0.00    +0.000 A 
ATOM     11  C7  UNL     1      59.493  54.643 104.728  0.00  0.00    +0.000 A 
ATOM     12  C9  UNL     1      59.582  54.947 106.096  0.00  0.00    +0.000 A 
ATOM     13  O3  UNL     1      58.773  54.425 106.914  0.00  0.00    +0.000 OA
ATOM     14  C10 UNL     1      60.579  55.826 106.559  0.00  0.00    +0.000 A 
ATOM     15  C11 UNL     1      60.664  56.141 107.924  0.00  0.00    +0.000 A 
ATOM     16  C12 UNL     1      61.657  56.983 108.400  0.00  0.00    +0.000 A 
ATOM     17  C13 UNL     1      62.646  57.480 107.541  0.00  0.00    +0.000 A 
ATOM     18  C17 UNL     1      62.608  57.140 106.167  0.00  0.00    +0.000 A 
ATOM     19  C18 UNL     1      61.503  56.392 105.641  0.00  0.00    +0.000 A 
ATOM     20 CL1  UNL     1      64.053  57.457 105.195  0.00  0.00    +0.000 Cl
ATOM     21  F3  UNL     1      61.676  57.278 109.724  0.00  0.00    +0.000 F 
ENDROOT
BRANCH  17  22
ATOM     22  N4  UNL     1      63.676  58.325 108.090  0.00  0.00    +0.000 N 
ATOM     23  C14 UNL     1      64.766  58.171 109.077  0.00  0.00    +0.000 C 
ATOM     24  C15 UNL     1      65.216  59.594 109.050  0.00  0.00    +0.000 C 
ATOM     25  C16 UNL     1      64.118  59.736 108.051  0.00  0.00    +0.000 C 
BRANCH  24  26
ATOM     26  O4  UNL     1      64.932  60.272 110.244  0.00  0.00    +0.000 OA
ATOM     27  H10 UNL     1      65.354  59.737 110.963  0.00  0.00    +0.000 HD
ENDBRANCH  24  26
ENDBRANCH  17  22
BRANCH   1  28
ATOM     28  N1  UNL     1      64.149  56.358 100.388  0.00  0.00    +0.000 N 
ATOM     29  H1  UNL     1      65.046  55.922 100.700  0.00  0.00    +0.000 HD
ATOM     30  H2  UNL     1      63.878  56.276  99.383  0.00  0.00    +0.000 HD
ENDBRANCH   1  28
BRANCH  11  31
ATOM     31  C8  UNL     1      58.477  53.693 104.194  0.00  0.00    +0.000 C 
ATOM     32  O2  UNL     1      58.785  52.884 103.277  0.00  0.00    +0.000 OA
BRANCH  31  33
ATOM     33  O1  UNL     1      57.179  53.675 104.698  0.00  0.00    +0.000 OA
ATOM     34  H5  UNL     1      56.607  54.511 104.692  0.00  0.00    +0.000 HD
ENDBRANCH  31  33
ENDBRANCH  11  31
TORSDOF 5
ENDMDL
MODEL 9
REMARK VINA RESULT:      -7.0     11.035     13.589
REMARK  Name = ./S1553.pdb
REMARK  5 active torsions:
REMARK  status: ('A' for Active; 'I' for Inactive)
REMARK    1  A    between atoms: N1_1  and  C1_2
REMARK    2  A    between atoms: C7_12  and  C8_13
REMARK    3  A    between atoms: C8_13  and  O1_14
REMARK    4  A    between atoms: C13_21  and  N4_22
REMARK    5  A    between atoms: C15_24  and  O4_25
REMARK                            x       y       z     vdW  Elec       q    Type
REMARK                         _______ _______ _______ _____ _____    ______ ____
ROOT
ATOM      1  C1  UNL     1      76.836  62.038 110.526  0.00  0.00    +0.000 A 
ATOM      2  C2  UNL     1      77.597  63.024 109.879  0.00  0.00    +0.000 A 
ATOM      3  F1  UNL     1      78.701  63.549 110.469  0.00  0.00    +0.000 F 
ATOM      4  C3  UNL     1      77.214  63.458 108.610  0.00  0.00    +0.000 A 
ATOM      5  C4  UNL     1      76.080  62.920 108.000  0.00  0.00    +0.000 A 
ATOM      6  F2  UNL     1      75.719  63.330 106.758  0.00  0.00    +0.000 F 
ATOM      7  C5  UNL     1      75.327  61.952 108.684  0.00  0.00    +0.000 A 
ATOM      8  N2  UNL     1      75.733  61.529 109.914  0.00  0.00    +0.000 NA
ATOM      9  N3  UNL     1      74.171  61.354 108.069  0.00  0.00    +0.000 N 
ATOM     10  C6  UNL     1      74.302  60.035 107.739  0.00  0.00    +0.000 A 
ATOM     11  C7  UNL     1      73.374  59.386 106.917  0.00  0.00    +0.000 A 
ATOM     12  C9  UNL     1      72.303  60.133 106.403  0.00  0.00    +0.000 A 
ATOM     13  O3  UNL     1      71.479  59.596 105.611  0.00  0.00    +0.000 OA
ATOM     14  C10 UNL     1      72.142  61.481 106.775  0.00  0.00    +0.000 A 
ATOM     15  C11 UNL     1      71.080  62.235 106.253  0.00  0.00    +0.000 A 
ATOM     16  C12 UNL     1      70.890  63.556 106.632  0.00  0.00    +0.000 A 
ATOM     17  C13 UNL     1      71.709  64.146 107.602  0.00  0.00    +0.000 A 
ATOM     18  C17 UNL     1      72.761  63.392 108.177  0.00  0.00    +0.000 A 
ATOM     19  C18 UNL     1      73.055  62.077 107.685  0.00  0.00    +0.000 A 
ATOM     20 CL1  UNL     1      73.524  64.018 109.646  0.00  0.00    +0.000 Cl
ATOM     21  F3  UNL     1      69.865  64.247 106.075  0.00  0.00    +0.000 F 
ENDROOT
BRANCH  17  22
ATOM     22  N4  UNL     1      71.452  65.511 107.986  0.00  0.00    +0.000 N 
ATOM     23  C14 UNL     1      70.527  66.201 108.909  0.00  0.00    +0.000 C 
ATOM     24  C15 UNL     1      70.933  67.590 108.545  0.00  0.00    +0.000 C 
ATOM     25  C16 UNL     1      71.868  66.883 107.622  0.00  0.00    +0.000 C 
BRANCH  24  26
ATOM     26  O4  UNL     1      69.930  68.281 107.851  0.00  0.00    +0.000 OA
ATOM     27  H10 UNL     1      69.309  68.620 108.545  0.00  0.00    +0.000 HD
ENDBRANCH  24  26
ENDBRANCH  17  22
BRANCH   1  28
ATOM     28  N1  UNL     1      77.206  61.562 111.821  0.00  0.00    +0.000 N 
ATOM     29  H1  UNL     1      77.654  62.207 112.509  0.00  0.00    +0.000 HD
ATOM     30  H2  UNL     1      77.042  60.569 112.102  0.00  0.00    +0.000 HD
ENDBRANCH   1  28
BRANCH  11  31
ATOM     31  C8  UNL     1      73.568  57.947 106.580  0.00  0.00    +0.000 C 
ATOM     32  O2  UNL     1      74.704  57.524 106.231  0.00  0.00    +0.000 OA
BRANCH  31  33
ATOM     33  O1  UNL     1      72.508  57.047 106.651  0.00  0.00    +0.000 OA
ATOM     34  H5  UNL     1      71.548  57.371 106.647  0.00  0.00    +0.000 HD
ENDBRANCH  31  33
ENDBRANCH  11  31
TORSDOF 5
ENDMDL
MODEL 10
REMARK VINA RESULT:      -7.0      4.508      7.209
REMARK  Name = ./S1553.pdb
REMARK  5 active torsions:
REMARK  status: ('A' for Active; 'I' for Inactive)
REMARK    1  A    between atoms: N1_1  and  C1_2
REMARK    2  A    between atoms: C7_12  and  C8_13
REMARK    3  A    between atoms: C8_13  and  O1_14
REMARK    4  A    between atoms: C13_21  and  N4_22
REMARK    5  A    between atoms: C15_24  and  O4_25
REMARK                            x       y       z     vdW  Elec       q    Type
REMARK                         _______ _______ _______ _____ _____    ______ ____
ROOT
ATOM      1  C1  UNL     1      63.884  59.789 101.611  0.00  0.00    +0.000 A 
ATOM      2  C2  UNL     1      64.526  58.678 101.042  0.00  0.00    +0.000 A 
ATOM      3  F1  UNL     1      65.101  58.760  99.816  0.00  0.00    +0.000 F 
ATOM      4  C3  UNL     1      64.577  57.480 101.756  0.00  0.00    +0.000 A 
ATOM      5  C4  UNL     1      63.987  57.393 103.017  0.00  0.00    +0.000 A 
ATOM      6  F2  UNL     1      64.054  56.233 103.718  0.00  0.00    +0.000 F 
ATOM      7  C5  UNL     1      63.333  58.516 103.549  0.00  0.00    +0.000 A 
ATOM      8  N2  UNL     1      63.314  59.681 102.842  0.00  0.00    +0.000 NA
ATOM      9  N3  UNL     1      62.743  58.468 104.861  0.00  0.00    +0.000 N 
ATOM     10  C6  UNL     1      63.365  59.230 105.809  0.00  0.00    +0.000 A 
ATOM     11  C7  UNL     1      63.072  59.096 107.171  0.00  0.00    +0.000 A 
ATOM     12  C9  UNL     1      62.133  58.127 107.557  0.00  0.00    +0.000 A 
ATOM     13  O3  UNL     1      61.886  57.938 108.780  0.00  0.00    +0.000 OA
ATOM     14  C10 UNL     1      61.459  57.370 106.580  0.00  0.00    +0.000 A 
ATOM     15  C11 UNL     1      60.529  56.392 106.962  0.00  0.00    +0.000 A 
ATOM     16  C12 UNL     1      59.836  55.657 106.011  0.00  0.00    +0.000 A 
ATOM     17  C13 UNL     1      59.992  55.927 104.646  0.00  0.00    +0.000 A 
ATOM     18  C17 UNL     1      60.892  56.940 104.236  0.00  0.00    +0.000 A 
ATOM     19  C18 UNL     1      61.720  57.602 105.203  0.00  0.00    +0.000 A 
ATOM     20 CL1  UNL     1      60.789  57.513 102.564  0.00  0.00    +0.000 Cl
ATOM     21  F3  UNL     1      58.970  54.704 106.436  0.00  0.00    +0.000 F 
ENDROOT
BRANCH  17  22
ATOM     22  N4  UNL     1      59.226  55.158 103.698  0.00  0.00    +0.000 N 
ATOM     23  C14 UNL     1      59.493  54.035 102.775  0.00  0.00    +0.000 C 
ATOM     24  C15 UNL     1      58.137  54.007 102.152  0.00  0.00    +0.000 C 
ATOM     25  C16 UNL     1      57.877  55.135 103.092  0.00  0.00    +0.000 C 
BRANCH  24  26
ATOM     26  O4  UNL     1      58.148  54.428 100.815  0.00  0.00    +0.000 OA
ATOM     27  H10 UNL     1      57.197  54.544 100.562  0.00  0.00    +0.000 HD
ENDBRANCH  24  26
ENDBRANCH  17  22
BRANCH   1  28
ATOM     28  N1  UNL     1      63.823  61.034 100.914  0.00  0.00    +0.000 N 
ATOM     29  H1  UNL     1      63.393  61.082  99.964  0.00  0.00    +0.000 HD
ATOM     30  H2  UNL     1      64.205  61.911 101.333  0.00  0.00    +0.000 HD
ENDBRANCH   1  28
BRANCH  11  31
ATOM     31  C8  UNL     1      63.785  59.946 108.165  0.00  0.00    +0.000 C 
ATOM     32  O2  UNL     1      65.022  60.162 108.045  0.00  0.00    +0.000 OA
BRANCH  31  33
ATOM     33  O1  UNL     1      63.104  60.520 109.235  0.00  0.00    +0.000 OA
ATOM     34  H5  UNL     1      63.429  61.382 109.658  0.00  0.00    +0.000 HD
ENDBRANCH  31  33
ENDBRANCH  11  31
TORSDOF 5
ENDMDL
MODEL 11
REMARK VINA RESULT:      -7.0     12.578     14.907
REMARK  Name = ./S1553.pdb
REMARK  5 active torsions:
REMARK  status: ('A' for Active; 'I' for Inactive)
REMARK    1  A    between atoms: N1_1  and  C1_2
REMARK    2  A    between atoms: C7_12  and  C8_13
REMARK    3  A    between atoms: C8_13  and  O1_14
REMARK    4  A    between atoms: C13_21  and  N4_22
REMARK    5  A    between atoms: C15_24  and  O4_25
REMARK                            x       y       z     vdW  Elec       q    Type
REMARK                         _______ _______ _______ _____ _____    ______ ____
ROOT
ATOM      1  C1  UNL     1      72.124  67.262 108.004  0.00  0.00    +0.000 A 
ATOM      2  C2  UNL     1      70.879  67.329 108.646  0.00  0.00    +0.000 A 
ATOM      3  F1  UNL     1      69.922  68.192 108.223  0.00  0.00    +0.000 F 
ATOM      4  C3  UNL     1      70.624  66.486 109.729  0.00  0.00    +0.000 A 
ATOM      5  C4  UNL     1      71.604  65.596 110.168  0.00  0.00    +0.000 A 
ATOM      6  F2  UNL     1      71.349  64.765 111.209  0.00  0.00    +0.000 F 
ATOM      7  C5  UNL     1      72.849  65.570 109.518  0.00  0.00    +0.000 A 
ATOM      8  N2  UNL     1      73.067  66.388 108.449  0.00  0.00    +0.000 NA
ATOM      9  N3  UNL     1      73.869  64.642 109.925  0.00  0.00    +0.000 N 
ATOM     10  C6  UNL     1      74.147  63.648 109.028  0.00  0.00    +0.000 A 
ATOM     11  C7  UNL     1      74.921  62.536 109.378  0.00  0.00    +0.000 A 
ATOM     12  C9  UNL     1      75.392  62.441 110.696  0.00  0.00    +0.000 A 
ATOM     13  O3  UNL     1      76.045  61.424 111.063  0.00  0.00    +0.000 OA
ATOM     14  C10 UNL     1      75.145  63.482 111.610  0.00  0.00    +0.000 A 
ATOM     15  C11 UNL     1      75.604  63.385 112.932  0.00  0.00    +0.000 A 
ATOM     16  C12 UNL     1      75.393  64.415 113.838  0.00  0.00    +0.000 A 
ATOM     17  C13 UNL     1      74.784  65.609 113.432  0.00  0.00    +0.000 A 
ATOM     18  C17 UNL     1      74.352  65.750 112.091  0.00  0.00    +0.000 A 
ATOM     19  C18 UNL     1      74.433  64.637 111.189  0.00  0.00    +0.000 A 
ATOM     20 CL1  UNL     1      73.943  67.373 111.517  0.00  0.00    +0.000 Cl
ATOM     21  F3  UNL     1      75.832  64.256 115.111  0.00  0.00    +0.000 F 
ENDROOT
BRANCH  17  22
ATOM     22  N4  UNL     1      74.616  66.663 114.401  0.00  0.00    +0.000 N 
ATOM     23  C14 UNL     1      75.505  67.608 115.110  0.00  0.00    +0.000 C 
ATOM     24  C15 UNL     1      74.446  68.222 115.964  0.00  0.00    +0.000 C 
ATOM     25  C16 UNL     1      73.558  67.268 115.238  0.00  0.00    +0.000 C 
BRANCH  24  26
ATOM     26  O4  UNL     1      74.583  67.886 117.318  0.00  0.00    +0.000 OA
ATOM     27  H10 UNL     1      74.704  68.745 117.797  0.00  0.00    +0.000 HD
ENDBRANCH  24  26
ENDBRANCH  17  22
BRANCH   1  28
ATOM     28  N1  UNL     1      72.415  68.101 106.885  0.00  0.00    +0.000 N 
ATOM     29  H1  UNL     1      72.599  69.119 107.027  0.00  0.00    +0.000 HD
ATOM     30  H2  UNL     1      72.446  67.720 105.913  0.00  0.00    +0.000 HD
ENDBRANCH   1  28
BRANCH  11  31
ATOM     31  C8  UNL     1      75.186  61.476 108.365  0.00  0.00    +0.000 C 
ATOM     32  O2  UNL     1      75.424  61.788 107.166  0.00  0.00    +0.000 OA
BRANCH  31  33
ATOM     33  O1  UNL     1      75.183  60.130 108.721  0.00  0.00    +0.000 OA
ATOM     34  H5  UNL     1      75.863  59.487 108.333  0.00  0.00    +0.000 HD
ENDBRANCH  31  33
ENDBRANCH  11  31
TORSDOF 5
ENDMDL
MODEL 12
REMARK VINA RESULT:      -7.0     13.022     14.475
REMARK  Name = ./S1553.pdb
REMARK  5 active torsions:
REMARK  status: ('A' for Active; 'I' for Inactive)
REMARK    1  A    between atoms: N1_1  and  C1_2
REMARK    2  A    between atoms: C7_12  and  C8_13
REMARK    3  A    between atoms: C8_13  and  O1_14
REMARK    4  A    between atoms: C13_21  and  N4_22
REMARK    5  A    between atoms: C15_24  and  O4_25
REMARK                            x       y       z     vdW  Elec       q    Type
REMARK                         _______ _______ _______ _____ _____    ______ ____
ROOT
ATOM      1  C1  UNL     1      73.611  65.102 114.814  0.00  0.00    +0.000 A 
ATOM      2  C2  UNL     1      73.775  66.470 115.081  0.00  0.00    +0.000 A 
ATOM      3  F1  UNL     1      73.326  67.011 116.241  0.00  0.00    +0.000 F 
ATOM      4  C3  UNL     1      74.418  67.276 114.141  0.00  0.00    +0.000 A 
ATOM      5  C4  UNL     1      74.882  66.724 112.947  0.00  0.00    +0.000 A 
ATOM      6  F2  UNL     1      75.523  67.506 112.042  0.00  0.00    +0.000 F 
ATOM      7  C5  UNL     1      74.682  65.356 112.700  0.00  0.00    +0.000 A 
ATOM      8  N2  UNL     1      74.071  64.584 113.642  0.00  0.00    +0.000 NA
ATOM      9  N3  UNL     1      75.178  64.749 111.493  0.00  0.00    +0.000 N 
ATOM     10  C6  UNL     1      76.210  63.870 111.663  0.00  0.00    +0.000 A 
ATOM     11  C7  UNL     1      76.960  63.397 110.580  0.00  0.00    +0.000 A 
ATOM     12  C9  UNL     1      76.647  63.871 109.296  0.00  0.00    +0.000 A 
ATOM     13  O3  UNL     1      77.339  63.511 108.303  0.00  0.00    +0.000 OA
ATOM     14  C10 UNL     1      75.557  64.743 109.113  0.00  0.00    +0.000 A 
ATOM     15  C11 UNL     1      75.249  65.229 107.833  0.00  0.00    +0.000 A 
ATOM     16  C12 UNL     1      74.161  66.065 107.631  0.00  0.00    +0.000 A 
ATOM     17  C13 UNL     1      73.300  66.385 108.688  0.00  0.00    +0.000 A 
ATOM     18  C17 UNL     1      73.563  65.870 109.981  0.00  0.00    +0.000 A 
ATOM     19  C18 UNL     1      74.765  65.127 110.228  0.00  0.00    +0.000 A 
ATOM     20 CL1  UNL     1      72.275  65.970 111.191  0.00  0.00    +0.000 Cl
ATOM     21  F3  UNL     1      73.927  66.530 106.379  0.00  0.00    +0.000 F 
ENDROOT
BRANCH  17  22
ATOM     22  N4  UNL     1      72.164  67.232 108.421  0.00  0.00    +0.000 N 
ATOM     23  C14 UNL     1      70.722  67.030 108.168  0.00  0.00    +0.000 C 
ATOM     24  C15 UNL     1      70.398  68.463 107.906  0.00  0.00    +0.000 C 
ATOM     25  C16 UNL     1      71.853  68.655 108.169  0.00  0.00    +0.000 C 
BRANCH  24  26
ATOM     26  O4  UNL     1      70.069  68.705 106.565  0.00  0.00    +0.000 OA
ATOM     27  H10 UNL     1      70.929  68.692 106.071  0.00  0.00    +0.000 HD
ENDBRANCH  24  26
ENDBRANCH  17  22
BRANCH   1  28
ATOM     28  N1  UNL     1      72.969  64.244 115.759  0.00  0.00    +0.000 N 
ATOM     29  H1  UNL     1      71.927  64.202 115.804  0.00  0.00    +0.000 HD
ATOM     30  H2  UNL     1      73.522  63.652 116.418  0.00  0.00    +0.000 HD
ENDBRANCH   1  28
BRANCH  11  31
ATOM     31  C8  UNL     1      78.081  62.447 110.820  0.00  0.00    +0.000 C 
ATOM     32  O2  UNL     1      77.919  61.449 111.574  0.00  0.00    +0.000 OA
BRANCH  31  33
ATOM     33  O1  UNL     1      79.322  62.637 110.215  0.00  0.00    +0.000 OA
ATOM     34  H5  UNL     1      79.498  62.307 109.274  0.00  0.00    +0.000 HD
ENDBRANCH  31  33
ENDBRANCH  11  31
TORSDOF 5
ENDMDL
MODEL 13
REMARK VINA RESULT:      -7.0     12.580     14.653
REMARK  Name = ./S1553.pdb
REMARK  5 active torsions:
REMARK  status: ('A' for Active; 'I' for Inactive)
REMARK    1  A    between atoms: N1_1  and  C1_2
REMARK    2  A    between atoms: C7_12  and  C8_13
REMARK    3  A    between atoms: C8_13  and  O1_14
REMARK    4  A    between atoms: C13_21  and  N4_22
REMARK    5  A    between atoms: C15_24  and  O4_25
REMARK                            x       y       z     vdW  Elec       q    Type
REMARK                         _______ _______ _______ _____ _____    ______ ____
ROOT
ATOM      1  C1  UNL     1      73.179  65.818 116.907  0.00  0.00    +0.000 A 
ATOM      2  C2  UNL     1      73.333  67.198 116.703  0.00  0.00    +0.000 A 
ATOM      3  F1  UNL     1      72.712  68.094 117.510  0.00  0.00    +0.000 F 
ATOM      4  C3  UNL     1      74.144  67.647 115.660  0.00  0.00    +0.000 A 
ATOM      5  C4  UNL     1      74.784  66.728 114.828  0.00  0.00    +0.000 A 
ATOM      6  F2  UNL     1      75.587  67.166 113.826  0.00  0.00    +0.000 F 
ATOM      7  C5  UNL     1      74.592  65.354 115.045  0.00  0.00    +0.000 A 
ATOM      8  N2  UNL     1      73.812  64.940 116.083  0.00  0.00    +0.000 NA
ATOM      9  N3  UNL     1      75.264  64.381 114.226  0.00  0.00    +0.000 N 
ATOM     10  C6  UNL     1      76.231  63.652 114.859  0.00  0.00    +0.000 A 
ATOM     11  C7  UNL     1      77.136  62.855 114.148  0.00  0.00    +0.000 A 
ATOM     12  C9  UNL     1      77.053  62.842 112.747  0.00  0.00    +0.000 A 
ATOM     13  O3  UNL     1      77.890  62.181 112.071  0.00  0.00    +0.000 OA
ATOM     14  C10 UNL     1      76.032  63.558 112.094  0.00  0.00    +0.000 A 
ATOM     15  C11 UNL     1      75.954  63.556 110.694  0.00  0.00    +0.000 A 
ATOM     16  C12 UNL     1      74.937  64.233 110.036  0.00  0.00    +0.000 A 
ATOM     17  C13 UNL     1      73.921  64.872 110.757  0.00  0.00    +0.000 A 
ATOM     18  C17 UNL     1      73.953  64.850 112.173  0.00  0.00    +0.000 A 
ATOM     19  C18 UNL     1      75.077  64.280 112.858  0.00  0.00    +0.000 A 
ATOM     20 CL1  UNL     1      72.486  65.322 113.042  0.00  0.00    +0.000 Cl
ATOM     21  F3  UNL     1      74.926  64.223 108.680  0.00  0.00    +0.000 F 
ENDROOT
BRANCH  17  22
ATOM     22  N4  UNL     1      72.869  65.534 110.029  0.00  0.00    +0.000 N 
ATOM     23  C14 UNL     1      72.608  66.908 109.550  0.00  0.00    +0.000 C 
ATOM     24  C15 UNL     1      71.244  66.638 109.006  0.00  0.00    +0.000 C 
ATOM     25  C16 UNL     1      71.522  65.254 109.487  0.00  0.00    +0.000 C 
BRANCH  24  26
ATOM     26  O4  UNL     1      70.233  67.261 109.750  0.00  0.00    +0.000 OA
ATOM     27  H10 UNL     1      70.374  66.973 110.688  0.00  0.00    +0.000 HD
ENDBRANCH  24  26
ENDBRANCH  17  22
BRANCH   1  28
ATOM     28  N1  UNL     1      72.367  65.323 117.973  0.00  0.00    +0.000 N 
ATOM     29  H1  UNL     1      71.329  65.276 117.863  0.00  0.00    +0.000 HD
ATOM     30  H2  UNL     1      72.787  65.005 118.874  0.00  0.00    +0.000 HD
ENDBRANCH   1  28
BRANCH  11  31
ATOM     31  C8  UNL     1      78.177  62.087 114.887  0.00  0.00    +0.000 C 
ATOM     32  O2  UNL     1      78.846  62.640 115.802  0.00  0.00    +0.000 OA
BRANCH  31  33
ATOM     33  O1  UNL     1      78.424  60.749 114.588  0.00  0.00    +0.000 OA
ATOM     34  H5  UNL     1      78.064  60.008 115.178  0.00  0.00    +0.000 HD
ENDBRANCH  31  33
ENDBRANCH  11  31
TORSDOF 5
ENDMDL
MODEL 14
REMARK VINA RESULT:      -6.9     12.888     16.448
REMARK  Name = ./S1553.pdb
REMARK  5 active torsions:
REMARK  status: ('A' for Active; 'I' for Inactive)
REMARK    1  A    between atoms: N1_1  and  C1_2
REMARK    2  A    between atoms: C7_12  and  C8_13
REMARK    3  A    between atoms: C8_13  and  O1_14
REMARK    4  A    between atoms: C13_21  and  N4_22
REMARK    5  A    between atoms: C15_24  and  O4_25
REMARK                            x       y       z     vdW  Elec       q    Type
REMARK                         _______ _______ _______ _____ _____    ______ ____
ROOT
ATOM      1  C1  UNL     1      79.206  59.034 114.086  0.00  0.00    +0.000 A 
ATOM      2  C2  UNL     1      79.539  59.534 115.354  0.00  0.00    +0.000 A 
ATOM      3  F1  UNL     1      80.207  58.766 116.251  0.00  0.00    +0.000 F 
ATOM      4  C3  UNL     1      79.183  60.841 115.687  0.00  0.00    +0.000 A 
ATOM      5  C4  UNL     1      78.496  61.634 114.767  0.00  0.00    +0.000 A 
ATOM      6  F2  UNL     1      78.167  62.911 115.084  0.00  0.00    +0.000 F 
ATOM      7  C5  UNL     1      78.158  61.097 113.514  0.00  0.00    +0.000 A 
ATOM      8  N2  UNL     1      78.535  59.824 113.204  0.00  0.00    +0.000 NA
ATOM      9  N3  UNL     1      77.479  61.898 112.531  0.00  0.00    +0.000 N 
ATOM     10  C6  UNL     1      78.220  62.224 111.430  0.00  0.00    +0.000 A 
ATOM     11  C7  UNL     1      77.794  63.195 110.517  0.00  0.00    +0.000 A 
ATOM     12  C9  UNL     1      76.586  63.863 110.771  0.00  0.00    +0.000 A 
ATOM     13  O3  UNL     1      76.200  64.786 110.000  0.00  0.00    +0.000 OA
ATOM     14  C10 UNL     1      75.800  63.501 111.881  0.00  0.00    +0.000 A 
ATOM     15  C11 UNL     1      74.598  64.175 112.145  0.00  0.00    +0.000 A 
ATOM     16  C12 UNL     1      73.798  63.811 113.218  0.00  0.00    +0.000 A 
ATOM     17  C13 UNL     1      74.133  62.712 114.019  0.00  0.00    +0.000 A 
ATOM     18  C17 UNL     1      75.318  61.987 113.745  0.00  0.00    +0.000 A 
ATOM     19  C18 UNL     1      76.224  62.446 112.732  0.00  0.00    +0.000 A 
ATOM     20 CL1  UNL     1      75.518  60.405 114.513  0.00  0.00    +0.000 Cl
ATOM     21  F3  UNL     1      72.661  64.515 113.445  0.00  0.00    +0.000 F 
ENDROOT
BRANCH  17  22
ATOM     22  N4  UNL     1      73.252  62.353 115.102  0.00  0.00    +0.000 N 
ATOM     23  C14 UNL     1      72.001  61.581 115.244  0.00  0.00    +0.000 C 
ATOM     24  C15 UNL     1      71.803  61.852 116.699  0.00  0.00    +0.000 C 
ATOM     25  C16 UNL     1      73.070  62.624 116.544  0.00  0.00    +0.000 C 
BRANCH  24  26
ATOM     26  O4  UNL     1      70.705  62.688 116.947  0.00  0.00    +0.000 OA
ATOM     27  H10 UNL     1      70.690  63.341 116.201  0.00  0.00    +0.000 HD
ENDBRANCH  24  26
ENDBRANCH  17  22
BRANCH   1  28
ATOM     28  N1  UNL     1      79.565  57.704 113.707  0.00  0.00    +0.000 N 
ATOM     29  H1  UNL     1      79.067  57.230 112.922  0.00  0.00    +0.000 HD
ATOM     30  H2  UNL     1      80.323  57.184 114.203  0.00  0.00    +0.000 HD
ENDBRANCH   1  28
BRANCH  11  31
ATOM     31  C8  UNL     1      78.644  63.519 109.337  0.00  0.00    +0.000 C 
ATOM     32  O2  UNL     1      79.886  63.688 109.475  0.00  0.00    +0.000 OA
BRANCH  31  33
ATOM     33  O1  UNL     1      78.088  63.633 108.065  0.00  0.00    +0.000 OA
ATOM     34  H5  UNL     1      77.872  62.811 107.515  0.00  0.00    +0.000 HD
ENDBRANCH  31  33
ENDBRANCH  11  31
TORSDOF 5
ENDMDL
MODEL 15
REMARK VINA RESULT:      -6.9     13.192     15.210
REMARK  Name = ./S1553.pdb
REMARK  5 active torsions:
REMARK  status: ('A' for Active; 'I' for Inactive)
REMARK    1  A    between atoms: N1_1  and  C1_2
REMARK    2  A    between atoms: C7_12  and  C8_13
REMARK    3  A    between atoms: C8_13  and  O1_14
REMARK    4  A    between atoms: C13_21  and  N4_22
REMARK    5  A    between atoms: C15_24  and  O4_25
REMARK                            x       y       z     vdW  Elec       q    Type
REMARK                         _______ _______ _______ _____ _____    ______ ____
ROOT
ATOM      1  C1  UNL     1      72.016  65.326 106.331  0.00  0.00    +0.000 A 
ATOM      2  C2  UNL     1      70.723  65.132 106.841  0.00  0.00    +0.000 A 
ATOM      3  F1  UNL     1      69.996  64.039 106.497  0.00  0.00    +0.000 F 
ATOM      4  C3  UNL     1      70.187  66.074 107.719  0.00  0.00    +0.000 A 
ATOM      5  C4  UNL     1      70.931  67.199 108.076  0.00  0.00    +0.000 A 
ATOM      6  F2  UNL     1      70.417  68.106 108.944  0.00  0.00    +0.000 F 
ATOM      7  C5  UNL     1      72.214  67.376 107.531  0.00  0.00    +0.000 A 
ATOM      8  N2  UNL     1      72.724  66.431 106.691  0.00  0.00    +0.000 NA
ATOM      9  N3  UNL     1      73.019  68.508 107.903  0.00  0.00    +0.000 N 
ATOM     10  C6  UNL     1      74.123  68.218 108.655  0.00  0.00    +0.000 A 
ATOM     11  C7  UNL     1      74.857  69.218 109.302  0.00  0.00    +0.000 A 
ATOM     12  C9  UNL     1      74.417  70.546 109.189  0.00  0.00    +0.000 A 
ATOM     13  O3  UNL     1      75.021  71.467 109.806  0.00  0.00    +0.000 OA
ATOM     14  C10 UNL     1      73.306  70.853 108.381  0.00  0.00    +0.000 A 
ATOM     15  C11 UNL     1      72.856  72.178 108.275  0.00  0.00    +0.000 A 
ATOM     16  C12 UNL     1      71.780  72.502 107.461  0.00  0.00    +0.000 A 
ATOM     17  C13 UNL     1      71.166  71.526 106.666  0.00  0.00    +0.000 A 
ATOM     18  C17 UNL     1      71.632  70.189 106.720  0.00  0.00    +0.000 A 
ATOM     19  C18 UNL     1      72.644  69.819 107.667  0.00  0.00    +0.000 A 
ATOM     20 CL1  UNL     1      71.106  69.076 105.449  0.00  0.00    +0.000 Cl
ATOM     21  F3  UNL     1      71.367  73.793 107.418  0.00  0.00    +0.000 F 
ENDROOT
BRANCH  17  22
ATOM     22  N4  UNL     1      70.074  71.918 105.811  0.00  0.00    +0.000 N 
ATOM     23  C14 UNL     1      68.637  71.590 105.704  0.00  0.00    +0.000 C 
ATOM     24  C15 UNL     1      68.375  72.395 104.474  0.00  0.00    +0.000 C 
ATOM     25  C16 UNL     1      69.824  72.724 104.597  0.00  0.00    +0.000 C 
BRANCH  24  26
ATOM     26  O4  UNL     1      68.109  71.597 103.353  0.00  0.00    +0.000 OA
ATOM     27  H10 UNL     1      68.964  71.143 103.138  0.00  0.00    +0.000 HD
ENDBRANCH  24  26
ENDBRANCH  17  22
BRANCH   1  28
ATOM     28  N1  UNL     1      72.600  64.375 105.439  0.00  0.00    +0.000 N 
ATOM     29  H1  UNL     1      72.425  63.354 105.574  0.00  0.00    +0.000 HD
ATOM     30  H2  UNL     1      73.209  64.676 104.646  0.00  0.00    +0.000 HD
ENDBRANCH   1  28
BRANCH  11  31
ATOM     31  C8  UNL     1      76.048  68.846 110.117  0.00  0.00    +0.000 C 
ATOM     32  O2  UNL     1      77.203  68.896 109.615  0.00  0.00    +0.000 OA
BRANCH  31  33
ATOM     33  O1  UNL     1      75.909  68.445 111.444  0.00  0.00    +0.000 OA
ATOM     34  H5  UNL     1      75.040  68.592 111.944  0.00  0.00    +0.000 HD
ENDBRANCH  31  33
ENDBRANCH  11  31
TORSDOF 5
ENDMDL
MODEL 16
REMARK VINA RESULT:      -6.8     11.213     13.066
REMARK  Name = ./S1553.pdb
REMARK  5 active torsions:
REMARK  status: ('A' for Active; 'I' for Inactive)
REMARK    1  A    between atoms: N1_1  and  C1_2
REMARK    2  A    between atoms: C7_12  and  C8_13
REMARK    3  A    between atoms: C8_13  and  O1_14
REMARK    4  A    between atoms: C13_21  and  N4_22
REMARK    5  A    between atoms: C15_24  and  O4_25
REMARK                            x       y       z     vdW  Elec       q    Type
REMARK                         _______ _______ _______ _____ _____    ______ ____
ROOT
ATOM      1  C1  UNL     1      71.911  61.805 101.868  0.00  0.00    +0.000 A 
ATOM      2  C2  UNL     1      70.575  62.227 101.795  0.00  0.00    +0.000 A 
ATOM      3  F1  UNL     1      69.957  62.379 100.597  0.00  0.00    +0.000 F 
ATOM      4  C3  UNL     1      69.875  62.485 102.975  0.00  0.00    +0.000 A 
ATOM      5  C4  UNL     1      70.506  62.330 104.209  0.00  0.00    +0.000 A 
ATOM      6  F2  UNL     1      69.819  62.562 105.356  0.00  0.00    +0.000 F 
ATOM      7  C5  UNL     1      71.851  61.927 104.248  0.00  0.00    +0.000 A 
ATOM      8  N2  UNL     1      72.507  61.662 103.083  0.00  0.00    +0.000 NA
ATOM      9  N3  UNL     1      72.520  61.727 105.505  0.00  0.00    +0.000 N 
ATOM     10  C6  UNL     1      72.833  60.430 105.800  0.00  0.00    +0.000 A 
ATOM     11  C7  UNL     1      73.251  60.046 107.079  0.00  0.00    +0.000 A 
ATOM     12  C9  UNL     1      73.316  61.027 108.081  0.00  0.00    +0.000 A 
ATOM     13  O3  UNL     1      73.633  60.706 109.260  0.00  0.00    +0.000 OA
ATOM     14  C10 UNL     1      73.036  62.371 107.770  0.00  0.00    +0.000 A 
ATOM     15  C11 UNL     1      73.088  63.352 108.771  0.00  0.00    +0.000 A 
ATOM     16  C12 UNL     1      72.843  64.685 108.476  0.00  0.00    +0.000 A 
ATOM     17  C13 UNL     1      72.612  65.094 107.156  0.00  0.00    +0.000 A 
ATOM     18  C17 UNL     1      72.599  64.128 106.121  0.00  0.00    +0.000 A 
ATOM     19  C18 UNL     1      72.705  62.733 106.437  0.00  0.00    +0.000 A 
ATOM     20 CL1  UNL     1      72.686  64.704 104.449  0.00  0.00    +0.000 Cl
ATOM     21  F3  UNL     1      72.877  65.589 109.487  0.00  0.00    +0.000 F 
ENDROOT
BRANCH  17  22
ATOM     22  N4  UNL     1      72.394  66.495 106.895  0.00  0.00    +0.000 N 
ATOM     23  C14 UNL     1      71.221  67.385 106.778  0.00  0.00    +0.000 C 
ATOM     24  C15 UNL     1      71.982  68.612 106.398  0.00  0.00    +0.000 C 
ATOM     25  C16 UNL     1      73.159  67.705 106.525  0.00  0.00    +0.000 C 
BRANCH  24  26
ATOM     26  O4  UNL     1      71.755  68.997 105.069  0.00  0.00    +0.000 OA
ATOM     27  H10 UNL     1      71.137  69.771 105.115  0.00  0.00    +0.000 HD
ENDBRANCH  24  26
ENDBRANCH  17  22
BRANCH   1  28
ATOM     28  N1  UNL     1      72.653  61.521 100.682  0.00  0.00    +0.000 N 
ATOM     29  H1  UNL     1      72.159  61.409  99.768  0.00  0.00    +0.000 HD
ATOM     30  H2  UNL     1      73.692  61.418 100.702  0.00  0.00    +0.000 HD
ENDBRANCH   1  28
BRANCH  11  31
ATOM     31  C8  UNL     1      73.571  58.616 107.351  0.00  0.00    +0.000 C 
ATOM     32  O2  UNL     1      73.065  57.705 106.640  0.00  0.00    +0.000 OA
BRANCH  31  33
ATOM     33  O1  UNL     1      74.436  58.260 108.383  0.00  0.00    +0.000 OA
ATOM     34  H5  UNL     1      75.417  58.084 108.204  0.00  0.00    +0.000 HD
ENDBRANCH  31  33
ENDBRANCH  11  31
TORSDOF 5
ENDMDL
MODEL 17
REMARK VINA RESULT:      -6.7     11.679     14.432
REMARK  Name = ./S1553.pdb
REMARK  5 active torsions:
REMARK  status: ('A' for Active; 'I' for Inactive)
REMARK    1  A    between atoms: N1_1  and  C1_2
REMARK    2  A    between atoms: C7_12  and  C8_13
REMARK    3  A    between atoms: C8_13  and  O1_14
REMARK    4  A    between atoms: C13_21  and  N4_22
REMARK    5  A    between atoms: C15_24  and  O4_25
REMARK                            x       y       z     vdW  Elec       q    Type
REMARK                         _______ _______ _______ _____ _____    ______ ____
ROOT
ATOM      1  C1  UNL     1      71.675  63.167 107.200  0.00  0.00    +0.000 A 
ATOM      2  C2  UNL     1      70.645  63.920 106.617  0.00  0.00    +0.000 A 
ATOM      3  F1  UNL     1      69.913  63.421 105.589  0.00  0.00    +0.000 F 
ATOM      4  C3  UNL     1      70.370  65.196 107.110  0.00  0.00    +0.000 A 
ATOM      5  C4  UNL     1      71.120  65.713 108.167  0.00  0.00    +0.000 A 
ATOM      6  F2  UNL     1      70.839  66.947 108.658  0.00  0.00    +0.000 F 
ATOM      7  C5  UNL     1      72.159  64.942 108.714  0.00  0.00    +0.000 A 
ATOM      8  N2  UNL     1      72.395  63.691 108.229  0.00  0.00    +0.000 NA
ATOM      9  N3  UNL     1      72.929  65.433 109.825  0.00  0.00    +0.000 N 
ATOM     10  C6  UNL     1      72.736  64.775 111.007  0.00  0.00    +0.000 A 
ATOM     11  C7  UNL     1      73.212  65.283 112.220  0.00  0.00    +0.000 A 
ATOM     12  C9  UNL     1      73.877  66.520 112.209  0.00  0.00    +0.000 A 
ATOM     13  O3  UNL     1      74.268  67.037 113.292  0.00  0.00    +0.000 OA
ATOM     14  C10 UNL     1      74.115  67.180 110.989  0.00  0.00    +0.000 A 
ATOM     15  C11 UNL     1      74.768  68.422 110.974  0.00  0.00    +0.000 A 
ATOM     16  C12 UNL     1      75.036  69.072 109.778  0.00  0.00    +0.000 A 
ATOM     17  C13 UNL     1      74.728  68.469 108.552  0.00  0.00    +0.000 A 
ATOM     18  C17 UNL     1      74.109  67.196 108.539  0.00  0.00    +0.000 A 
ATOM     19  C18 UNL     1      73.696  66.584 109.769  0.00  0.00    +0.000 A 
ATOM     20 CL1  UNL     1      74.080  66.304 107.011  0.00  0.00    +0.000 Cl
ATOM     21  F3  UNL     1      75.644  70.284 109.824  0.00  0.00    +0.000 F 
ENDROOT
BRANCH  17  22
ATOM     22  N4  UNL     1      75.055  69.171 107.337  0.00  0.00    +0.000 N 
ATOM     23  C14 UNL     1      74.319  69.983 106.345  0.00  0.00    +0.000 C 
ATOM     24  C15 UNL     1      75.465  70.181 105.410  0.00  0.00    +0.000 C 
ATOM     25  C16 UNL     1      76.199  69.366 106.420  0.00  0.00    +0.000 C 
BRANCH  24  26
ATOM     26  O4  UNL     1      75.298  69.494 104.199  0.00  0.00    +0.000 OA
ATOM     27  H10 UNL     1      75.918  68.722 104.241  0.00  0.00    +0.000 HD
ENDBRANCH  24  26
ENDBRANCH  17  22
BRANCH   1  28
ATOM     28  N1  UNL     1      71.975  61.852 106.728  0.00  0.00    +0.000 N 
ATOM     29  H1  UNL     1      71.501  61.023 107.149  0.00  0.00    +0.000 HD
ATOM     30  H2  UNL     1      72.669  61.695 105.964  0.00  0.00    +0.000 HD
ENDBRANCH   1  28
BRANCH  11  31
ATOM     31  C8  UNL     1      72.966  64.529 113.481  0.00  0.00    +0.000 C 
ATOM     32  O2  UNL     1      73.035  63.270 113.493  0.00  0.00    +0.000 OA
BRANCH  31  33
ATOM     33  O1  UNL     1      72.664  65.197 114.666  0.00  0.00    +0.000 OA
ATOM     34  H5  UNL     1      72.591  66.207 114.691  0.00  0.00    +0.000 HD
ENDBRANCH  31  33
ENDBRANCH  11  31
TORSDOF 5
ENDMDL
MODEL 18
REMARK VINA RESULT:      -6.7     11.964     13.363
REMARK  Name = ./S1553.pdb
REMARK  5 active torsions:
REMARK  status: ('A' for Active; 'I' for Inactive)
REMARK    1  A    between atoms: N1_1  and  C1_2
REMARK    2  A    between atoms: C7_12  and  C8_13
REMARK    3  A    between atoms: C8_13  and  O1_14
REMARK    4  A    between atoms: C13_21  and  N4_22
REMARK    5  A    between atoms: C15_24  and  O4_25
REMARK                            x       y       z     vdW  Elec       q    Type
REMARK                         _______ _______ _______ _____ _____    ______ ____
ROOT
ATOM      1  C1  UNL     1      71.047  67.847 107.448  0.00  0.00    +0.000 A 
ATOM      2  C2  UNL     1      71.797  67.959 106.267  0.00  0.00    +0.000 A 
ATOM      3  F1  UNL     1      71.307  68.626 105.192  0.00  0.00    +0.000 F 
ATOM      4  C3  UNL     1      73.065  67.382 106.207  0.00  0.00    +0.000 A 
ATOM      5  C4  UNL     1      73.573  66.695 107.311  0.00  0.00    +0.000 A 
ATOM      6  F2  UNL     1      74.814  66.150 107.258  0.00  0.00    +0.000 F 
ATOM      7  C5  UNL     1      72.788  66.582 108.470  0.00  0.00    +0.000 A 
ATOM      8  N2  UNL     1      71.561  67.172 108.512  0.00  0.00    +0.000 NA
ATOM      9  N3  UNL     1      73.296  65.909 109.636  0.00  0.00    +0.000 N 
ATOM     10  C6  UNL     1      73.552  66.713 110.710  0.00  0.00    +0.000 A 
ATOM     11  C7  UNL     1      74.276  66.257 111.817  0.00  0.00    +0.000 A 
ATOM     12  C9  UNL     1      74.772  64.944 111.792  0.00  0.00    +0.000 A 
ATOM     13  O3  UNL     1      75.479  64.516 112.747  0.00  0.00    +0.000 OA
ATOM     14  C10 UNL     1      74.474  64.099 110.706  0.00  0.00    +0.000 A 
ATOM     15  C11 UNL     1      74.977  62.789 110.672  0.00  0.00    +0.000 A 
ATOM     16  C12 UNL     1      74.670  61.935 109.624  0.00  0.00    +0.000 A 
ATOM     17  C13 UNL     1      73.788  62.333 108.612  0.00  0.00    +0.000 A 
ATOM     18  C17 UNL     1      73.230  63.635 108.647  0.00  0.00    +0.000 A 
ATOM     19  C18 UNL     1      73.657  64.573 109.645  0.00  0.00    +0.000 A 
ATOM     20 CL1  UNL     1      71.850  63.975 107.593  0.00  0.00    +0.000 Cl
ATOM     21  F3  UNL     1      75.207  60.689 109.626  0.00  0.00    +0.000 F 
ENDROOT
BRANCH  17  22
ATOM     22  N4  UNL     1      73.474  61.398 107.561  0.00  0.00    +0.000 N 
ATOM     23  C14 UNL     1      72.562  60.246 107.399  0.00  0.00    +0.000 C 
ATOM     24  C15 UNL     1      73.017  59.866 106.029  0.00  0.00    +0.000 C 
ATOM     25  C16 UNL     1      73.929  61.034 106.202  0.00  0.00    +0.000 C 
BRANCH  24  26
ATOM     26  O4  UNL     1      73.717  58.651 106.011  0.00  0.00    +0.000 OA
ATOM     27  H10 UNL     1      74.621  58.857 106.362  0.00  0.00    +0.000 HD
ENDBRANCH  24  26
ENDBRANCH  17  22
BRANCH   1  28
ATOM     28  N1  UNL     1      69.750  68.437 107.548  0.00  0.00    +0.000 N 
ATOM     29  H1  UNL     1      69.371  69.007 106.760  0.00  0.00    +0.000 HD
ATOM     30  H2  UNL     1      69.161  68.314 108.402  0.00  0.00    +0.000 HD
ENDBRANCH   1  28
BRANCH  11  31
ATOM     31  C8  UNL     1      74.535  67.178 112.958  0.00  0.00    +0.000 C 
ATOM     32  O2  UNL     1      73.891  67.052 114.036  0.00  0.00    +0.000 OA
BRANCH  31  33
ATOM     33  O1  UNL     1      75.492  68.186 112.862  0.00  0.00    +0.000 OA
ATOM     34  H5  UNL     1      75.310  69.026 112.326  0.00  0.00    +0.000 HD
ENDBRANCH  31  33
ENDBRANCH  11  31
TORSDOF 5
ENDMDL
MODEL 19
REMARK VINA RESULT:      -6.7     13.718     16.069
REMARK  Name = ./S1553.pdb
REMARK  5 active torsions:
REMARK  status: ('A' for Active; 'I' for Inactive)
REMARK    1  A    between atoms: N1_1  and  C1_2
REMARK    2  A    between atoms: C7_12  and  C8_13
REMARK    3  A    between atoms: C8_13  and  O1_14
REMARK    4  A    between atoms: C13_21  and  N4_22
REMARK    5  A    between atoms: C15_24  and  O4_25
REMARK                            x       y       z     vdW  Elec       q    Type
REMARK                         _______ _______ _______ _____ _____    ______ ____
ROOT
ATOM      1  C1  UNL     1      77.090  69.608 109.301  0.00  0.00    +0.000 A 
ATOM      2  C2  UNL     1      77.665  69.338 108.049  0.00  0.00    +0.000 A 
ATOM      3  F1  UNL     1      78.950  69.682 107.786  0.00  0.00    +0.000 F 
ATOM      4  C3  UNL     1      76.901  68.700 107.071  0.00  0.00    +0.000 A 
ATOM      5  C4  UNL     1      75.579  68.344 107.338  0.00  0.00    +0.000 A 
ATOM      6  F2  UNL     1      74.844  67.707 106.393  0.00  0.00    +0.000 F 
ATOM      7  C5  UNL     1      75.026  68.648 108.593  0.00  0.00    +0.000 A 
ATOM      8  N2  UNL     1      75.798  69.253 109.539  0.00  0.00    +0.000 NA
ATOM      9  N3  UNL     1      73.677  68.266 108.912  0.00  0.00    +0.000 N 
ATOM     10  C6  UNL     1      73.554  67.285 109.855  0.00  0.00    +0.000 A 
ATOM     11  C7  UNL     1      72.338  66.634 110.087  0.00  0.00    +0.000 A 
ATOM     12  C9  UNL     1      71.232  66.989 109.299  0.00  0.00    +0.000 A 
ATOM     13  O3  UNL     1      70.133  66.382 109.441  0.00  0.00    +0.000 OA
ATOM     14  C10 UNL     1      71.343  68.028 108.356  0.00  0.00    +0.000 A 
ATOM     15  C11 UNL     1      70.243  68.378 107.559  0.00  0.00    +0.000 A 
ATOM     16  C12 UNL     1      70.327  69.418 106.644  0.00  0.00    +0.000 A 
ATOM     17  C13 UNL     1      71.490  70.193 106.550  0.00  0.00    +0.000 A 
ATOM     18  C17 UNL     1      72.599  69.889 107.376  0.00  0.00    +0.000 A 
ATOM     19  C18 UNL     1      72.572  68.726 108.216  0.00  0.00    +0.000 A 
ATOM     20 CL1  UNL     1      73.888  71.094 107.511  0.00  0.00    +0.000 Cl
ATOM     21  F3  UNL     1      69.243  69.694 105.878  0.00  0.00    +0.000 F 
ENDROOT
BRANCH  17  22
ATOM     22  N4  UNL     1      71.518  71.283 105.608  0.00  0.00    +0.000 N 
ATOM     23  C14 UNL     1      71.046  72.684 105.587  0.00  0.00    +0.000 C 
ATOM     24  C15 UNL     1      71.433  72.968 104.173  0.00  0.00    +0.000 C 
ATOM     25  C16 UNL     1      71.911  71.556 104.208  0.00  0.00    +0.000 C 
BRANCH  24  26
ATOM     26  O4  UNL     1      70.323  73.127 103.332  0.00  0.00    +0.000 OA
ATOM     27  H10 UNL     1      69.665  73.656 103.852  0.00  0.00    +0.000 HD
ENDBRANCH  24  26
ENDBRANCH  17  22
BRANCH   1  28
ATOM     28  N1  UNL     1      77.846  70.248 110.329  0.00  0.00    +0.000 N 
ATOM     29  H1  UNL     1      78.440  71.077 110.104  0.00  0.00    +0.000 HD
ATOM     30  H2  UNL     1      77.823  69.904 111.315  0.00  0.00    +0.000 HD
ENDBRANCH   1  28
BRANCH  11  31
ATOM     31  C8  UNL     1      72.261  65.565 111.122  0.00  0.00    +0.000 C 
ATOM     32  O2  UNL     1      72.756  65.751 112.267  0.00  0.00    +0.000 OA
BRANCH  31  33
ATOM     33  O1  UNL     1      71.639  64.349 110.850  0.00  0.00    +0.000 OA
ATOM     34  H5  UNL     1      71.277  64.145 109.925  0.00  0.00    +0.000 HD
ENDBRANCH  31  33
ENDBRANCH  11  31
TORSDOF 5
ENDMDL
MODEL 20
REMARK VINA RESULT:      -6.7     13.914     16.540
REMARK  Name = ./S1553.pdb
REMARK  5 active torsions:
REMARK  status: ('A' for Active; 'I' for Inactive)
REMARK    1  A    between atoms: N1_1  and  C1_2
REMARK    2  A    between atoms: C7_12  and  C8_13
REMARK    3  A    between atoms: C8_13  and  O1_14
REMARK    4  A    between atoms: C13_21  and  N4_22
REMARK    5  A    between atoms: C15_24  and  O4_25
REMARK                            x       y       z     vdW  Elec       q    Type
REMARK                         _______ _______ _______ _____ _____    ______ ____
ROOT
ATOM      1  C1  UNL     1      74.293  66.179 117.291  0.00  0.00    +0.000 A 
ATOM      2  C2  UNL     1      73.811  65.228 118.204  0.00  0.00    +0.000 A 
ATOM      3  F1  UNL     1      73.417  65.595 119.449  0.00  0.00    +0.000 F 
ATOM      4  C3  UNL     1      73.730  63.890 117.816  0.00  0.00    +0.000 A 
ATOM      5  C4  UNL     1      74.134  63.508 116.536  0.00  0.00    +0.000 A 
ATOM      6  F2  UNL     1      74.038  62.210 116.154  0.00  0.00    +0.000 F 
ATOM      7  C5  UNL     1      74.633  64.481 115.654  0.00  0.00    +0.000 A 
ATOM      8  N2  UNL     1      74.683  65.784 116.049  0.00  0.00    +0.000 NA
ATOM      9  N3  UNL     1      75.027  64.125 114.317  0.00  0.00    +0.000 N 
ATOM     10  C6  UNL     1      74.228  64.614 113.323  0.00  0.00    +0.000 A 
ATOM     11  C7  UNL     1      74.328  64.155 112.005  0.00  0.00    +0.000 A 
ATOM     12  C9  UNL     1      75.258  63.143 111.721  0.00  0.00    +0.000 A 
ATOM     13  O3  UNL     1      75.336  62.664 110.555  0.00  0.00    +0.000 OA
ATOM     14  C10 UNL     1      76.113  62.668 112.733  0.00  0.00    +0.000 A 
ATOM     15  C11 UNL     1      77.036  61.648 112.456  0.00  0.00    +0.000 A 
ATOM     16  C12 UNL     1      77.904  61.188 113.435  0.00  0.00    +0.000 A 
ATOM     17  C13 UNL     1      77.932  61.782 114.703  0.00  0.00    +0.000 A 
ATOM     18  C17 UNL     1      77.040  62.844 114.994  0.00  0.00    +0.000 A 
ATOM     19  C18 UNL     1      76.042  63.226 114.038  0.00  0.00    +0.000 A 
ATOM     20 CL1  UNL     1      77.351  63.814 116.441  0.00  0.00    +0.000 Cl
ATOM     21  F3  UNL     1      78.756  60.180 113.122  0.00  0.00    +0.000 F 
ENDROOT
BRANCH  17  22
ATOM     22  N4  UNL     1      78.875  61.290 115.676  0.00  0.00    +0.000 N 
ATOM     23  C14 UNL     1      80.163  61.750 116.237  0.00  0.00    +0.000 C 
ATOM     24  C15 UNL     1      80.415  60.545 117.082  0.00  0.00    +0.000 C 
ATOM     25  C16 UNL     1      79.111  60.095 116.514  0.00  0.00    +0.000 C 
BRANCH  24  26
ATOM     26  O4  UNL     1      81.487  59.773 116.614  0.00  0.00    +0.000 OA
ATOM     27  H10 UNL     1      81.576  59.993 115.651  0.00  0.00    +0.000 HD
ENDBRANCH  24  26
ENDBRANCH  17  22
BRANCH   1  28
ATOM     28  N1  UNL     1      74.378  67.559 117.651  0.00  0.00    +0.000 N 
ATOM     29  H1  UNL     1      75.285  68.068 117.565  0.00  0.00    +0.000 HD
ATOM     30  H2  UNL     1      73.545  68.080 118.004  0.00  0.00    +0.000 HD
ENDBRANCH   1  28
BRANCH  11  31
ATOM     31  C8  UNL     1      73.426  64.715 110.960  0.00  0.00    +0.000 C 
ATOM     32  O2  UNL     1      73.468  65.943 110.675  0.00  0.00    +0.000 OA
BRANCH  31  33
ATOM     33  O1  UNL     1      72.528  63.898 110.276  0.00  0.00    +0.000 OA
ATOM     34  H5  UNL     1      72.854  63.226 109.592  0.00  0.00    +0.000 HD
ENDBRANCH  31  33
ENDBRANCH  11  31
TORSDOF 5
ENDMDL
