MODEL 1
REMARK VINA RESULT:      -8.1      0.000      0.000
REMARK  Name = ./S1655.pdb
REMARK  8 active torsions:
REMARK  status: ('A' for Active; 'I' for Inactive)
REMARK    1  A    between atoms: O1_1  and  C1_2
REMARK    2  A    between atoms: C1_2  and  C2_3
REMARK    3  A    between atoms: C1_2  and  C19_24
REMARK    4  A    between atoms: C2_3  and  C3_4
REMARK    5  A    between atoms: C3_4  and  C4_5
REMARK    6  A    between atoms: C5_6  and  C13_17
REMARK    7  A    between atoms: N1_7  and  C7_10
REMARK    8  A    between atoms: C16_20  and  O3_21
REMARK                            x       y       z     vdW  Elec       q    Type
REMARK                         _______ _______ _______ _____ _____    ______ ____
ROOT
ATOM      1  C4  UNL     1      62.511  59.020 107.923  0.00  0.00    +0.000 C 
ATOM      2  C5  UNL     1      62.532  60.052 108.942  0.00  0.00    +0.000 C 
ATOM      3  N1  UNL     1      63.487  59.333 109.767  0.00  0.00    +0.000 N 
ATOM      4  C6  UNL     1      63.513  58.259 108.743  0.00  0.00    +0.000 C 
ATOM      5  O2  UNL     1      64.114  57.161 108.619  0.00  0.00    +0.000 OA
ENDROOT
BRANCH   3   6
ATOM      6  C7  UNL     1      64.140  59.570 111.018  0.00  0.00    +0.000 A 
ATOM      7  C8  UNL     1      65.508  59.885 111.052  0.00  0.00    +0.000 A 
ATOM      8  C9  UNL     1      66.145  60.124 112.274  0.00  0.00    +0.000 A 
ATOM      9  C10 UNL     1      65.422  60.048 113.468  0.00  0.00    +0.000 A 
ATOM     10  F1  UNL     1      66.041  60.280 114.652  0.00  0.00    +0.000 F 
ATOM     11  C11 UNL     1      64.060  59.733 113.441  0.00  0.00    +0.000 A 
ATOM     12  C12 UNL     1      63.420  59.495 112.220  0.00  0.00    +0.000 A 
ENDBRANCH   3   6
BRANCH   2  13
ATOM     13  C13 UNL     1      61.199  60.249 109.641  0.00  0.00    +0.000 A 
ATOM     14  C14 UNL     1      60.455  59.125 110.034  0.00  0.00    +0.000 A 
ATOM     15  C15 UNL     1      59.234  59.279 110.695  0.00  0.00    +0.000 A 
ATOM     16  C16 UNL     1      58.744  60.561 110.980  0.00  0.00    +0.000 A 
ATOM     17  C17 UNL     1      59.485  61.685 110.604  0.00  0.00    +0.000 A 
ATOM     18  C18 UNL     1      60.707  61.534 109.944  0.00  0.00    +0.000 A 
BRANCH  16  19
ATOM     19  O3  UNL     1      57.528  60.726 111.638  0.00  0.00    +0.000 OA
ATOM     20  H15 UNL     1      56.726  60.145 111.423  0.00  0.00    +0.000 HD
ENDBRANCH  16  19
ENDBRANCH   2  13
BRANCH   1  21
ATOM     21  C3  UNL     1      63.072  59.483 106.562  0.00  0.00    +0.000 C 
BRANCH  21  22
ATOM     22  C2  UNL     1      62.566  58.634 105.381  0.00  0.00    +0.000 C 
BRANCH  22  23
ATOM     23  C1  UNL     1      62.011  59.476 104.217  0.00  0.00    +0.000 C 
BRANCH  23  24
ATOM     24  C19 UNL     1      62.945  59.387 103.029  0.00  0.00    +0.000 A 
ATOM     25  C20 UNL     1      63.061  60.460 102.125  0.00  0.00    +0.000 A 
ATOM     26  C21 UNL     1      63.949  60.382 101.049  0.00  0.00    +0.000 A 
ATOM     27  C22 UNL     1      64.737  59.241 100.870  0.00  0.00    +0.000 A 
ATOM     28  F2  UNL     1      65.598  59.168  99.826  0.00  0.00    +0.000 F 
ATOM     29  C23 UNL     1      64.640  58.177 101.771  0.00  0.00    +0.000 A 
ATOM     30  C24 UNL     1      63.753  58.251 102.850  0.00  0.00    +0.000 A 
ENDBRANCH  23  24
BRANCH  23  31
ATOM     31  O1  UNL     1      61.869  60.814 104.623  0.00  0.00    +0.000 OA
ATOM     32  H1  UNL     1      62.585  60.989 105.288  0.00  0.00    +0.000 HD
ENDBRANCH  23  31
ENDBRANCH  22  23
ENDBRANCH  21  22
ENDBRANCH   1  21
TORSDOF 8
ENDMDL
MODEL 2
REMARK VINA RESULT:      -7.8      2.642      4.726
REMARK  Name = ./S1655.pdb
REMARK  8 active torsions:
REMARK  status: ('A' for Active; 'I' for Inactive)
REMARK    1  A    between atoms: O1_1  and  C1_2
REMARK    2  A    between atoms: C1_2  and  C2_3
REMARK    3  A    between atoms: C1_2  and  C19_24
REMARK    4  A    between atoms: C2_3  and  C3_4
REMARK    5  A    between atoms: C3_4  and  C4_5
REMARK    6  A    between atoms: C5_6  and  C13_17
REMARK    7  A    between atoms: N1_7  and  C7_10
REMARK    8  A    between atoms: C16_20  and  O3_21
REMARK                            x       y       z     vdW  Elec       q    Type
REMARK                         _______ _______ _______ _____ _____    ______ ____
ROOT
ATOM      1  C4  UNL     1      62.875  58.806 108.851  0.00  0.00    +0.000 C 
ATOM      2  C5  UNL     1      62.262  59.086 110.135  0.00  0.00    +0.000 C 
ATOM      3  N1  UNL     1      61.561  60.256 109.638  0.00  0.00    +0.000 N 
ATOM      4  C6  UNL     1      62.150  59.999 108.300  0.00  0.00    +0.000 C 
ATOM      5  O2  UNL     1      62.080  60.558 107.175  0.00  0.00    +0.000 OA
ENDROOT
BRANCH   3   6
ATOM      6  C7  UNL     1      60.667  61.226 110.194  0.00  0.00    +0.000 A 
ATOM      7  C8  UNL     1      59.382  60.845 110.611  0.00  0.00    +0.000 A 
ATOM      8  C9  UNL     1      58.511  61.791 111.162  0.00  0.00    +0.000 A 
ATOM      9  C10 UNL     1      58.917  63.122 111.297  0.00  0.00    +0.000 A 
ATOM     10  F1  UNL     1      58.071  64.038 111.830  0.00  0.00    +0.000 F 
ATOM     11  C11 UNL     1      60.195  63.508 110.882  0.00  0.00    +0.000 A 
ATOM     12  C12 UNL     1      61.069  62.563 110.332  0.00  0.00    +0.000 A 
ENDBRANCH   3   6
BRANCH   2  13
ATOM     13  C13 UNL     1      63.260  59.431 111.227  0.00  0.00    +0.000 A 
ATOM     14  C14 UNL     1      62.862  59.356 112.571  0.00  0.00    +0.000 A 
ATOM     15  C15 UNL     1      63.766  59.650 113.595  0.00  0.00    +0.000 A 
ATOM     16  C16 UNL     1      65.083  60.014 113.288  0.00  0.00    +0.000 A 
ATOM     17  C17 UNL     1      65.491  60.078 111.953  0.00  0.00    +0.000 A 
ATOM     18  C18 UNL     1      64.590  59.784 110.927  0.00  0.00    +0.000 A 
BRANCH  16  19
ATOM     19  O3  UNL     1      65.993  60.311 114.300  0.00  0.00    +0.000 OA
ATOM     20  H15 UNL     1      66.966  60.508 114.097  0.00  0.00    +0.000 HD
ENDBRANCH  16  19
ENDBRANCH   2  13
BRANCH   1  21
ATOM     21  C3  UNL     1      62.412  57.476 108.221  0.00  0.00    +0.000 C 
BRANCH  21  22
ATOM     22  C2  UNL     1      62.876  57.305 106.762  0.00  0.00    +0.000 C 
BRANCH  22  23
ATOM     23  C1  UNL     1      61.713  57.149 105.765  0.00  0.00    +0.000 C 
BRANCH  23  24
ATOM     24  C19 UNL     1      61.953  58.027 104.556  0.00  0.00    +0.000 A 
ATOM     25  C20 UNL     1      63.099  58.840 104.474  0.00  0.00    +0.000 A 
ATOM     26  C21 UNL     1      63.328  59.623 103.339  0.00  0.00    +0.000 A 
ATOM     27  C22 UNL     1      62.425  59.595 102.273  0.00  0.00    +0.000 A 
ATOM     28  F2  UNL     1      62.651  60.355 101.173  0.00  0.00    +0.000 F 
ATOM     29  C23 UNL     1      61.293  58.779 102.338  0.00  0.00    +0.000 A 
ATOM     30  C24 UNL     1      61.059  57.993 103.471  0.00  0.00    +0.000 A 
ENDBRANCH  23  24
BRANCH  23  31
ATOM     31  O1  UNL     1      60.503  57.501 106.387  0.00  0.00    +0.000 OA
ATOM     32  H1  UNL     1      60.720  58.191 107.067  0.00  0.00    +0.000 HD
ENDBRANCH  23  31
ENDBRANCH  22  23
ENDBRANCH  21  22
ENDBRANCH   1  21
TORSDOF 8
ENDMDL
MODEL 3
REMARK VINA RESULT:      -7.7      3.496      8.500
REMARK  Name = ./S1655.pdb
REMARK  8 active torsions:
REMARK  status: ('A' for Active; 'I' for Inactive)
REMARK    1  A    between atoms: O1_1  and  C1_2
REMARK    2  A    between atoms: C1_2  and  C2_3
REMARK    3  A    between atoms: C1_2  and  C19_24
REMARK    4  A    between atoms: C2_3  and  C3_4
REMARK    5  A    between atoms: C3_4  and  C4_5
REMARK    6  A    between atoms: C5_6  and  C13_17
REMARK    7  A    between atoms: N1_7  and  C7_10
REMARK    8  A    between atoms: C16_20  and  O3_21
REMARK                            x       y       z     vdW  Elec       q    Type
REMARK                         _______ _______ _______ _____ _____    ______ ____
ROOT
ATOM      1  C4  UNL     1      60.192  56.315 105.625  0.00  0.00    +0.000 C 
ATOM      2  C5  UNL     1      61.544  56.656 105.225  0.00  0.00    +0.000 C 
ATOM      3  N1  UNL     1      61.097  57.652 104.268  0.00  0.00    +0.000 N 
ATOM      4  C6  UNL     1      59.697  57.352 104.659  0.00  0.00    +0.000 C 
ATOM      5  O2  UNL     1      58.565  57.779 104.313  0.00  0.00    +0.000 OA
ENDROOT
BRANCH   3   6
ATOM      6  C7  UNL     1      61.734  58.555 103.357  0.00  0.00    +0.000 A 
ATOM      7  C8  UNL     1      62.492  59.632 103.844  0.00  0.00    +0.000 A 
ATOM      8  C9  UNL     1      63.121  60.508 102.955  0.00  0.00    +0.000 A 
ATOM      9  C10 UNL     1      62.996  60.317 101.575  0.00  0.00    +0.000 A 
ATOM     10  F1  UNL     1      63.606  61.168 100.715  0.00  0.00    +0.000 F 
ATOM     11  C11 UNL     1      62.242  59.247 101.085  0.00  0.00    +0.000 A 
ATOM     12  C12 UNL     1      61.612  58.367 101.972  0.00  0.00    +0.000 A 
ENDBRANCH   3   6
BRANCH   2  13
ATOM     13  C13 UNL     1      62.291  55.513 104.561  0.00  0.00    +0.000 A 
ATOM     14  C14 UNL     1      61.598  54.338 104.231  0.00  0.00    +0.000 A 
ATOM     15  C15 UNL     1      62.258  53.278 103.603  0.00  0.00    +0.000 A 
ATOM     16  C16 UNL     1      63.619  53.384 103.289  0.00  0.00    +0.000 A 
ATOM     17  C17 UNL     1      64.314  54.556 103.602  0.00  0.00    +0.000 A 
ATOM     18  C18 UNL     1      63.656  55.618 104.229  0.00  0.00    +0.000 A 
BRANCH  16  19
ATOM     19  O3  UNL     1      64.288  52.334 102.664  0.00  0.00    +0.000 OA
ATOM     20  H15 UNL     1      64.237  51.386 103.021  0.00  0.00    +0.000 HD
ENDBRANCH  16  19
ENDBRANCH   2  13
BRANCH   1  21
ATOM     21  C3  UNL     1      59.876  56.663 107.095  0.00  0.00    +0.000 C 
BRANCH  21  22
ATOM     22  C2  UNL     1      61.084  56.476 108.032  0.00  0.00    +0.000 C 
BRANCH  22  23
ATOM     23  C1  UNL     1      61.408  57.728 108.869  0.00  0.00    +0.000 C 
BRANCH  23  24
ATOM     24  C19 UNL     1      62.820  58.189 108.577  0.00  0.00    +0.000 A 
ATOM     25  C20 UNL     1      63.911  57.659 109.292  0.00  0.00    +0.000 A 
ATOM     26  C21 UNL     1      65.214  58.067 108.995  0.00  0.00    +0.000 A 
ATOM     27  C22 UNL     1      65.443  58.997 107.977  0.00  0.00    +0.000 A 
ATOM     28  F2  UNL     1      66.708  59.390 107.690  0.00  0.00    +0.000 F 
ATOM     29  C23 UNL     1      64.368  59.517 107.251  0.00  0.00    +0.000 A 
ATOM     30  C24 UNL     1      63.062  59.111 107.545  0.00  0.00    +0.000 A 
ENDBRANCH  23  24
BRANCH  23  31
ATOM     31  O1  UNL     1      61.266  57.436 110.236  0.00  0.00    +0.000 OA
ATOM     32  H1  UNL     1      62.116  57.701 110.675  0.00  0.00    +0.000 HD
ENDBRANCH  23  31
ENDBRANCH  22  23
ENDBRANCH  21  22
ENDBRANCH   1  21
TORSDOF 8
ENDMDL
MODEL 4
REMARK VINA RESULT:      -7.7     11.497     14.014
REMARK  Name = ./S1655.pdb
REMARK  8 active torsions:
REMARK  status: ('A' for Active; 'I' for Inactive)
REMARK    1  A    between atoms: O1_1  and  C1_2
REMARK    2  A    between atoms: C1_2  and  C2_3
REMARK    3  A    between atoms: C1_2  and  C19_24
REMARK    4  A    between atoms: C2_3  and  C3_4
REMARK    5  A    between atoms: C3_4  and  C4_5
REMARK    6  A    between atoms: C5_6  and  C13_17
REMARK    7  A    between atoms: N1_7  and  C7_10
REMARK    8  A    between atoms: C16_20  and  O3_21
REMARK                            x       y       z     vdW  Elec       q    Type
REMARK                         _______ _______ _______ _____ _____    ______ ____
ROOT
ATOM      1  C4  UNL     1      72.382  65.696 110.743  0.00  0.00    +0.000 C 
ATOM      2  C5  UNL     1      73.597  65.448 109.990  0.00  0.00    +0.000 C 
ATOM      3  N1  UNL     1      74.070  64.446 110.927  0.00  0.00    +0.000 N 
ATOM      4  C6  UNL     1      72.834  64.651 111.721  0.00  0.00    +0.000 C 
ATOM      5  O2  UNL     1      72.365  64.162 112.781  0.00  0.00    +0.000 OA
ENDROOT
BRANCH   3   6
ATOM      6  C7  UNL     1      75.223  63.603 111.028  0.00  0.00    +0.000 A 
ATOM      7  C8  UNL     1      75.339  62.464 110.215  0.00  0.00    +0.000 A 
ATOM      8  C9  UNL     1      76.469  61.645 110.309  0.00  0.00    +0.000 A 
ATOM      9  C10 UNL     1      77.488  61.957 111.214  0.00  0.00    +0.000 A 
ATOM     10  F1  UNL     1      78.583  61.162 111.303  0.00  0.00    +0.000 F 
ATOM     11  C11 UNL     1      77.377  63.089 112.027  0.00  0.00    +0.000 A 
ATOM     12  C12 UNL     1      76.249  63.911 111.935  0.00  0.00    +0.000 A 
ENDBRANCH   3   6
BRANCH   2  13
ATOM     13  C13 UNL     1      74.524  66.648 109.911  0.00  0.00    +0.000 A 
ATOM     14  C14 UNL     1      74.254  67.779 110.699  0.00  0.00    +0.000 A 
ATOM     15  C15 UNL     1      75.101  68.889 110.658  0.00  0.00    +0.000 A 
ATOM     16  C16 UNL     1      76.235  68.880 109.836  0.00  0.00    +0.000 A 
ATOM     17  C17 UNL     1      76.519  67.753 109.059  0.00  0.00    +0.000 A 
ATOM     18  C18 UNL     1      75.673  66.641 109.098  0.00  0.00    +0.000 A 
BRANCH  16  19
ATOM     19  O3  UNL     1      77.087  69.981 109.787  0.00  0.00    +0.000 OA
ATOM     20  H15 UNL     1      77.879  70.067 110.414  0.00  0.00    +0.000 HD
ENDBRANCH  16  19
ENDBRANCH   2  13
BRANCH   1  21
ATOM     21  C3  UNL     1      71.095  65.301 109.989  0.00  0.00    +0.000 C 
BRANCH  21  22
ATOM     22  C2  UNL     1      71.325  65.069 108.484  0.00  0.00    +0.000 C 
BRANCH  22  23
ATOM     23  C1  UNL     1      70.736  66.181 107.597  0.00  0.00    +0.000 C 
BRANCH  23  24
ATOM     24  C19 UNL     1      71.763  67.275 107.396  0.00  0.00    +0.000 A 
ATOM     25  C20 UNL     1      71.659  68.494 108.093  0.00  0.00    +0.000 A 
ATOM     26  C21 UNL     1      72.629  69.487 107.925  0.00  0.00    +0.000 A 
ATOM     27  C22 UNL     1      73.715  69.270 107.072  0.00  0.00    +0.000 A 
ATOM     28  F2  UNL     1      74.655  70.233 106.912  0.00  0.00    +0.000 F 
ATOM     29  C23 UNL     1      73.835  68.057 106.389  0.00  0.00    +0.000 A 
ATOM     30  C24 UNL     1      72.867  67.061 106.553  0.00  0.00    +0.000 A 
ENDBRANCH  23  24
BRANCH  23  31
ATOM     31  O1  UNL     1      69.579  66.706 108.198  0.00  0.00    +0.000 OA
ATOM     32  H1  UNL     1      68.841  66.073 108.001  0.00  0.00    +0.000 HD
ENDBRANCH  23  31
ENDBRANCH  22  23
ENDBRANCH  21  22
ENDBRANCH   1  21
TORSDOF 8
ENDMDL
MODEL 5
REMARK VINA RESULT:      -7.6      2.831      9.031
REMARK  Name = ./S1655.pdb
REMARK  8 active torsions:
REMARK  status: ('A' for Active; 'I' for Inactive)
REMARK    1  A    between atoms: O1_1  and  C1_2
REMARK    2  A    between atoms: C1_2  and  C2_3
REMARK    3  A    between atoms: C1_2  and  C19_24
REMARK    4  A    between atoms: C2_3  and  C3_4
REMARK    5  A    between atoms: C3_4  and  C4_5
REMARK    6  A    between atoms: C5_6  and  C13_17
REMARK    7  A    between atoms: N1_7  and  C7_10
REMARK    8  A    between atoms: C16_20  and  O3_21
REMARK                            x       y       z     vdW  Elec       q    Type
REMARK                         _______ _______ _______ _____ _____    ______ ____
ROOT
ATOM      1  C4  UNL     1      62.514  58.080 107.701  0.00  0.00    +0.000 C 
ATOM      2  C5  UNL     1      62.583  57.341 106.455  0.00  0.00    +0.000 C 
ATOM      3  N1  UNL     1      62.362  58.527 105.646  0.00  0.00    +0.000 N 
ATOM      4  C6  UNL     1      62.303  59.327 106.894  0.00  0.00    +0.000 C 
ATOM      5  O2  UNL     1      62.133  60.544 107.163  0.00  0.00    +0.000 OA
ENDROOT
BRANCH   3   6
ATOM      6  C7  UNL     1      62.267  58.806 104.245  0.00  0.00    +0.000 A 
ATOM      7  C8  UNL     1      61.213  58.270 103.487  0.00  0.00    +0.000 A 
ATOM      8  C9  UNL     1      61.116  58.549 102.121  0.00  0.00    +0.000 A 
ATOM      9  C10 UNL     1      62.070  59.363 101.502  0.00  0.00    +0.000 A 
ATOM     10  F1  UNL     1      61.974  59.632 100.177  0.00  0.00    +0.000 F 
ATOM     11  C11 UNL     1      63.122  59.898 102.250  0.00  0.00    +0.000 A 
ATOM     12  C12 UNL     1      63.221  59.622 103.618  0.00  0.00    +0.000 A 
ENDBRANCH   3   6
BRANCH   2  13
ATOM     13  C13 UNL     1      61.477  56.315 106.290  0.00  0.00    +0.000 A 
ATOM     14  C14 UNL     1      60.406  56.306 107.198  0.00  0.00    +0.000 A 
ATOM     15  C15 UNL     1      59.366  55.384 107.058  0.00  0.00    +0.000 A 
ATOM     16  C16 UNL     1      59.377  54.464 106.001  0.00  0.00    +0.000 A 
ATOM     17  C17 UNL     1      60.432  54.476 105.084  0.00  0.00    +0.000 A 
ATOM     18  C18 UNL     1      61.474  55.397 105.222  0.00  0.00    +0.000 A 
BRANCH  16  19
ATOM     19  O3  UNL     1      58.346  53.540 105.852  0.00  0.00    +0.000 OA
ATOM     20  H15 UNL     1      58.421  52.599 106.221  0.00  0.00    +0.000 HD
ENDBRANCH  16  19
ENDBRANCH   2  13
BRANCH   1  21
ATOM     21  C3  UNL     1      63.842  58.089 108.489  0.00  0.00    +0.000 C 
BRANCH  21  22
ATOM     22  C2  UNL     1      63.644  58.295 110.002  0.00  0.00    +0.000 C 
BRANCH  22  23
ATOM     23  C1  UNL     1      63.942  59.731 110.468  0.00  0.00    +0.000 C 
BRANCH  23  24
ATOM     24  C19 UNL     1      64.165  59.749 111.966  0.00  0.00    +0.000 A 
ATOM     25  C20 UNL     1      65.450  59.964 112.498  0.00  0.00    +0.000 A 
ATOM     26  C21 UNL     1      65.642  60.010 113.881  0.00  0.00    +0.000 A 
ATOM     27  C22 UNL     1      64.555  59.855 114.746  0.00  0.00    +0.000 A 
ATOM     28  F2  UNL     1      64.743  59.901 116.088  0.00  0.00    +0.000 F 
ATOM     29  C23 UNL     1      63.272  59.657 114.227  0.00  0.00    +0.000 A 
ATOM     30  C24 UNL     1      63.076  59.610 112.843  0.00  0.00    +0.000 A 
ENDBRANCH  23  24
BRANCH  23  31
ATOM     31  O1  UNL     1      62.870  60.574 110.128  0.00  0.00    +0.000 OA
ATOM     32  H1  UNL     1      62.894  60.683 109.141  0.00  0.00    +0.000 HD
ENDBRANCH  23  31
ENDBRANCH  22  23
ENDBRANCH  21  22
ENDBRANCH   1  21
TORSDOF 8
ENDMDL
MODEL 6
REMARK VINA RESULT:      -7.6      2.508      3.581
REMARK  Name = ./S1655.pdb
REMARK  8 active torsions:
REMARK  status: ('A' for Active; 'I' for Inactive)
REMARK    1  A    between atoms: O1_1  and  C1_2
REMARK    2  A    between atoms: C1_2  and  C2_3
REMARK    3  A    between atoms: C1_2  and  C19_24
REMARK    4  A    between atoms: C2_3  and  C3_4
REMARK    5  A    between atoms: C3_4  and  C4_5
REMARK    6  A    between atoms: C5_6  and  C13_17
REMARK    7  A    between atoms: N1_7  and  C7_10
REMARK    8  A    between atoms: C16_20  and  O3_21
REMARK                            x       y       z     vdW  Elec       q    Type
REMARK                         _______ _______ _______ _____ _____    ______ ____
ROOT
ATOM      1  C4  UNL     1      63.379  59.205 106.367  0.00  0.00    +0.000 C 
ATOM      2  C5  UNL     1      62.127  59.204 107.100  0.00  0.00    +0.000 C 
ATOM      3  N1  UNL     1      62.725  59.788 108.286  0.00  0.00    +0.000 N 
ATOM      4  C6  UNL     1      64.025  59.828 107.571  0.00  0.00    +0.000 C 
ATOM      5  O2  UNL     1      65.188  60.211 107.858  0.00  0.00    +0.000 OA
ENDROOT
BRANCH   3   6
ATOM      6  C7  UNL     1      62.258  60.180 109.581  0.00  0.00    +0.000 A 
ATOM      7  C8  UNL     1      62.862  59.661 110.738  0.00  0.00    +0.000 A 
ATOM      8  C9  UNL     1      62.410  60.050 112.002  0.00  0.00    +0.000 A 
ATOM      9  C10 UNL     1      61.352  60.957 112.121  0.00  0.00    +0.000 A 
ATOM     10  F1  UNL     1      60.916  61.332 113.348  0.00  0.00    +0.000 F 
ATOM     11  C11 UNL     1      60.746  61.475 110.973  0.00  0.00    +0.000 A 
ATOM     12  C12 UNL     1      61.196  61.089 109.706  0.00  0.00    +0.000 A 
ENDBRANCH   3   6
BRANCH   2  13
ATOM     13  C13 UNL     1      61.571  57.815 107.358  0.00  0.00    +0.000 A 
ATOM     14  C14 UNL     1      60.773  57.200 106.379  0.00  0.00    +0.000 A 
ATOM     15  C15 UNL     1      60.264  55.915 106.584  0.00  0.00    +0.000 A 
ATOM     16  C16 UNL     1      60.555  55.223 107.767  0.00  0.00    +0.000 A 
ATOM     17  C17 UNL     1      61.360  55.822 108.740  0.00  0.00    +0.000 A 
ATOM     18  C18 UNL     1      61.871  57.107 108.537  0.00  0.00    +0.000 A 
BRANCH  16  19
ATOM     19  O3  UNL     1      60.053  53.942 107.982  0.00  0.00    +0.000 OA
ATOM     20  H15 UNL     1      59.058  53.750 107.950  0.00  0.00    +0.000 HD
ENDBRANCH  16  19
ENDBRANCH   2  13
BRANCH   1  21
ATOM     21  C3  UNL     1      63.374  60.136 105.136  0.00  0.00    +0.000 C 
BRANCH  21  22
ATOM     22  C2  UNL     1      62.074  60.045 104.316  0.00  0.00    +0.000 C 
BRANCH  22  23
ATOM     23  C1  UNL     1      62.063  58.875 103.316  0.00  0.00    +0.000 C 
BRANCH  23  24
ATOM     24  C19 UNL     1      63.179  59.051 102.309  0.00  0.00    +0.000 A 
ATOM     25  C20 UNL     1      63.272  60.223 101.535  0.00  0.00    +0.000 A 
ATOM     26  C21 UNL     1      64.324  60.390 100.630  0.00  0.00    +0.000 A 
ATOM     27  C22 UNL     1      65.299  59.397 100.497  0.00  0.00    +0.000 A 
ATOM     28  F2  UNL     1      66.319  59.562  99.620  0.00  0.00    +0.000 F 
ATOM     29  C23 UNL     1      65.224  58.237 101.272  0.00  0.00    +0.000 A 
ATOM     30  C24 UNL     1      64.173  58.065 102.179  0.00  0.00    +0.000 A 
ENDBRANCH  23  24
BRANCH  23  31
ATOM     31  O1  UNL     1      60.822  58.823 102.659  0.00  0.00    +0.000 OA
ATOM     32  H1  UNL     1      60.431  57.932 102.856  0.00  0.00    +0.000 HD
ENDBRANCH  23  31
ENDBRANCH  22  23
ENDBRANCH  21  22
ENDBRANCH   1  21
TORSDOF 8
ENDMDL
MODEL 7
REMARK VINA RESULT:      -7.6      3.169      8.896
REMARK  Name = ./S1655.pdb
REMARK  8 active torsions:
REMARK  status: ('A' for Active; 'I' for Inactive)
REMARK    1  A    between atoms: O1_1  and  C1_2
REMARK    2  A    between atoms: C1_2  and  C2_3
REMARK    3  A    between atoms: C1_2  and  C19_24
REMARK    4  A    between atoms: C2_3  and  C3_4
REMARK    5  A    between atoms: C3_4  and  C4_5
REMARK    6  A    between atoms: C5_6  and  C13_17
REMARK    7  A    between atoms: N1_7  and  C7_10
REMARK    8  A    between atoms: C16_20  and  O3_21
REMARK                            x       y       z     vdW  Elec       q    Type
REMARK                         _______ _______ _______ _____ _____    ______ ____
ROOT
ATOM      1  C4  UNL     1      62.734  58.707 106.178  0.00  0.00    +0.000 C 
ATOM      2  C5  UNL     1      62.593  57.625 105.222  0.00  0.00    +0.000 C 
ATOM      3  N1  UNL     1      62.055  58.496 104.193  0.00  0.00    +0.000 N 
ATOM      4  C6  UNL     1      62.199  59.638 105.129  0.00  0.00    +0.000 C 
ATOM      5  O2  UNL     1      61.958  60.871 105.072  0.00  0.00    +0.000 OA
ENDROOT
BRANCH   3   6
ATOM      6  C7  UNL     1      61.604  58.328 102.844  0.00  0.00    +0.000 A 
ATOM      7  C8  UNL     1      60.296  57.885 102.587  0.00  0.00    +0.000 A 
ATOM      8  C9  UNL     1      59.853  57.729 101.270  0.00  0.00    +0.000 A 
ATOM      9  C10 UNL     1      60.712  58.011 100.203  0.00  0.00    +0.000 A 
ATOM     10  F1  UNL     1      60.280  57.858  98.927  0.00  0.00    +0.000 F 
ATOM     11  C11 UNL     1      62.015  58.451 100.453  0.00  0.00    +0.000 A 
ATOM     12  C12 UNL     1      62.461  58.609 101.770  0.00  0.00    +0.000 A 
ENDBRANCH   3   6
BRANCH   2  13
ATOM     13  C13 UNL     1      61.603  56.557 105.650  0.00  0.00    +0.000 A 
ATOM     14  C14 UNL     1      60.765  56.796 106.751  0.00  0.00    +0.000 A 
ATOM     15  C15 UNL     1      59.833  55.837 107.153  0.00  0.00    +0.000 A 
ATOM     16  C16 UNL     1      59.720  54.628 106.455  0.00  0.00    +0.000 A 
ATOM     17  C17 UNL     1      60.541  54.386 105.350  0.00  0.00    +0.000 A 
ATOM     18  C18 UNL     1      61.474  55.345 104.944  0.00  0.00    +0.000 A 
BRANCH  16  19
ATOM     19  O3  UNL     1      58.795  53.663 106.848  0.00  0.00    +0.000 OA
ATOM     20  H15 UNL     1      58.292  53.104 106.168  0.00  0.00    +0.000 HD
ENDBRANCH  16  19
ENDBRANCH   2  13
BRANCH   1  21
ATOM     21  C3  UNL     1      64.199  59.009 106.561  0.00  0.00    +0.000 C 
BRANCH  21  22
ATOM     22  C2  UNL     1      64.433  59.026 108.083  0.00  0.00    +0.000 C 
BRANCH  22  23
ATOM     23  C1  UNL     1      63.390  58.213 108.871  0.00  0.00    +0.000 C 
BRANCH  23  24
ATOM     24  C19 UNL     1      62.689  59.110 109.869  0.00  0.00    +0.000 A 
ATOM     25  C20 UNL     1      63.002  59.041 111.240  0.00  0.00    +0.000 A 
ATOM     26  C21 UNL     1      62.372  59.895 112.150  0.00  0.00    +0.000 A 
ATOM     27  C22 UNL     1      61.436  60.831 111.703  0.00  0.00    +0.000 A 
ATOM     28  F2  UNL     1      60.827  61.658 112.588  0.00  0.00    +0.000 F 
ATOM     29  C23 UNL     1      61.130  60.917 110.342  0.00  0.00    +0.000 A 
ATOM     30  C24 UNL     1      61.758  60.065 109.427  0.00  0.00    +0.000 A 
ENDBRANCH  23  24
BRANCH  23  31
ATOM     31  O1  UNL     1      64.020  57.148 109.536  0.00  0.00    +0.000 OA
ATOM     32  H1  UNL     1      64.841  57.517 109.955  0.00  0.00    +0.000 HD
ENDBRANCH  23  31
ENDBRANCH  22  23
ENDBRANCH  21  22
ENDBRANCH   1  21
TORSDOF 8
ENDMDL
MODEL 8
REMARK VINA RESULT:      -7.6      3.018      4.214
REMARK  Name = ./S1655.pdb
REMARK  8 active torsions:
REMARK  status: ('A' for Active; 'I' for Inactive)
REMARK    1  A    between atoms: O1_1  and  C1_2
REMARK    2  A    between atoms: C1_2  and  C2_3
REMARK    3  A    between atoms: C1_2  and  C19_24
REMARK    4  A    between atoms: C2_3  and  C3_4
REMARK    5  A    between atoms: C3_4  and  C4_5
REMARK    6  A    between atoms: C5_6  and  C13_17
REMARK    7  A    between atoms: N1_7  and  C7_10
REMARK    8  A    between atoms: C16_20  and  O3_21
REMARK                            x       y       z     vdW  Elec       q    Type
REMARK                         _______ _______ _______ _____ _____    ______ ____
ROOT
ATOM      1  C4  UNL     1      63.398  59.244 106.262  0.00  0.00    +0.000 C 
ATOM      2  C5  UNL     1      62.140  59.247 106.984  0.00  0.00    +0.000 C 
ATOM      3  N1  UNL     1      62.727  59.844 108.170  0.00  0.00    +0.000 N 
ATOM      4  C6  UNL     1      64.032  59.880 107.464  0.00  0.00    +0.000 C 
ATOM      5  O2  UNL     1      65.192  60.270 107.757  0.00  0.00    +0.000 OA
ENDROOT
BRANCH   3   6
ATOM      6  C7  UNL     1      62.248  60.249 109.457  0.00  0.00    +0.000 A 
ATOM      7  C8  UNL     1      62.835  59.732 110.623  0.00  0.00    +0.000 A 
ATOM      8  C9  UNL     1      62.372  60.133 111.880  0.00  0.00    +0.000 A 
ATOM      9  C10 UNL     1      61.320  61.049 111.981  0.00  0.00    +0.000 A 
ATOM     10  F1  UNL     1      60.873  61.436 113.201  0.00  0.00    +0.000 F 
ATOM     11  C11 UNL     1      60.731  61.565 110.823  0.00  0.00    +0.000 A 
ATOM     12  C12 UNL     1      61.193  61.167 109.564  0.00  0.00    +0.000 A 
ENDBRANCH   3   6
BRANCH   2  13
ATOM     13  C13 UNL     1      61.585  57.859 107.252  0.00  0.00    +0.000 A 
ATOM     14  C14 UNL     1      60.865  57.199 106.243  0.00  0.00    +0.000 A 
ATOM     15  C15 UNL     1      60.360  55.915 106.458  0.00  0.00    +0.000 A 
ATOM     16  C16 UNL     1      60.577  55.267 107.681  0.00  0.00    +0.000 A 
ATOM     17  C17 UNL     1      61.305  55.911 108.686  0.00  0.00    +0.000 A 
ATOM     18  C18 UNL     1      61.812  57.196 108.474  0.00  0.00    +0.000 A 
BRANCH  16  19
ATOM     19  O3  UNL     1      60.078  53.987 107.907  0.00  0.00    +0.000 OA
ATOM     20  H15 UNL     1      59.175  53.840 108.345  0.00  0.00    +0.000 HD
ENDBRANCH  16  19
ENDBRANCH   2  13
BRANCH   1  21
ATOM     21  C3  UNL     1      63.401  60.162 105.022  0.00  0.00    +0.000 C 
BRANCH  21  22
ATOM     22  C2  UNL     1      62.232  59.879 104.059  0.00  0.00    +0.000 C 
BRANCH  22  23
ATOM     23  C1  UNL     1      62.657  59.831 102.580  0.00  0.00    +0.000 C 
BRANCH  23  24
ATOM     24  C19 UNL     1      61.666  59.005 101.788  0.00  0.00    +0.000 A 
ATOM     25  C20 UNL     1      61.794  58.872 100.393  0.00  0.00    +0.000 A 
ATOM     26  C21 UNL     1      60.893  58.081  99.674  0.00  0.00    +0.000 A 
ATOM     27  C22 UNL     1      59.865  57.407 100.339  0.00  0.00    +0.000 A 
ATOM     28  F2  UNL     1      58.993  56.640  99.640  0.00  0.00    +0.000 F 
ATOM     29  C23 UNL     1      59.739  57.521 101.727  0.00  0.00    +0.000 A 
ATOM     30  C24 UNL     1      60.638  58.310 102.450  0.00  0.00    +0.000 A 
ENDBRANCH  23  24
BRANCH  23  31
ATOM     31  O1  UNL     1      63.944  59.279 102.472  0.00  0.00    +0.000 OA
ATOM     32  H1  UNL     1      64.150  59.218 101.503  0.00  0.00    +0.000 HD
ENDBRANCH  23  31
ENDBRANCH  22  23
ENDBRANCH  21  22
ENDBRANCH   1  21
TORSDOF 8
ENDMDL
MODEL 9
REMARK VINA RESULT:      -7.5     11.522     13.889
REMARK  Name = ./S1655.pdb
REMARK  8 active torsions:
REMARK  status: ('A' for Active; 'I' for Inactive)
REMARK    1  A    between atoms: O1_1  and  C1_2
REMARK    2  A    between atoms: C1_2  and  C2_3
REMARK    3  A    between atoms: C1_2  and  C19_24
REMARK    4  A    between atoms: C2_3  and  C3_4
REMARK    5  A    between atoms: C3_4  and  C4_5
REMARK    6  A    between atoms: C5_6  and  C13_17
REMARK    7  A    between atoms: N1_7  and  C7_10
REMARK    8  A    between atoms: C16_20  and  O3_21
REMARK                            x       y       z     vdW  Elec       q    Type
REMARK                         _______ _______ _______ _____ _____    ______ ____
ROOT
ATOM      1  C4  UNL     1      71.478  66.609 109.492  0.00  0.00    +0.000 C 
ATOM      2  C5  UNL     1      72.697  66.184 108.829  0.00  0.00    +0.000 C 
ATOM      3  N1  UNL     1      72.656  64.861 109.425  0.00  0.00    +0.000 N 
ATOM      4  C6  UNL     1      71.396  65.244 110.110  0.00  0.00    +0.000 C 
ATOM      5  O2  UNL     1      70.599  64.667 110.894  0.00  0.00    +0.000 OA
ENDROOT
BRANCH   3   6
ATOM      6  C7  UNL     1      73.469  63.684 109.360  0.00  0.00    +0.000 A 
ATOM      7  C8  UNL     1      74.482  63.472 110.309  0.00  0.00    +0.000 A 
ATOM      8  C9  UNL     1      75.271  62.319 110.250  0.00  0.00    +0.000 A 
ATOM      9  C10 UNL     1      75.054  61.372 109.244  0.00  0.00    +0.000 A 
ATOM     10  F1  UNL     1      75.820  60.255 109.189  0.00  0.00    +0.000 F 
ATOM     11  C11 UNL     1      74.048  61.578 108.297  0.00  0.00    +0.000 A 
ATOM     12  C12 UNL     1      73.256  62.730 108.353  0.00  0.00    +0.000 A 
ENDBRANCH   3   6
BRANCH   2  13
ATOM     13  C13 UNL     1      73.927  66.968 109.249  0.00  0.00    +0.000 A 
ATOM     14  C14 UNL     1      75.119  66.819 108.522  0.00  0.00    +0.000 A 
ATOM     15  C15 UNL     1      76.260  67.544 108.876  0.00  0.00    +0.000 A 
ATOM     16  C16 UNL     1      76.221  68.435 109.956  0.00  0.00    +0.000 A 
ATOM     17  C17 UNL     1      75.035  68.599 110.677  0.00  0.00    +0.000 A 
ATOM     18  C18 UNL     1      73.892  67.877 110.324  0.00  0.00    +0.000 A 
BRANCH  16  19
ATOM     19  O3  UNL     1      77.353  69.161 110.319  0.00  0.00    +0.000 OA
ATOM     20  H15 UNL     1      77.382  70.172 110.238  0.00  0.00    +0.000 HD
ENDBRANCH  16  19
ENDBRANCH   2  13
BRANCH   1  21
ATOM     21  C3  UNL     1      70.315  66.902 108.521  0.00  0.00    +0.000 C 
BRANCH  21  22
ATOM     22  C2  UNL     1      70.766  66.992 107.051  0.00  0.00    +0.000 C 
BRANCH  22  23
ATOM     23  C1  UNL     1      70.700  68.419 106.477  0.00  0.00    +0.000 C 
BRANCH  23  24
ATOM     24  C19 UNL     1      71.984  69.157 106.789  0.00  0.00    +0.000 A 
ATOM     25  C20 UNL     1      72.042  70.082 107.849  0.00  0.00    +0.000 A 
ATOM     26  C21 UNL     1      73.240  70.735 108.151  0.00  0.00    +0.000 A 
ATOM     27  C22 UNL     1      74.392  70.466 107.407  0.00  0.00    +0.000 A 
ATOM     28  F2  UNL     1      75.553  71.101 107.702  0.00  0.00    +0.000 F 
ATOM     29  C23 UNL     1      74.348  69.539 106.362  0.00  0.00    +0.000 A 
ATOM     30  C24 UNL     1      73.152  68.882 106.058  0.00  0.00    +0.000 A 
ENDBRANCH  23  24
BRANCH  23  31
ATOM     31  O1  UNL     1      69.602  69.102 107.027  0.00  0.00    +0.000 OA
ATOM     32  H1  UNL     1      69.822  70.070 106.995  0.00  0.00    +0.000 HD
ENDBRANCH  23  31
ENDBRANCH  22  23
ENDBRANCH  21  22
ENDBRANCH   1  21
TORSDOF 8
ENDMDL
MODEL 10
REMARK VINA RESULT:      -7.5     14.125     15.967
REMARK  Name = ./S1655.pdb
REMARK  8 active torsions:
REMARK  status: ('A' for Active; 'I' for Inactive)
REMARK    1  A    between atoms: O1_1  and  C1_2
REMARK    2  A    between atoms: C1_2  and  C2_3
REMARK    3  A    between atoms: C1_2  and  C19_24
REMARK    4  A    between atoms: C2_3  and  C3_4
REMARK    5  A    between atoms: C3_4  and  C4_5
REMARK    6  A    between atoms: C5_6  and  C13_17
REMARK    7  A    between atoms: N1_7  and  C7_10
REMARK    8  A    between atoms: C16_20  and  O3_21
REMARK                            x       y       z     vdW  Elec       q    Type
REMARK                         _______ _______ _______ _____ _____    ______ ____
ROOT
ATOM      1  C4  UNL     1      74.867  63.916 112.690  0.00  0.00    +0.000 C 
ATOM      2  C5  UNL     1      75.767  63.656 113.797  0.00  0.00    +0.000 C 
ATOM      3  N1  UNL     1      75.948  62.263 113.431  0.00  0.00    +0.000 N 
ATOM      4  C6  UNL     1      75.047  62.486 112.272  0.00  0.00    +0.000 C 
ATOM      5  O2  UNL     1      74.607  61.769 111.337  0.00  0.00    +0.000 OA
ENDROOT
BRANCH   3   6
ATOM      6  C7  UNL     1      76.694  61.157 113.950  0.00  0.00    +0.000 A 
ATOM      7  C8  UNL     1      76.111  60.291 114.889  0.00  0.00    +0.000 A 
ATOM      8  C9  UNL     1      76.838  59.206 115.390  0.00  0.00    +0.000 A 
ATOM      9  C10 UNL     1      78.149  58.981 114.959  0.00  0.00    +0.000 A 
ATOM     10  F1  UNL     1      78.851  57.928 115.446  0.00  0.00    +0.000 F 
ATOM     11  C11 UNL     1      78.734  59.841 114.026  0.00  0.00    +0.000 A 
ATOM     12  C12 UNL     1      78.010  60.927 113.522  0.00  0.00    +0.000 A 
ENDBRANCH   3   6
BRANCH   2  13
ATOM     13  C13 UNL     1      75.119  63.815 115.161  0.00  0.00    +0.000 A 
ATOM     14  C14 UNL     1      75.893  64.270 116.241  0.00  0.00    +0.000 A 
ATOM     15  C15 UNL     1      75.316  64.443 117.502  0.00  0.00    +0.000 A 
ATOM     16  C16 UNL     1      73.956  64.171 117.698  0.00  0.00    +0.000 A 
ATOM     17  C17 UNL     1      73.176  63.730 116.625  0.00  0.00    +0.000 A 
ATOM     18  C18 UNL     1      73.749  63.558 115.363  0.00  0.00    +0.000 A 
BRANCH  16  19
ATOM     19  O3  UNL     1      73.371  64.338 118.951  0.00  0.00    +0.000 OA
ATOM     20  H15 UNL     1      73.799  64.921 119.662  0.00  0.00    +0.000 HD
ENDBRANCH  16  19
ENDBRANCH   2  13
BRANCH   1  21
ATOM     21  C3  UNL     1      75.427  64.920 111.660  0.00  0.00    +0.000 C 
BRANCH  21  22
ATOM     22  C2  UNL     1      74.632  66.238 111.609  0.00  0.00    +0.000 C 
BRANCH  22  23
ATOM     23  C1  UNL     1      75.341  67.407 112.318  0.00  0.00    +0.000 C 
BRANCH  23  24
ATOM     24  C19 UNL     1      74.905  67.468 113.766  0.00  0.00    +0.000 A 
ATOM     25  C20 UNL     1      75.785  67.931 114.763  0.00  0.00    +0.000 A 
ATOM     26  C21 UNL     1      75.364  68.014 116.092  0.00  0.00    +0.000 A 
ATOM     27  C22 UNL     1      74.060  67.648 116.440  0.00  0.00    +0.000 A 
ATOM     28  F2  UNL     1      73.653  67.730 117.730  0.00  0.00    +0.000 F 
ATOM     29  C23 UNL     1      73.174  67.201 115.455  0.00  0.00    +0.000 A 
ATOM     30  C24 UNL     1      73.591  67.117 114.123  0.00  0.00    +0.000 A 
ENDBRANCH  23  24
BRANCH  23  31
ATOM     31  O1  UNL     1      75.034  68.614 111.668  0.00  0.00    +0.000 OA
ATOM     32  H1  UNL     1      74.044  68.675 111.629  0.00  0.00    +0.000 HD
ENDBRANCH  23  31
ENDBRANCH  22  23
ENDBRANCH  21  22
ENDBRANCH   1  21
TORSDOF 8
ENDMDL
MODEL 11
REMARK VINA RESULT:      -7.4      9.860     12.253
REMARK  Name = ./S1655.pdb
REMARK  8 active torsions:
REMARK  status: ('A' for Active; 'I' for Inactive)
REMARK    1  A    between atoms: O1_1  and  C1_2
REMARK    2  A    between atoms: C1_2  and  C2_3
REMARK    3  A    between atoms: C1_2  and  C19_24
REMARK    4  A    between atoms: C2_3  and  C3_4
REMARK    5  A    between atoms: C3_4  and  C4_5
REMARK    6  A    between atoms: C5_6  and  C13_17
REMARK    7  A    between atoms: N1_7  and  C7_10
REMARK    8  A    between atoms: C16_20  and  O3_21
REMARK                            x       y       z     vdW  Elec       q    Type
REMARK                         _______ _______ _______ _____ _____    ______ ____
ROOT
ATOM      1  C4  UNL     1      72.018  64.306 108.675  0.00  0.00    +0.000 C 
ATOM      2  C5  UNL     1      72.380  64.749 107.342  0.00  0.00    +0.000 C 
ATOM      3  N1  UNL     1      71.775  66.056 107.523  0.00  0.00    +0.000 N 
ATOM      4  C6  UNL     1      71.400  65.655 108.902  0.00  0.00    +0.000 C 
ATOM      5  O2  UNL     1      70.801  66.211 109.859  0.00  0.00    +0.000 OA
ENDROOT
BRANCH   3   6
ATOM      6  C7  UNL     1      71.626  67.234 106.724  0.00  0.00    +0.000 A 
ATOM      7  C8  UNL     1      72.564  67.531 105.721  0.00  0.00    +0.000 A 
ATOM      8  C9  UNL     1      72.414  68.677 104.935  0.00  0.00    +0.000 A 
ATOM      9  C10 UNL     1      71.330  69.535 105.146  0.00  0.00    +0.000 A 
ATOM     10  F1  UNL     1      71.187  70.647 104.383  0.00  0.00    +0.000 F 
ATOM     11  C11 UNL     1      70.395  69.246 106.143  0.00  0.00    +0.000 A 
ATOM     12  C12 UNL     1      70.541  68.099 106.931  0.00  0.00    +0.000 A 
ENDBRANCH   3   6
BRANCH   2  13
ATOM     13  C13 UNL     1      71.715  63.954 106.233  0.00  0.00    +0.000 A 
ATOM     14  C14 UNL     1      72.335  63.877 104.975  0.00  0.00    +0.000 A 
ATOM     15  C15 UNL     1      71.753  63.137 103.943  0.00  0.00    +0.000 A 
ATOM     16  C16 UNL     1      70.548  62.455 104.157  0.00  0.00    +0.000 A 
ATOM     17  C17 UNL     1      69.932  62.515 105.410  0.00  0.00    +0.000 A 
ATOM     18  C18 UNL     1      70.512  63.254 106.445  0.00  0.00    +0.000 A 
BRANCH  16  19
ATOM     19  O3  UNL     1      69.958  61.715 103.135  0.00  0.00    +0.000 OA
ATOM     20  H15 UNL     1      69.875  62.083 102.194  0.00  0.00    +0.000 HD
ENDBRANCH  16  19
ENDBRANCH   2  13
BRANCH   1  21
ATOM     21  C3  UNL     1      73.233  64.038 109.589  0.00  0.00    +0.000 C 
BRANCH  21  22
ATOM     22  C2  UNL     1      74.496  63.631 108.808  0.00  0.00    +0.000 C 
BRANCH  22  23
ATOM     23  C1  UNL     1      74.794  62.122 108.871  0.00  0.00    +0.000 C 
BRANCH  23  24
ATOM     24  C19 UNL     1      74.163  61.424 107.685  0.00  0.00    +0.000 A 
ATOM     25  C20 UNL     1      74.806  61.412 106.433  0.00  0.00    +0.000 A 
ATOM     26  C21 UNL     1      74.231  60.739 105.352  0.00  0.00    +0.000 A 
ATOM     27  C22 UNL     1      73.018  60.063 105.510  0.00  0.00    +0.000 A 
ATOM     28  F2  UNL     1      72.463  59.410 104.460  0.00  0.00    +0.000 F 
ATOM     29  C23 UNL     1      72.380  60.057 106.754  0.00  0.00    +0.000 A 
ATOM     30  C24 UNL     1      72.951  60.729 107.839  0.00  0.00    +0.000 A 
ENDBRANCH  23  24
BRANCH  23  31
ATOM     31  O1  UNL     1      74.294  61.588 110.071  0.00  0.00    +0.000 OA
ATOM     32  H1  UNL     1      75.078  61.400 110.650  0.00  0.00    +0.000 HD
ENDBRANCH  23  31
ENDBRANCH  22  23
ENDBRANCH  21  22
ENDBRANCH   1  21
TORSDOF 8
ENDMDL
MODEL 12
REMARK VINA RESULT:      -7.4      3.680      8.391
REMARK  Name = ./S1655.pdb
REMARK  8 active torsions:
REMARK  status: ('A' for Active; 'I' for Inactive)
REMARK    1  A    between atoms: O1_1  and  C1_2
REMARK    2  A    between atoms: C1_2  and  C2_3
REMARK    3  A    between atoms: C1_2  and  C19_24
REMARK    4  A    between atoms: C2_3  and  C3_4
REMARK    5  A    between atoms: C3_4  and  C4_5
REMARK    6  A    between atoms: C5_6  and  C13_17
REMARK    7  A    between atoms: N1_7  and  C7_10
REMARK    8  A    between atoms: C16_20  and  O3_21
REMARK                            x       y       z     vdW  Elec       q    Type
REMARK                         _______ _______ _______ _____ _____    ______ ____
ROOT
ATOM      1  C4  UNL     1      62.592  59.813 112.696  0.00  0.00    +0.000 C 
ATOM      2  C5  UNL     1      61.801  59.405 111.551  0.00  0.00    +0.000 C 
ATOM      3  N1  UNL     1      62.969  59.205 110.712  0.00  0.00    +0.000 N 
ATOM      4  C6  UNL     1      63.821  59.598 111.861  0.00  0.00    +0.000 C 
ATOM      5  O2  UNL     1      65.059  59.716 112.052  0.00  0.00    +0.000 OA
ENDROOT
BRANCH   3   6
ATOM      6  C7  UNL     1      63.199  58.785 109.363  0.00  0.00    +0.000 A 
ATOM      7  C8  UNL     1      62.873  57.479 108.964  0.00  0.00    +0.000 A 
ATOM      8  C9  UNL     1      63.091  57.071 107.644  0.00  0.00    +0.000 A 
ATOM      9  C10 UNL     1      63.637  57.963 106.716  0.00  0.00    +0.000 A 
ATOM     10  F1  UNL     1      63.848  57.566 105.437  0.00  0.00    +0.000 F 
ATOM     11  C11 UNL     1      63.966  59.264 107.108  0.00  0.00    +0.000 A 
ATOM     12  C12 UNL     1      63.748  59.675 108.428  0.00  0.00    +0.000 A 
ENDBRANCH   3   6
BRANCH   2  13
ATOM     13  C13 UNL     1      60.887  60.494 111.020  0.00  0.00    +0.000 A 
ATOM     14  C14 UNL     1      59.516  60.230 110.872  0.00  0.00    +0.000 A 
ATOM     15  C15 UNL     1      58.650  61.221 110.402  0.00  0.00    +0.000 A 
ATOM     16  C16 UNL     1      59.143  62.493 110.082  0.00  0.00    +0.000 A 
ATOM     17  C17 UNL     1      60.505  62.768 110.239  0.00  0.00    +0.000 A 
ATOM     18  C18 UNL     1      61.373  61.779 110.710  0.00  0.00    +0.000 A 
BRANCH  16  19
ATOM     19  O3  UNL     1      58.290  63.489 109.612  0.00  0.00    +0.000 OA
ATOM     20  H15 UNL     1      58.367  63.850 108.668  0.00  0.00    +0.000 HD
ENDBRANCH  16  19
ENDBRANCH   2  13
BRANCH   1  21
ATOM     21  C3  UNL     1      62.498  58.842 113.892  0.00  0.00    +0.000 C 
BRANCH  21  22
ATOM     22  C2  UNL     1      61.064  58.687 114.431  0.00  0.00    +0.000 C 
BRANCH  22  23
ATOM     23  C1  UNL     1      60.677  59.766 115.459  0.00  0.00    +0.000 C 
BRANCH  23  24
ATOM     24  C19 UNL     1      59.896  60.868 114.777  0.00  0.00    +0.000 A 
ATOM     25  C20 UNL     1      58.530  60.702 114.479  0.00  0.00    +0.000 A 
ATOM     26  C21 UNL     1      57.808  61.736 113.877  0.00  0.00    +0.000 A 
ATOM     27  C22 UNL     1      58.437  62.948 113.577  0.00  0.00    +0.000 A 
ATOM     28  F2  UNL     1      57.735  63.950 112.995  0.00  0.00    +0.000 F 
ATOM     29  C23 UNL     1      59.789  63.128 113.883  0.00  0.00    +0.000 A 
ATOM     30  C24 UNL     1      60.515  62.096 114.485  0.00  0.00    +0.000 A 
ENDBRANCH  23  24
BRANCH  23  31
ATOM     31  O1  UNL     1      61.836  60.291 116.056  0.00  0.00    +0.000 OA
ATOM     32  H1  UNL     1      61.542  60.787 116.864  0.00  0.00    +0.000 HD
ENDBRANCH  23  31
ENDBRANCH  22  23
ENDBRANCH  21  22
ENDBRANCH   1  21
TORSDOF 8
ENDMDL
MODEL 13
REMARK VINA RESULT:      -7.4      5.384      8.501
REMARK  Name = ./S1655.pdb
REMARK  8 active torsions:
REMARK  status: ('A' for Active; 'I' for Inactive)
REMARK    1  A    between atoms: O1_1  and  C1_2
REMARK    2  A    between atoms: C1_2  and  C2_3
REMARK    3  A    between atoms: C1_2  and  C19_24
REMARK    4  A    between atoms: C2_3  and  C3_4
REMARK    5  A    between atoms: C3_4  and  C4_5
REMARK    6  A    between atoms: C5_6  and  C13_17
REMARK    7  A    between atoms: N1_7  and  C7_10
REMARK    8  A    between atoms: C16_20  and  O3_21
REMARK                            x       y       z     vdW  Elec       q    Type
REMARK                         _______ _______ _______ _____ _____    ______ ____
ROOT
ATOM      1  C4  UNL     1      61.071  57.490 105.608  0.00  0.00    +0.000 C 
ATOM      2  C5  UNL     1      61.422  57.099 104.256  0.00  0.00    +0.000 C 
ATOM      3  N1  UNL     1      62.282  58.252 104.059  0.00  0.00    +0.000 N 
ATOM      4  C6  UNL     1      61.967  58.682 105.443  0.00  0.00    +0.000 C 
ATOM      5  O2  UNL     1      62.303  59.652 106.172  0.00  0.00    +0.000 OA
ENDROOT
BRANCH   3   6
ATOM      6  C7  UNL     1      63.101  58.746 102.994  0.00  0.00    +0.000 A 
ATOM      7  C8  UNL     1      64.185  57.987 102.525  0.00  0.00    +0.000 A 
ATOM      8  C9  UNL     1      64.981  58.466 101.480  0.00  0.00    +0.000 A 
ATOM      9  C10 UNL     1      64.701  59.707 100.898  0.00  0.00    +0.000 A 
ATOM     10  F1  UNL     1      65.473  60.170  99.885  0.00  0.00    +0.000 F 
ATOM     11  C11 UNL     1      63.624  60.468 101.361  0.00  0.00    +0.000 A 
ATOM     12  C12 UNL     1      62.825  59.990 102.406  0.00  0.00    +0.000 A 
ENDBRANCH   3   6
BRANCH   2  13
ATOM     13  C13 UNL     1      60.244  57.087 103.298  0.00  0.00    +0.000 A 
ATOM     14  C14 UNL     1      58.970  57.441 103.769  0.00  0.00    +0.000 A 
ATOM     15  C15 UNL     1      57.873  57.455 102.904  0.00  0.00    +0.000 A 
ATOM     16  C16 UNL     1      58.038  57.125 101.552  0.00  0.00    +0.000 A 
ATOM     17  C17 UNL     1      59.305  56.784 101.072  0.00  0.00    +0.000 A 
ATOM     18  C18 UNL     1      60.404  56.770 101.935  0.00  0.00    +0.000 A 
BRANCH  16  19
ATOM     19  O3  UNL     1      56.951  57.135 100.681  0.00  0.00    +0.000 OA
ATOM     20  H15 UNL     1      56.532  58.003 100.366  0.00  0.00    +0.000 HD
ENDBRANCH  16  19
ENDBRANCH   2  13
BRANCH   1  21
ATOM     21  C3  UNL     1      61.569  56.505 106.686  0.00  0.00    +0.000 C 
BRANCH  21  22
ATOM     22  C2  UNL     1      60.436  55.668 107.309  0.00  0.00    +0.000 C 
BRANCH  22  23
ATOM     23  C1  UNL     1      60.527  54.169 106.970  0.00  0.00    +0.000 C 
BRANCH  23  24
ATOM     24  C19 UNL     1      59.943  53.917 105.596  0.00  0.00    +0.000 A 
ATOM     25  C20 UNL     1      58.567  54.095 105.357  0.00  0.00    +0.000 A 
ATOM     26  C21 UNL     1      58.041  53.891 104.078  0.00  0.00    +0.000 A 
ATOM     27  C22 UNL     1      58.882  53.519 103.025  0.00  0.00    +0.000 A 
ATOM     28  F2  UNL     1      58.370  53.323 101.785  0.00  0.00    +0.000 F 
ATOM     29  C23 UNL     1      60.252  53.356 103.250  0.00  0.00    +0.000 A 
ATOM     30  C24 UNL     1      60.782  53.559 104.528  0.00  0.00    +0.000 A 
ENDBRANCH  23  24
BRANCH  23  31
ATOM     31  O1  UNL     1      59.833  53.420 107.936  0.00  0.00    +0.000 OA
ATOM     32  H1  UNL     1      60.435  52.681 108.212  0.00  0.00    +0.000 HD
ENDBRANCH  23  31
ENDBRANCH  22  23
ENDBRANCH  21  22
ENDBRANCH   1  21
TORSDOF 8
ENDMDL
MODEL 14
REMARK VINA RESULT:      -7.4     11.867     16.061
REMARK  Name = ./S1655.pdb
REMARK  8 active torsions:
REMARK  status: ('A' for Active; 'I' for Inactive)
REMARK    1  A    between atoms: O1_1  and  C1_2
REMARK    2  A    between atoms: C1_2  and  C2_3
REMARK    3  A    between atoms: C1_2  and  C19_24
REMARK    4  A    between atoms: C2_3  and  C3_4
REMARK    5  A    between atoms: C3_4  and  C4_5
REMARK    6  A    between atoms: C5_6  and  C13_17
REMARK    7  A    between atoms: N1_7  and  C7_10
REMARK    8  A    between atoms: C16_20  and  O3_21
REMARK                            x       y       z     vdW  Elec       q    Type
REMARK                         _______ _______ _______ _____ _____    ______ ____
ROOT
ATOM      1  C4  UNL     1      75.812  64.217 112.819  0.00  0.00    +0.000 C 
ATOM      2  C5  UNL     1      74.460  64.676 113.077  0.00  0.00    +0.000 C 
ATOM      3  N1  UNL     1      74.232  65.042 111.691  0.00  0.00    +0.000 N 
ATOM      4  C6  UNL     1      75.602  64.567 111.374  0.00  0.00    +0.000 C 
ATOM      5  O2  UNL     1      76.301  64.498 110.331  0.00  0.00    +0.000 OA
ENDROOT
BRANCH   3   6
ATOM      6  C7  UNL     1      73.144  65.599 110.945  0.00  0.00    +0.000 A 
ATOM      7  C8  UNL     1      71.926  64.908 110.850  0.00  0.00    +0.000 A 
ATOM      8  C9  UNL     1      70.861  65.456 110.129  0.00  0.00    +0.000 A 
ATOM      9  C10 UNL     1      71.006  66.695 109.497  0.00  0.00    +0.000 A 
ATOM     10  F1  UNL     1      69.972  67.224 108.798  0.00  0.00    +0.000 F 
ATOM     11  C11 UNL     1      72.217  67.387 109.587  0.00  0.00    +0.000 A 
ATOM     12  C12 UNL     1      73.284  66.842 110.309  0.00  0.00    +0.000 A 
ENDBRANCH   3   6
BRANCH   2  13
ATOM     13  C13 UNL     1      74.389  65.872 114.009  0.00  0.00    +0.000 A 
ATOM     14  C14 UNL     1      75.537  66.653 114.215  0.00  0.00    +0.000 A 
ATOM     15  C15 UNL     1      75.493  67.770 115.054  0.00  0.00    +0.000 A 
ATOM     16  C16 UNL     1      74.297  68.126 115.691  0.00  0.00    +0.000 A 
ATOM     17  C17 UNL     1      73.146  67.362 115.480  0.00  0.00    +0.000 A 
ATOM     18  C18 UNL     1      73.187  66.245 114.641  0.00  0.00    +0.000 A 
BRANCH  16  19
ATOM     19  O3  UNL     1      74.242  69.237 116.530  0.00  0.00    +0.000 OA
ATOM     20  H15 UNL     1      73.359  69.671 116.776  0.00  0.00    +0.000 HD
ENDBRANCH  16  19
ENDBRANCH   2  13
BRANCH   1  21
ATOM     21  C3  UNL     1      76.005  62.703 113.050  0.00  0.00    +0.000 C 
BRANCH  21  22
ATOM     22  C2  UNL     1      75.094  62.141 114.157  0.00  0.00    +0.000 C 
BRANCH  22  23
ATOM     23  C1  UNL     1      75.813  61.952 115.505  0.00  0.00    +0.000 C 
BRANCH  23  24
ATOM     24  C19 UNL     1      75.661  63.201 116.347  0.00  0.00    +0.000 A 
ATOM     25  C20 UNL     1      74.427  63.518 116.945  0.00  0.00    +0.000 A 
ATOM     26  C21 UNL     1      74.303  64.656 117.746  0.00  0.00    +0.000 A 
ATOM     27  C22 UNL     1      75.409  65.482 117.969  0.00  0.00    +0.000 A 
ATOM     28  F2  UNL     1      75.287  66.584 118.748  0.00  0.00    +0.000 F 
ATOM     29  C23 UNL     1      76.643  65.167 117.392  0.00  0.00    +0.000 A 
ATOM     30  C24 UNL     1      76.771  64.029 116.589  0.00  0.00    +0.000 A 
ENDBRANCH  23  24
BRANCH  23  31
ATOM     31  O1  UNL     1      77.174  61.680 115.284  0.00  0.00    +0.000 OA
ATOM     32  H1  UNL     1      77.648  62.552 115.310  0.00  0.00    +0.000 HD
ENDBRANCH  23  31
ENDBRANCH  22  23
ENDBRANCH  21  22
ENDBRANCH   1  21
TORSDOF 8
ENDMDL
MODEL 15
REMARK VINA RESULT:      -7.4     12.242     15.121
REMARK  Name = ./S1655.pdb
REMARK  8 active torsions:
REMARK  status: ('A' for Active; 'I' for Inactive)
REMARK    1  A    between atoms: O1_1  and  C1_2
REMARK    2  A    between atoms: C1_2  and  C2_3
REMARK    3  A    between atoms: C1_2  and  C19_24
REMARK    4  A    between atoms: C2_3  and  C3_4
REMARK    5  A    between atoms: C3_4  and  C4_5
REMARK    6  A    between atoms: C5_6  and  C13_17
REMARK    7  A    between atoms: N1_7  and  C7_10
REMARK    8  A    between atoms: C16_20  and  O3_21
REMARK                            x       y       z     vdW  Elec       q    Type
REMARK                         _______ _______ _______ _____ _____    ______ ____
ROOT
ATOM      1  C4  UNL     1      76.267  64.774 109.923  0.00  0.00    +0.000 C 
ATOM      2  C5  UNL     1      74.824  64.768 110.072  0.00  0.00    +0.000 C 
ATOM      3  N1  UNL     1      74.627  65.729 109.002  0.00  0.00    +0.000 N 
ATOM      4  C6  UNL     1      76.097  65.755 108.799  0.00  0.00    +0.000 C 
ATOM      5  O2  UNL     1      76.877  66.358 108.018  0.00  0.00    +0.000 OA
ENDROOT
BRANCH   3   6
ATOM      6  C7  UNL     1      73.498  66.361 108.390  0.00  0.00    +0.000 A 
ATOM      7  C8  UNL     1      73.069  67.623 108.833  0.00  0.00    +0.000 A 
ATOM      8  C9  UNL     1      71.971  68.244 108.229  0.00  0.00    +0.000 A 
ATOM      9  C10 UNL     1      71.294  67.610 107.183  0.00  0.00    +0.000 A 
ATOM     10  F1  UNL     1      70.229  68.214 106.600  0.00  0.00    +0.000 F 
ATOM     11  C11 UNL     1      71.716  66.353 106.739  0.00  0.00    +0.000 A 
ATOM     12  C12 UNL     1      72.815  65.730 107.340  0.00  0.00    +0.000 A 
ENDBRANCH   3   6
BRANCH   2  13
ATOM     13  C13 UNL     1      74.346  65.292 111.414  0.00  0.00    +0.000 A 
ATOM     14  C14 UNL     1      73.057  64.962 111.862  0.00  0.00    +0.000 A 
ATOM     15  C15 UNL     1      72.599  65.417 113.101  0.00  0.00    +0.000 A 
ATOM     16  C16 UNL     1      73.429  66.199 113.915  0.00  0.00    +0.000 A 
ATOM     17  C17 UNL     1      74.719  66.520 113.483  0.00  0.00    +0.000 A 
ATOM     18  C18 UNL     1      75.180  66.066 112.244  0.00  0.00    +0.000 A 
BRANCH  16  19
ATOM     19  O3  UNL     1      72.984  66.658 115.152  0.00  0.00    +0.000 OA
ATOM     20  H15 UNL     1      72.003  66.848 115.325  0.00  0.00    +0.000 HD
ENDBRANCH  16  19
ENDBRANCH   2  13
BRANCH   1  21
ATOM     21  C3  UNL     1      76.847  63.421 109.459  0.00  0.00    +0.000 C 
BRANCH  21  22
ATOM     22  C2  UNL     1      77.915  62.862 110.419  0.00  0.00    +0.000 C 
BRANCH  22  23
ATOM     23  C1  UNL     1      77.437  61.636 111.217  0.00  0.00    +0.000 C 
BRANCH  23  24
ATOM     24  C19 UNL     1      76.621  62.087 112.410  0.00  0.00    +0.000 A 
ATOM     25  C20 UNL     1      77.199  62.881 113.418  0.00  0.00    +0.000 A 
ATOM     26  C21 UNL     1      76.430  63.319 114.499  0.00  0.00    +0.000 A 
ATOM     27  C22 UNL     1      75.077  62.979 114.581  0.00  0.00    +0.000 A 
ATOM     28  F2  UNL     1      74.332  63.406 115.630  0.00  0.00    +0.000 F 
ATOM     29  C23 UNL     1      74.489  62.204 113.577  0.00  0.00    +0.000 A 
ATOM     30  C24 UNL     1      75.255  61.764 112.493  0.00  0.00    +0.000 A 
ENDBRANCH  23  24
BRANCH  23  31
ATOM     31  O1  UNL     1      78.545  60.885 111.644  0.00  0.00    +0.000 OA
ATOM     32  H1  UNL     1      78.409  60.698 112.610  0.00  0.00    +0.000 HD
ENDBRANCH  23  31
ENDBRANCH  22  23
ENDBRANCH  21  22
ENDBRANCH   1  21
TORSDOF 8
ENDMDL
MODEL 16
REMARK VINA RESULT:      -7.4      3.310      8.426
REMARK  Name = ./S1655.pdb
REMARK  8 active torsions:
REMARK  status: ('A' for Active; 'I' for Inactive)
REMARK    1  A    between atoms: O1_1  and  C1_2
REMARK    2  A    between atoms: C1_2  and  C2_3
REMARK    3  A    between atoms: C1_2  and  C19_24
REMARK    4  A    between atoms: C2_3  and  C3_4
REMARK    5  A    between atoms: C3_4  and  C4_5
REMARK    6  A    between atoms: C5_6  and  C13_17
REMARK    7  A    between atoms: N1_7  and  C7_10
REMARK    8  A    between atoms: C16_20  and  O3_21
REMARK                            x       y       z     vdW  Elec       q    Type
REMARK                         _______ _______ _______ _____ _____    ______ ____
ROOT
ATOM      1  C4  UNL     1      62.590  58.019 107.443  0.00  0.00    +0.000 C 
ATOM      2  C5  UNL     1      62.571  57.226 106.229  0.00  0.00    +0.000 C 
ATOM      3  N1  UNL     1      62.336  58.380 105.381  0.00  0.00    +0.000 N 
ATOM      4  C6  UNL     1      62.366  59.235 106.593  0.00  0.00    +0.000 C 
ATOM      5  O2  UNL     1      62.241  60.467 106.816  0.00  0.00    +0.000 OA
ENDROOT
BRANCH   3   6
ATOM      6  C7  UNL     1      62.171  58.601 103.976  0.00  0.00    +0.000 A 
ATOM      7  C8  UNL     1      63.216  59.156 103.220  0.00  0.00    +0.000 A 
ATOM      8  C9  UNL     1      63.058  59.365 101.847  0.00  0.00    +0.000 A 
ATOM      9  C10 UNL     1      61.856  59.023 101.220  0.00  0.00    +0.000 A 
ATOM     10  F1  UNL     1      61.704  59.226  99.888  0.00  0.00    +0.000 F 
ATOM     11  C11 UNL     1      60.811  58.472 101.967  0.00  0.00    +0.000 A 
ATOM     12  C12 UNL     1      60.967  58.260 103.341  0.00  0.00    +0.000 A 
ENDBRANCH   3   6
BRANCH   2  13
ATOM     13  C13 UNL     1      61.432  56.224 106.170  0.00  0.00    +0.000 A 
ATOM     14  C14 UNL     1      61.397  55.282 105.129  0.00  0.00    +0.000 A 
ATOM     15  C15 UNL     1      60.369  54.338 105.062  0.00  0.00    +0.000 A 
ATOM     16  C16 UNL     1      59.368  54.316 106.042  0.00  0.00    +0.000 A 
ATOM     17  C17 UNL     1      59.403  55.241 107.089  0.00  0.00    +0.000 A 
ATOM     18  C18 UNL     1      60.430  56.187 107.159  0.00  0.00    +0.000 A 
BRANCH  16  19
ATOM     19  O3  UNL     1      58.338  53.380 105.985  0.00  0.00    +0.000 OA
ATOM     20  H15 UNL     1      58.433  52.520 105.456  0.00  0.00    +0.000 HD
ENDBRANCH  16  19
ENDBRANCH   2  13
BRANCH   1  21
ATOM     21  C3  UNL     1      63.958  58.026 108.157  0.00  0.00    +0.000 C 
BRANCH  21  22
ATOM     22  C2  UNL     1      64.068  59.115 109.240  0.00  0.00    +0.000 C 
BRANCH  22  23
ATOM     23  C1  UNL     1      63.356  58.745 110.553  0.00  0.00    +0.000 C 
BRANCH  23  24
ATOM     24  C19 UNL     1      61.985  59.387 110.593  0.00  0.00    +0.000 A 
ATOM     25  C20 UNL     1      61.846  60.788 110.552  0.00  0.00    +0.000 A 
ATOM     26  C21 UNL     1      60.577  61.371 110.557  0.00  0.00    +0.000 A 
ATOM     27  C22 UNL     1      59.434  60.566 110.591  0.00  0.00    +0.000 A 
ATOM     28  F2  UNL     1      58.204  61.134 110.595  0.00  0.00    +0.000 F 
ATOM     29  C23 UNL     1      59.562  59.174 110.616  0.00  0.00    +0.000 A 
ATOM     30  C24 UNL     1      60.831  58.586 110.611  0.00  0.00    +0.000 A 
ENDBRANCH  23  24
BRANCH  23  31
ATOM     31  O1  UNL     1      64.124  59.175 111.649  0.00  0.00    +0.000 OA
ATOM     32  H1  UNL     1      64.503  60.059 111.403  0.00  0.00    +0.000 HD
ENDBRANCH  23  31
ENDBRANCH  22  23
ENDBRANCH  21  22
ENDBRANCH   1  21
TORSDOF 8
ENDMDL
MODEL 17
REMARK VINA RESULT:      -7.3      2.830      8.412
REMARK  Name = ./S1655.pdb
REMARK  8 active torsions:
REMARK  status: ('A' for Active; 'I' for Inactive)
REMARK    1  A    between atoms: O1_1  and  C1_2
REMARK    2  A    between atoms: C1_2  and  C2_3
REMARK    3  A    between atoms: C1_2  and  C19_24
REMARK    4  A    between atoms: C2_3  and  C3_4
REMARK    5  A    between atoms: C3_4  and  C4_5
REMARK    6  A    between atoms: C5_6  and  C13_17
REMARK    7  A    between atoms: N1_7  and  C7_10
REMARK    8  A    between atoms: C16_20  and  O3_21
REMARK                            x       y       z     vdW  Elec       q    Type
REMARK                         _______ _______ _______ _____ _____    ______ ____
ROOT
ATOM      1  C4  UNL     1      62.883  59.388 106.408  0.00  0.00    +0.000 C 
ATOM      2  C5  UNL     1      63.141  58.022 105.991  0.00  0.00    +0.000 C 
ATOM      3  N1  UNL     1      63.283  58.389 104.594  0.00  0.00    +0.000 N 
ATOM      4  C6  UNL     1      63.043  59.803 104.974  0.00  0.00    +0.000 C 
ATOM      5  O2  UNL     1      62.984  60.895 104.352  0.00  0.00    +0.000 OA
ENDROOT
BRANCH   3   6
ATOM      6  C7  UNL     1      63.560  57.690 103.376  0.00  0.00    +0.000 A 
ATOM      7  C8  UNL     1      62.676  57.786 102.289  0.00  0.00    +0.000 A 
ATOM      8  C9  UNL     1      62.951  57.109 101.096  0.00  0.00    +0.000 A 
ATOM      9  C10 UNL     1      64.107  56.332 100.982  0.00  0.00    +0.000 A 
ATOM     10  F1  UNL     1      64.372  55.676  99.825  0.00  0.00    +0.000 F 
ATOM     11  C11 UNL     1      64.990  56.231 102.061  0.00  0.00    +0.000 A 
ATOM     12  C12 UNL     1      64.719  56.908 103.255  0.00  0.00    +0.000 A 
ENDBRANCH   3   6
BRANCH   2  13
ATOM     13  C13 UNL     1      61.974  57.081 106.225  0.00  0.00    +0.000 A 
ATOM     14  C14 UNL     1      61.044  57.375 107.236  0.00  0.00    +0.000 A 
ATOM     15  C15 UNL     1      59.951  56.534 107.460  0.00  0.00    +0.000 A 
ATOM     16  C16 UNL     1      59.767  55.393 106.669  0.00  0.00    +0.000 A 
ATOM     17  C17 UNL     1      60.679  55.100 105.652  0.00  0.00    +0.000 A 
ATOM     18  C18 UNL     1      61.774  55.939 105.425  0.00  0.00    +0.000 A 
BRANCH  16  19
ATOM     19  O3  UNL     1      58.681  54.547 106.884  0.00  0.00    +0.000 OA
ATOM     20  H15 UNL     1      57.743  54.911 107.009  0.00  0.00    +0.000 HD
ENDBRANCH  16  19
ENDBRANCH   2  13
BRANCH   1  21
ATOM     21  C3  UNL     1      63.976  59.970 107.329  0.00  0.00    +0.000 C 
BRANCH  21  22
ATOM     22  C2  UNL     1      65.120  58.978 107.609  0.00  0.00    +0.000 C 
BRANCH  22  23
ATOM     23  C1  UNL     1      64.766  57.920 108.671  0.00  0.00    +0.000 C 
BRANCH  23  24
ATOM     24  C19 UNL     1      64.155  58.593 109.881  0.00  0.00    +0.000 A 
ATOM     25  C20 UNL     1      64.909  59.490 110.662  0.00  0.00    +0.000 A 
ATOM     26  C21 UNL     1      64.327  60.131 111.759  0.00  0.00    +0.000 A 
ATOM     27  C22 UNL     1      62.988  59.892 112.083  0.00  0.00    +0.000 A 
ATOM     28  F2  UNL     1      62.426  60.515 113.147  0.00  0.00    +0.000 F 
ATOM     29  C23 UNL     1      62.228  59.015 111.305  0.00  0.00    +0.000 A 
ATOM     30  C24 UNL     1      62.805  58.372 110.205  0.00  0.00    +0.000 A 
ENDBRANCH  23  24
BRANCH  23  31
ATOM     31  O1  UNL     1      65.923  57.213 109.041  0.00  0.00    +0.000 OA
ATOM     32  H1  UNL     1      66.095  57.426 109.995  0.00  0.00    +0.000 HD
ENDBRANCH  23  31
ENDBRANCH  22  23
ENDBRANCH  21  22
ENDBRANCH   1  21
TORSDOF 8
ENDMDL
MODEL 18
REMARK VINA RESULT:      -7.3     13.177     15.638
REMARK  Name = ./S1655.pdb
REMARK  8 active torsions:
REMARK  status: ('A' for Active; 'I' for Inactive)
REMARK    1  A    between atoms: O1_1  and  C1_2
REMARK    2  A    between atoms: C1_2  and  C2_3
REMARK    3  A    between atoms: C1_2  and  C19_24
REMARK    4  A    between atoms: C2_3  and  C3_4
REMARK    5  A    between atoms: C3_4  and  C4_5
REMARK    6  A    between atoms: C5_6  and  C13_17
REMARK    7  A    between atoms: N1_7  and  C7_10
REMARK    8  A    between atoms: C16_20  and  O3_21
REMARK                            x       y       z     vdW  Elec       q    Type
REMARK                         _______ _______ _______ _____ _____    ______ ____
ROOT
ATOM      1  C4  UNL     1      76.304  63.635 114.875  0.00  0.00    +0.000 C 
ATOM      2  C5  UNL     1      75.957  62.410 114.179  0.00  0.00    +0.000 C 
ATOM      3  N1  UNL     1      77.030  61.657 114.801  0.00  0.00    +0.000 N 
ATOM      4  C6  UNL     1      77.411  62.880 115.549  0.00  0.00    +0.000 C 
ATOM      5  O2  UNL     1      78.302  63.168 116.390  0.00  0.00    +0.000 OA
ENDROOT
BRANCH   3   6
ATOM      6  C7  UNL     1      77.503  60.307 114.738  0.00  0.00    +0.000 A 
ATOM      7  C8  UNL     1      78.588  59.976 113.910  0.00  0.00    +0.000 A 
ATOM      8  C9  UNL     1      79.054  58.659 113.854  0.00  0.00    +0.000 A 
ATOM      9  C10 UNL     1      78.440  57.665 114.622  0.00  0.00    +0.000 A 
ATOM     10  F1  UNL     1      78.894  56.388 114.566  0.00  0.00    +0.000 F 
ATOM     11  C11 UNL     1      77.358  57.988 115.446  0.00  0.00    +0.000 A 
ATOM     12  C12 UNL     1      76.890  59.305 115.505  0.00  0.00    +0.000 A 
ENDBRANCH   3   6
BRANCH   2  13
ATOM     13  C13 UNL     1      76.111  62.499 112.671  0.00  0.00    +0.000 A 
ATOM     14  C14 UNL     1      75.134  61.921 111.845  0.00  0.00    +0.000 A 
ATOM     15  C15 UNL     1      75.244  62.004 110.454  0.00  0.00    +0.000 A 
ATOM     16  C16 UNL     1      76.326  62.675 109.872  0.00  0.00    +0.000 A 
ATOM     17  C17 UNL     1      77.296  63.265 110.687  0.00  0.00    +0.000 A 
ATOM     18  C18 UNL     1      77.189  63.184 112.078  0.00  0.00    +0.000 A 
BRANCH  16  19
ATOM     19  O3  UNL     1      76.446  62.763 108.487  0.00  0.00    +0.000 OA
ATOM     20  H15 UNL     1      76.828  62.001 107.938  0.00  0.00    +0.000 HD
ENDBRANCH  16  19
ENDBRANCH   2  13
BRANCH   1  21
ATOM     21  C3  UNL     1      75.216  64.118 115.858  0.00  0.00    +0.000 C 
BRANCH  21  22
ATOM     22  C2  UNL     1      74.804  65.584 115.629  0.00  0.00    +0.000 C 
BRANCH  22  23
ATOM     23  C1  UNL     1      73.487  65.733 114.846  0.00  0.00    +0.000 C 
BRANCH  23  24
ATOM     24  C19 UNL     1      73.769  65.705 113.359  0.00  0.00    +0.000 A 
ATOM     25  C20 UNL     1      74.924  66.314 112.834  0.00  0.00    +0.000 A 
ATOM     26  C21 UNL     1      75.192  66.256 111.464  0.00  0.00    +0.000 A 
ATOM     27  C22 UNL     1      74.319  65.581 110.606  0.00  0.00    +0.000 A 
ATOM     28  F2  UNL     1      74.582  65.525 109.278  0.00  0.00    +0.000 F 
ATOM     29  C23 UNL     1      73.177  64.960 111.119  0.00  0.00    +0.000 A 
ATOM     30  C24 UNL     1      72.905  65.015 112.490  0.00  0.00    +0.000 A 
ENDBRANCH  23  24
BRANCH  23  31
ATOM     31  O1  UNL     1      72.858  66.940 115.197  0.00  0.00    +0.000 OA
ATOM     32  H1  UNL     1      71.941  66.708 115.499  0.00  0.00    +0.000 HD
ENDBRANCH  23  31
ENDBRANCH  22  23
ENDBRANCH  21  22
ENDBRANCH   1  21
TORSDOF 8
ENDMDL
MODEL 19
REMARK VINA RESULT:      -7.3      3.190      5.566
REMARK  Name = ./S1655.pdb
REMARK  8 active torsions:
REMARK  status: ('A' for Active; 'I' for Inactive)
REMARK    1  A    between atoms: O1_1  and  C1_2
REMARK    2  A    between atoms: C1_2  and  C2_3
REMARK    3  A    between atoms: C1_2  and  C19_24
REMARK    4  A    between atoms: C2_3  and  C3_4
REMARK    5  A    between atoms: C3_4  and  C4_5
REMARK    6  A    between atoms: C5_6  and  C13_17
REMARK    7  A    between atoms: N1_7  and  C7_10
REMARK    8  A    between atoms: C16_20  and  O3_21
REMARK                            x       y       z     vdW  Elec       q    Type
REMARK                         _______ _______ _______ _____ _____    ______ ____
ROOT
ATOM      1  C4  UNL     1      60.908  56.857 106.151  0.00  0.00    +0.000 C 
ATOM      2  C5  UNL     1      62.323  56.976 105.854  0.00  0.00    +0.000 C 
ATOM      3  N1  UNL     1      62.650  57.431 107.193  0.00  0.00    +0.000 N 
ATOM      4  C6  UNL     1      61.215  57.306 107.550  0.00  0.00    +0.000 C 
ATOM      5  O2  UNL     1      60.535  57.507 108.590  0.00  0.00    +0.000 OA
ENDROOT
BRANCH   3   6
ATOM      6  C7  UNL     1      63.846  57.812 107.881  0.00  0.00    +0.000 A 
ATOM      7  C8  UNL     1      63.770  58.454 109.127  0.00  0.00    +0.000 A 
ATOM      8  C9  UNL     1      64.939  58.819 109.803  0.00  0.00    +0.000 A 
ATOM      9  C10 UNL     1      66.189  58.547 109.239  0.00  0.00    +0.000 A 
ATOM     10  F1  UNL     1      67.321  58.902 109.895  0.00  0.00    +0.000 F 
ATOM     11  C11 UNL     1      66.271  57.909 107.998  0.00  0.00    +0.000 A 
ATOM     12  C12 UNL     1      65.103  57.542 107.320  0.00  0.00    +0.000 A 
ENDBRANCH   3   6
BRANCH   2  13
ATOM     13  C13 UNL     1      62.640  58.019 104.797  0.00  0.00    +0.000 A 
ATOM     14  C14 UNL     1      62.124  59.317 104.934  0.00  0.00    +0.000 A 
ATOM     15  C15 UNL     1      62.415  60.300 103.985  0.00  0.00    +0.000 A 
ATOM     16  C16 UNL     1      63.236  60.000 102.890  0.00  0.00    +0.000 A 
ATOM     17  C17 UNL     1      63.766  58.714 102.753  0.00  0.00    +0.000 A 
ATOM     18  C18 UNL     1      63.476  57.729 103.701  0.00  0.00    +0.000 A 
BRANCH  16  19
ATOM     19  O3  UNL     1      63.533  60.972 101.937  0.00  0.00    +0.000 OA
ATOM     20  H15 UNL     1      62.802  61.482 101.456  0.00  0.00    +0.000 HD
ENDBRANCH  16  19
ENDBRANCH   2  13
BRANCH   1  21
ATOM     21  C3  UNL     1      60.382  55.407 106.085  0.00  0.00    +0.000 C 
BRANCH  21  22
ATOM     22  C2  UNL     1      60.761  54.687 104.777  0.00  0.00    +0.000 C 
BRANCH  22  23
ATOM     23  C1  UNL     1      59.696  54.823 103.674  0.00  0.00    +0.000 C 
BRANCH  23  24
ATOM     24  C19 UNL     1      60.140  55.852 102.656  0.00  0.00    +0.000 A 
ATOM     25  C20 UNL     1      59.665  57.176 102.719  0.00  0.00    +0.000 A 
ATOM     26  C21 UNL     1      60.105  58.128 101.795  0.00  0.00    +0.000 A 
ATOM     27  C22 UNL     1      61.028  57.772 100.807  0.00  0.00    +0.000 A 
ATOM     28  F2  UNL     1      61.453  58.697  99.912  0.00  0.00    +0.000 F 
ATOM     29  C23 UNL     1      61.516  56.464 100.745  0.00  0.00    +0.000 A 
ATOM     30  C24 UNL     1      61.080  55.509 101.669  0.00  0.00    +0.000 A 
ENDBRANCH  23  24
BRANCH  23  31
ATOM     31  O1  UNL     1      58.468  55.202 104.242  0.00  0.00    +0.000 OA
ATOM     32  H1  UNL     1      58.627  56.055 104.725  0.00  0.00    +0.000 HD
ENDBRANCH  23  31
ENDBRANCH  22  23
ENDBRANCH  21  22
ENDBRANCH   1  21
TORSDOF 8
ENDMDL
MODEL 20
REMARK VINA RESULT:      -7.3     11.101     14.934
REMARK  Name = ./S1655.pdb
REMARK  8 active torsions:
REMARK  status: ('A' for Active; 'I' for Inactive)
REMARK    1  A    between atoms: O1_1  and  C1_2
REMARK    2  A    between atoms: C1_2  and  C2_3
REMARK    3  A    between atoms: C1_2  and  C19_24
REMARK    4  A    between atoms: C2_3  and  C3_4
REMARK    5  A    between atoms: C3_4  and  C4_5
REMARK    6  A    between atoms: C5_6  and  C13_17
REMARK    7  A    between atoms: N1_7  and  C7_10
REMARK    8  A    between atoms: C16_20  and  O3_21
REMARK                            x       y       z     vdW  Elec       q    Type
REMARK                         _______ _______ _______ _____ _____    ______ ____
ROOT
ATOM      1  C4  UNL     1      76.526  64.193 110.458  0.00  0.00    +0.000 C 
ATOM      2  C5  UNL     1      75.133  63.857 110.684  0.00  0.00    +0.000 C 
ATOM      3  N1  UNL     1      74.739  64.235 109.339  0.00  0.00    +0.000 N 
ATOM      4  C6  UNL     1      76.155  64.574 109.055  0.00  0.00    +0.000 C 
ATOM      5  O2  UNL     1      76.782  65.012 108.055  0.00  0.00    +0.000 OA
ENDROOT
BRANCH   3   6
ATOM      6  C7  UNL     1      73.514  64.250 108.599  0.00  0.00    +0.000 A 
ATOM      7  C8  UNL     1      73.075  63.093 107.934  0.00  0.00    +0.000 A 
ATOM      8  C9  UNL     1      71.875  63.106 107.217  0.00  0.00    +0.000 A 
ATOM      9  C10 UNL     1      71.106  64.273 107.157  0.00  0.00    +0.000 A 
ATOM     10  F1  UNL     1      69.943  64.283 106.461  0.00  0.00    +0.000 F 
ATOM     11  C11 UNL     1      71.539  65.428 107.815  0.00  0.00    +0.000 A 
ATOM     12  C12 UNL     1      72.739  65.418 108.534  0.00  0.00    +0.000 A 
ENDBRANCH   3   6
BRANCH   2  13
ATOM     13  C13 UNL     1      74.462  64.712 111.744  0.00  0.00    +0.000 A 
ATOM     14  C14 UNL     1      75.184  65.756 112.345  0.00  0.00    +0.000 A 
ATOM     15  C15 UNL     1      74.585  66.570 113.309  0.00  0.00    +0.000 A 
ATOM     16  C16 UNL     1      73.251  66.356 113.680  0.00  0.00    +0.000 A 
ATOM     17  C17 UNL     1      72.521  65.327 113.078  0.00  0.00    +0.000 A 
ATOM     18  C18 UNL     1      73.118  64.513 112.112  0.00  0.00    +0.000 A 
BRANCH  16  19
ATOM     19  O3  UNL     1      72.643  67.159 114.642  0.00  0.00    +0.000 OA
ATOM     20  H15 UNL     1      71.658  67.395 114.589  0.00  0.00    +0.000 HD
ENDBRANCH  16  19
ENDBRANCH   2  13
BRANCH   1  21
ATOM     21  C3  UNL     1      77.474  62.977 110.522  0.00  0.00    +0.000 C 
BRANCH  21  22
ATOM     22  C2  UNL     1      78.026  62.716 111.936  0.00  0.00    +0.000 C 
BRANCH  22  23
ATOM     23  C1  UNL     1      77.350  61.529 112.646  0.00  0.00    +0.000 C 
BRANCH  23  24
ATOM     24  C19 UNL     1      76.298  62.038 113.609  0.00  0.00    +0.000 A 
ATOM     25  C20 UNL     1      76.578  63.110 114.477  0.00  0.00    +0.000 A 
ATOM     26  C21 UNL     1      75.591  63.595 115.340  0.00  0.00    +0.000 A 
ATOM     27  C22 UNL     1      74.315  63.024 115.339  0.00  0.00    +0.000 A 
ATOM     28  F2  UNL     1      73.360  63.496 116.176  0.00  0.00    +0.000 F 
ATOM     29  C23 UNL     1      74.023  61.969 114.469  0.00  0.00    +0.000 A 
ATOM     30  C24 UNL     1      75.007  61.481 113.604  0.00  0.00    +0.000 A 
ENDBRANCH  23  24
BRANCH  23  31
ATOM     31  O1  UNL     1      78.314  60.775 113.337  0.00  0.00    +0.000 OA
ATOM     32  H1  UNL     1      79.081  61.382 113.510  0.00  0.00    +0.000 HD
ENDBRANCH  23  31
ENDBRANCH  22  23
ENDBRANCH  21  22
ENDBRANCH   1  21
TORSDOF 8
ENDMDL
