MODEL 1
REMARK VINA RESULT:      -7.9      0.000      0.000
REMARK  Name = ./S1741.pdb
REMARK  19 active torsions:
REMARK  status: ('A' for Active; 'I' for Inactive)
REMARK    1  A    between atoms: C1_1  and  O1_2
REMARK    2  A    between atoms: O1_2  and  C2_3
REMARK    3  A    between atoms: C5_7  and  C6_8
REMARK    4  A    between atoms: C12_16  and  O5_19
REMARK    5  A    between atoms: C13_17  and  C14_18
REMARK    6  A    between atoms: N2_28  and  C23_31
REMARK    7  A    between atoms: C23_31  and  C24_32
REMARK    8  A    between atoms: C24_32  and  C25_33
REMARK    9  A    between atoms: C24_32  and  C26_34
REMARK   10  A    between atoms: C29_40  and  C46_61
REMARK   11  A    between atoms: C33_44  and  C34_45
REMARK   12  A    between atoms: C35_46  and  O8_47
REMARK   13  A    between atoms: C36_48  and  C37_49
REMARK   14  A    between atoms: C38_50  and  O9_51
REMARK   15  A    between atoms: C39_52  and  C40_53
REMARK   16  A    between atoms: C41_54  and  O10_55
REMARK   17  A    between atoms: O10_55  and  C42_56
REMARK   18  A    between atoms: C42_56  and  C43_57
REMARK   19  A    between atoms: C44_59  and  C45_60
REMARK                            x       y       z     vdW  Elec       q    Type
REMARK                         _______ _______ _______ _____ _____    ______ ____
ROOT
ATOM      1  C2  UNL     1      76.904  66.798 104.942  0.00  0.00    +0.000 C 
ATOM      2  C3  UNL     1      76.962  67.318 106.371  0.00  0.00    +0.000 C 
ATOM      3  C4  UNL     1      75.840  67.566 107.048  0.00  0.00    +0.000 C 
ATOM      4  O2  UNL     1      75.884  68.073 108.352  0.00  0.00    +0.000 OA
ATOM      5  C5  UNL     1      74.770  67.976 109.254  0.00  0.00    +0.000 C 
ATOM      6  C6  UNL     1      74.863  69.049 110.338  0.00  0.00    +0.000 C 
ATOM      7  O3  UNL     1      73.528  68.081 108.549  0.00  0.00    +0.000 OA
ATOM      8  C7  UNL     1      72.934  66.825 108.440  0.00  0.00    +0.000 A 
ATOM      9  C8  UNL     1      73.579  65.884 109.205  0.00  0.00    +0.000 A 
ATOM     10  C9  UNL     1      74.706  66.587 109.819  0.00  0.00    +0.000 C 
ATOM     11  O4  UNL     1      75.572  66.098 110.591  0.00  0.00    +0.000 OA
ATOM     12  C10 UNL     1      73.312  64.515 109.042  0.00  0.00    +0.000 A 
ATOM     13  C11 UNL     1      72.431  64.118 107.993  0.00  0.00    +0.000 A 
ATOM     14  C12 UNL     1      71.631  65.108 107.349  0.00  0.00    +0.000 A 
ATOM     15  C13 UNL     1      71.892  66.483 107.575  0.00  0.00    +0.000 A 
ATOM     16  C14 UNL     1      71.186  67.549 106.791  0.00  0.00    +0.000 C 
ATOM     17  C15 UNL     1      72.564  62.716 107.459  0.00  0.00    +0.000 C 
ATOM     18  O6  UNL     1      72.094  62.438 106.327  0.00  0.00    +0.000 OA
ATOM     19  C16 UNL     1      73.420  61.710 108.168  0.00  0.00    +0.000 C 
ATOM     20  C17 UNL     1      74.014  62.100 109.304  0.00  0.00    +0.000 C 
ATOM     21  N1  UNL     1      74.924  61.361 110.098  0.00  0.00    +0.000 N 
ATOM     22  C18 UNL     1      75.472  62.309 111.079  0.00  0.00    +0.000 C 
ATOM     23  C19 UNL     1      76.999  62.463 110.850  0.00  0.00    +0.000 C 
ATOM     24  C20 UNL     1      77.819  61.937 112.028  0.00  0.00    +0.000 C 
ATOM     25  N2  UNL     1      77.396  62.616 113.268  0.00  0.00    +0.000 NA
ATOM     26  C21 UNL     1      75.948  62.544 113.584  0.00  0.00    +0.000 C 
ATOM     27  C22 UNL     1      75.114  61.834 112.506  0.00  0.00    +0.000 C 
ATOM     28  N3  UNL     1      74.796  63.584 110.786  0.00  0.00    +0.000 NA
ATOM     29  C27 UNL     1      74.013  63.445 109.772  0.00  0.00    +0.000 C 
ATOM     30  N4  UNL     1      73.884  60.508 107.511  0.00  0.00    +0.000 N 
ATOM     31  C28 UNL     1      73.213  59.860 106.423  0.00  0.00    +0.000 C 
ATOM     32  O7  UNL     1      72.047  59.398 106.579  0.00  0.00    +0.000 OA
ATOM     33  C29 UNL     1      73.934  59.686 105.145  0.00  0.00    +0.000 C 
ATOM     34  C30 UNL     1      74.706  60.703 104.730  0.00  0.00    +0.000 C 
ATOM     35  C31 UNL     1      75.719  60.611 103.672  0.00  0.00    +0.000 C 
ATOM     36  C32 UNL     1      76.992  60.801 104.021  0.00  0.00    +0.000 C 
ATOM     37  C33 UNL     1      78.071  61.196 103.050  0.00  0.00    +0.000 C 
ATOM     38  C34 UNL     1      79.188  60.137 103.062  0.00  0.00    +0.000 C 
ATOM     39  C35 UNL     1      78.572  62.619 103.453  0.00  0.00    +0.000 C 
ATOM     40  C36 UNL     1      79.581  63.349 102.502  0.00  0.00    +0.000 C 
ATOM     41  C37 UNL     1      79.312  63.020 101.015  0.00  0.00    +0.000 C 
ATOM     42  C38 UNL     1      79.511  64.914 102.694  0.00  0.00    +0.000 C 
ATOM     43  C39 UNL     1      79.826  65.461 104.135  0.00  0.00    +0.000 C 
ATOM     44  C40 UNL     1      81.284  65.172 104.549  0.00  0.00    +0.000 C 
ATOM     45  C41 UNL     1      79.497  66.987 104.313  0.00  0.00    +0.000 C 
ATOM     46  C44 UNL     1      78.009  67.421 104.030  0.00  0.00    +0.000 C 
ATOM     47  C45 UNL     1      77.890  68.961 104.067  0.00  0.00    +0.000 C 
ATOM     48  C46 UNL     1      73.866  58.388 104.399  0.00  0.00    +0.000 C 
ATOM     49  H14 UNL     1      75.162  60.346 110.010  0.00  0.00    +0.000 HD
ATOM     50  H32 UNL     1      74.919  60.298 107.614  0.00  0.00    +0.000 HD
ENDROOT
BRANCH   1  52
ATOM     51  C1  UNL     1      75.801  64.808 104.385  0.00  0.00    +0.000 C 
ATOM     52  O1  UNL     1      76.980  65.387 104.912  0.00  0.00    +0.000 OA
ENDBRANCH   1  52
BRANCH  14  53
ATOM     53  O5  UNL     1      70.581  64.750 106.496  0.00  0.00    +0.000 OA
ATOM     54  H13 UNL     1      69.994  63.951 106.666  0.00  0.00    +0.000 HD
ENDBRANCH  14  53
BRANCH  39  55
ATOM     55  O8  UNL     1      79.072  62.591 104.769  0.00  0.00    +0.000 OA
ATOM     56  H41 UNL     1      79.296  63.519 105.038  0.00  0.00    +0.000 HD
ENDBRANCH  39  55
BRANCH  42  57
ATOM     57  O9  UNL     1      80.308  65.585 101.742  0.00  0.00    +0.000 OA
ATOM     58  H47 UNL     1      79.710  66.139 101.177  0.00  0.00    +0.000 HD
ENDBRANCH  42  57
BRANCH  25  59
ATOM     59  C23 UNL     1      78.309  62.452 114.426  0.00  0.00    +0.000 C 
BRANCH  59  60
ATOM     60  C24 UNL     1      78.019  61.237 115.347  0.00  0.00    +0.000 C 
ATOM     61  C25 UNL     1      78.051  61.613 116.838  0.00  0.00    +0.000 C 
ATOM     62  C26 UNL     1      79.041  60.116 115.080  0.00  0.00    +0.000 C 
ENDBRANCH  59  60
ENDBRANCH  25  59
BRANCH  45  63
ATOM     63  O10 UNL     1      80.351  67.744 103.446  0.00  0.00    +0.000 OA
BRANCH  63  64
ATOM     64  C42 UNL     1      81.422  68.539 103.875  0.00  0.00    +0.000 C 
ATOM     65  C43 UNL     1      81.532  68.900 105.316  0.00  0.00    +0.000 C 
ATOM     66  O11 UNL     1      82.315  68.916 103.071  0.00  0.00    +0.000 OA
ENDBRANCH  63  64
ENDBRANCH  45  63
TORSDOF 8
ENDMDL
MODEL 2
REMARK VINA RESULT:      -7.8      4.024      9.588
REMARK  Name = ./S1741.pdb
REMARK  19 active torsions:
REMARK  status: ('A' for Active; 'I' for Inactive)
REMARK    1  A    between atoms: C1_1  and  O1_2
REMARK    2  A    between atoms: O1_2  and  C2_3
REMARK    3  A    between atoms: C5_7  and  C6_8
REMARK    4  A    between atoms: C12_16  and  O5_19
REMARK    5  A    between atoms: C13_17  and  C14_18
REMARK    6  A    between atoms: N2_28  and  C23_31
REMARK    7  A    between atoms: C23_31  and  C24_32
REMARK    8  A    between atoms: C24_32  and  C25_33
REMARK    9  A    between atoms: C24_32  and  C26_34
REMARK   10  A    between atoms: C29_40  and  C46_61
REMARK   11  A    between atoms: C33_44  and  C34_45
REMARK   12  A    between atoms: C35_46  and  O8_47
REMARK   13  A    between atoms: C36_48  and  C37_49
REMARK   14  A    between atoms: C38_50  and  O9_51
REMARK   15  A    between atoms: C39_52  and  C40_53
REMARK   16  A    between atoms: C41_54  and  O10_55
REMARK   17  A    between atoms: O10_55  and  C42_56
REMARK   18  A    between atoms: C42_56  and  C43_57
REMARK   19  A    between atoms: C44_59  and  C45_60
REMARK                            x       y       z     vdW  Elec       q    Type
REMARK                         _______ _______ _______ _____ _____    ______ ____
ROOT
ATOM      1  C2  UNL     1      74.814  63.676 107.204  0.00  0.00    +0.000 C 
ATOM      2  C3  UNL     1      73.516  64.469 107.144  0.00  0.00    +0.000 C 
ATOM      3  C4  UNL     1      73.280  65.451 108.015  0.00  0.00    +0.000 C 
ATOM      4  O2  UNL     1      72.077  66.165 107.986  0.00  0.00    +0.000 OA
ATOM      5  C5  UNL     1      71.933  67.455 108.600  0.00  0.00    +0.000 C 
ATOM      6  C6  UNL     1      70.463  67.740 108.911  0.00  0.00    +0.000 C 
ATOM      7  O3  UNL     1      72.725  67.551 109.788  0.00  0.00    +0.000 OA
ATOM      8  C7  UNL     1      73.859  68.324 109.545  0.00  0.00    +0.000 A 
ATOM      9  C8  UNL     1      73.802  68.947 108.322  0.00  0.00    +0.000 A 
ATOM     10  C9  UNL     1      72.548  68.500 107.714  0.00  0.00    +0.000 C 
ATOM     11  O4  UNL     1      72.102  68.818 106.581  0.00  0.00    +0.000 OA
ATOM     12  C10 UNL     1      74.940  69.557 107.770  0.00  0.00    +0.000 A 
ATOM     13  C11 UNL     1      76.181  69.425 108.459  0.00  0.00    +0.000 A 
ATOM     14  C12 UNL     1      76.177  68.951 109.805  0.00  0.00    +0.000 A 
ATOM     15  C13 UNL     1      74.997  68.388 110.352  0.00  0.00    +0.000 A 
ATOM     16  C14 UNL     1      75.000  67.729 111.699  0.00  0.00    +0.000 C 
ATOM     17  C15 UNL     1      77.447  69.565 107.657  0.00  0.00    +0.000 C 
ATOM     18  O6  UNL     1      78.524  69.104 108.115  0.00  0.00    +0.000 OA
ATOM     19  C16 UNL     1      77.402  70.065 106.244  0.00  0.00    +0.000 C 
ATOM     20  C17 UNL     1      76.204  70.415 105.755  0.00  0.00    +0.000 C 
ATOM     21  N1  UNL     1      75.902  70.833 104.436  0.00  0.00    +0.000 N 
ATOM     22  C18 UNL     1      74.435  70.855 104.342  0.00  0.00    +0.000 C 
ATOM     23  C19 UNL     1      73.971  69.814 103.290  0.00  0.00    +0.000 C 
ATOM     24  C20 UNL     1      73.304  70.469 102.081  0.00  0.00    +0.000 C 
ATOM     25  N2  UNL     1      72.177  71.309 102.530  0.00  0.00    +0.000 NA
ATOM     26  C21 UNL     1      72.503  72.337 103.550  0.00  0.00    +0.000 C 
ATOM     27  C22 UNL     1      73.963  72.293 104.028  0.00  0.00    +0.000 C 
ATOM     28  N3  UNL     1      73.968  70.450 105.679  0.00  0.00    +0.000 NA
ATOM     29  C27 UNL     1      74.976  70.180 106.435  0.00  0.00    +0.000 C 
ATOM     30  N4  UNL     1      78.500  69.855 105.327  0.00  0.00    +0.000 N 
ATOM     31  C28 UNL     1      79.870  69.690 105.717  0.00  0.00    +0.000 C 
ATOM     32  O7  UNL     1      80.475  70.619 106.323  0.00  0.00    +0.000 OA
ATOM     33  C29 UNL     1      80.573  68.448 105.335  0.00  0.00    +0.000 C 
ATOM     34  C30 UNL     1      79.883  67.299 105.417  0.00  0.00    +0.000 C 
ATOM     35  C31 UNL     1      80.292  66.029 104.807  0.00  0.00    +0.000 C 
ATOM     36  C32 UNL     1      79.514  65.530 103.845  0.00  0.00    +0.000 C 
ATOM     37  C33 UNL     1      79.509  64.080 103.448  0.00  0.00    +0.000 C 
ATOM     38  C34 UNL     1      79.862  63.952 101.955  0.00  0.00    +0.000 C 
ATOM     39  C35 UNL     1      78.102  63.498 103.796  0.00  0.00    +0.000 C 
ATOM     40  C36 UNL     1      77.876  61.955 103.645  0.00  0.00    +0.000 C 
ATOM     41  C37 UNL     1      79.149  61.150 103.993  0.00  0.00    +0.000 C 
ATOM     42  C38 UNL     1      76.697  61.461 104.569  0.00  0.00    +0.000 C 
ATOM     43  C39 UNL     1      75.287  62.115 104.320  0.00  0.00    +0.000 C 
ATOM     44  C40 UNL     1      74.737  61.771 102.920  0.00  0.00    +0.000 C 
ATOM     45  C41 UNL     1      74.229  61.764 105.427  0.00  0.00    +0.000 C 
ATOM     46  C44 UNL     1      74.605  62.156 106.906  0.00  0.00    +0.000 C 
ATOM     47  C45 UNL     1      73.557  61.585 107.889  0.00  0.00    +0.000 C 
ATOM     48  C46 UNL     1      81.972  68.495 104.798  0.00  0.00    +0.000 C 
ATOM     49  H14 UNL     1      76.580  71.079 103.678  0.00  0.00    +0.000 HD
ATOM     50  H32 UNL     1      78.236  69.473 104.373  0.00  0.00    +0.000 HD
ENDROOT
BRANCH   1  52
ATOM     51  C1  UNL     1      76.931  64.661 107.026  0.00  0.00    +0.000 C 
ATOM     52  O1  UNL     1      75.781  64.220 106.329  0.00  0.00    +0.000 OA
ENDBRANCH   1  52
BRANCH  14  53
ATOM     53  O5  UNL     1      77.320  69.035 110.607  0.00  0.00    +0.000 OA
ATOM     54  H13 UNL     1      77.994  69.776 110.513  0.00  0.00    +0.000 HD
ENDBRANCH  14  53
BRANCH  39  55
ATOM     55  O8  UNL     1      77.109  64.210 103.096  0.00  0.00    +0.000 OA
ATOM     56  H41 UNL     1      76.839  64.990 103.646  0.00  0.00    +0.000 HD
ENDBRANCH  39  55
BRANCH  42  57
ATOM     57  O9  UNL     1      76.582  60.055 104.548  0.00  0.00    +0.000 OA
ATOM     58  H47 UNL     1      77.496  59.672 104.580  0.00  0.00    +0.000 HD
ENDBRANCH  42  57
BRANCH  25  59
ATOM     59  C23 UNL     1      71.242  71.745 101.464  0.00  0.00    +0.000 C 
BRANCH  59  60
ATOM     60  C24 UNL     1      71.902  72.292 100.170  0.00  0.00    +0.000 C 
ATOM     61  C25 UNL     1      71.716  73.810 100.016  0.00  0.00    +0.000 C 
ATOM     62  C26 UNL     1      71.317  71.576  98.937  0.00  0.00    +0.000 C 
ENDBRANCH  59  60
ENDBRANCH  25  59
BRANCH  45  63
ATOM     63  O10 UNL     1      73.982  60.353 105.394  0.00  0.00    +0.000 OA
BRANCH  63  64
ATOM     64  C42 UNL     1      72.789  59.761 104.958  0.00  0.00    +0.000 C 
ATOM     65  C43 UNL     1      71.539  60.571 104.931  0.00  0.00    +0.000 C 
ATOM     66  O11 UNL     1      72.765  58.570 104.548  0.00  0.00    +0.000 OA
ENDBRANCH  63  64
ENDBRANCH  45  63
TORSDOF 8
ENDMDL
MODEL 3
REMARK VINA RESULT:      -7.8      8.409     12.723
REMARK  Name = ./S1741.pdb
REMARK  19 active torsions:
REMARK  status: ('A' for Active; 'I' for Inactive)
REMARK    1  A    between atoms: C1_1  and  O1_2
REMARK    2  A    between atoms: O1_2  and  C2_3
REMARK    3  A    between atoms: C5_7  and  C6_8
REMARK    4  A    between atoms: C12_16  and  O5_19
REMARK    5  A    between atoms: C13_17  and  C14_18
REMARK    6  A    between atoms: N2_28  and  C23_31
REMARK    7  A    between atoms: C23_31  and  C24_32
REMARK    8  A    between atoms: C24_32  and  C25_33
REMARK    9  A    between atoms: C24_32  and  C26_34
REMARK   10  A    between atoms: C29_40  and  C46_61
REMARK   11  A    between atoms: C33_44  and  C34_45
REMARK   12  A    between atoms: C35_46  and  O8_47
REMARK   13  A    between atoms: C36_48  and  C37_49
REMARK   14  A    between atoms: C38_50  and  O9_51
REMARK   15  A    between atoms: C39_52  and  C40_53
REMARK   16  A    between atoms: C41_54  and  O10_55
REMARK   17  A    between atoms: O10_55  and  C42_56
REMARK   18  A    between atoms: C42_56  and  C43_57
REMARK   19  A    between atoms: C44_59  and  C45_60
REMARK                            x       y       z     vdW  Elec       q    Type
REMARK                         _______ _______ _______ _____ _____    ______ ____
ROOT
ATOM      1  C2  UNL     1      74.871  58.823 100.196  0.00  0.00    +0.000 C 
ATOM      2  C3  UNL     1      73.799  59.458 101.070  0.00  0.00    +0.000 C 
ATOM      3  C4  UNL     1      73.017  60.426 100.588  0.00  0.00    +0.000 C 
ATOM      4  O2  UNL     1      72.050  61.035 101.394  0.00  0.00    +0.000 OA
ATOM      5  C5  UNL     1      70.939  61.763 100.847  0.00  0.00    +0.000 C 
ATOM      6  C6  UNL     1      70.391  62.757 101.871  0.00  0.00    +0.000 C 
ATOM      7  O3  UNL     1      71.312  62.440  99.641  0.00  0.00    +0.000 OA
ATOM      8  C7  UNL     1      70.798  61.764  98.536  0.00  0.00    +0.000 A 
ATOM      9  C8  UNL     1      69.915  60.778  98.903  0.00  0.00    +0.000 A 
ATOM     10  C9  UNL     1      69.897  60.795 100.366  0.00  0.00    +0.000 C 
ATOM     11  O4  UNL     1      69.230  60.043 101.123  0.00  0.00    +0.000 OA
ATOM     12  C10 UNL     1      69.484  59.813  97.977  0.00  0.00    +0.000 A 
ATOM     13  C11 UNL     1      70.064  59.819  96.675  0.00  0.00    +0.000 A 
ATOM     14  C12 UNL     1      70.820  60.956  96.259  0.00  0.00    +0.000 A 
ATOM     15  C13 UNL     1      71.195  61.940  97.209  0.00  0.00    +0.000 A 
ATOM     16  C14 UNL     1      72.127  63.057  96.846  0.00  0.00    +0.000 C 
ATOM     17  C15 UNL     1      70.050  58.531  95.895  0.00  0.00    +0.000 C 
ATOM     18  O6  UNL     1      70.847  58.380  94.935  0.00  0.00    +0.000 OA
ATOM     19  C16 UNL     1      69.243  57.362  96.372  0.00  0.00    +0.000 C 
ATOM     20  C17 UNL     1      68.513  57.532  97.484  0.00  0.00    +0.000 C 
ATOM     21  N1  UNL     1      67.743  56.558  98.165  0.00  0.00    +0.000 N 
ATOM     22  C18 UNL     1      67.350  57.171  99.442  0.00  0.00    +0.000 C 
ATOM     23  C19 UNL     1      67.979  56.370 100.613  0.00  0.00    +0.000 C 
ATOM     24  C20 UNL     1      66.923  55.687 101.482  0.00  0.00    +0.000 C 
ATOM     25  N2  UNL     1      65.965  56.692 101.980  0.00  0.00    +0.000 NA
ATOM     26  C21 UNL     1      65.308  57.529 100.945  0.00  0.00    +0.000 C 
ATOM     27  C22 UNL     1      65.808  57.254  99.518  0.00  0.00    +0.000 C 
ATOM     28  N3  UNL     1      67.928  58.525  99.402  0.00  0.00    +0.000 NA
ATOM     29  C27 UNL     1      68.598  58.686  98.313  0.00  0.00    +0.000 C 
ATOM     30  N4  UNL     1      69.492  56.020  95.895  0.00  0.00    +0.000 N 
ATOM     31  C28 UNL     1      70.064  55.698  94.621  0.00  0.00    +0.000 C 
ATOM     32  O7  UNL     1      69.473  56.032  93.555  0.00  0.00    +0.000 OA
ATOM     33  C29 UNL     1      71.317  54.915  94.581  0.00  0.00    +0.000 C 
ATOM     34  C30 UNL     1      72.254  55.204  95.498  0.00  0.00    +0.000 C 
ATOM     35  C31 UNL     1      73.410  54.357  95.814  0.00  0.00    +0.000 C 
ATOM     36  C32 UNL     1      73.473  53.834  97.038  0.00  0.00    +0.000 C 
ATOM     37  C33 UNL     1      74.748  53.352  97.672  0.00  0.00    +0.000 C 
ATOM     38  C34 UNL     1      74.609  51.865  98.045  0.00  0.00    +0.000 C 
ATOM     39  C35 UNL     1      75.041  54.267  98.904  0.00  0.00    +0.000 C 
ATOM     40  C36 UNL     1      76.407  54.095  99.651  0.00  0.00    +0.000 C 
ATOM     41  C37 UNL     1      77.552  53.724  98.680  0.00  0.00    +0.000 C 
ATOM     42  C38 UNL     1      76.804  55.416 100.418  0.00  0.00    +0.000 C 
ATOM     43  C39 UNL     1      75.793  55.925 101.511  0.00  0.00    +0.000 C 
ATOM     44  C40 UNL     1      75.663  54.925 102.679  0.00  0.00    +0.000 C 
ATOM     45  C41 UNL     1      76.126  57.362 102.052  0.00  0.00    +0.000 C 
ATOM     46  C44 UNL     1      76.186  58.517 100.983  0.00  0.00    +0.000 C 
ATOM     47  C45 UNL     1      76.701  59.820 101.637  0.00  0.00    +0.000 C 
ATOM     48  C46 UNL     1      71.483  53.788  93.607  0.00  0.00    +0.000 C 
ATOM     49  H14 UNL     1      67.499  55.597  97.832  0.00  0.00    +0.000 HD
ATOM     50  H32 UNL     1      69.569  55.272  96.645  0.00  0.00    +0.000 HD
ENDROOT
BRANCH   1  52
ATOM     51  C1  UNL     1      74.417  57.756  98.161  0.00  0.00    +0.000 C 
ATOM     52  O1  UNL     1      74.388  57.650  99.572  0.00  0.00    +0.000 OA
ENDBRANCH   1  52
BRANCH  14  53
ATOM     53  O5  UNL     1      71.199  61.127  94.924  0.00  0.00    +0.000 OA
ATOM     54  H13 UNL     1      72.102  60.849  94.578  0.00  0.00    +0.000 HD
ENDBRANCH  14  53
BRANCH  39  55
ATOM     55  O8  UNL     1      73.970  54.190  99.816  0.00  0.00    +0.000 OA
ATOM     56  H41 UNL     1      73.268  54.828  99.528  0.00  0.00    +0.000 HD
ENDBRANCH  39  55
BRANCH  42  57
ATOM     57  O9  UNL     1      78.099  55.319 100.972  0.00  0.00    +0.000 OA
ATOM     58  H47 UNL     1      78.157  54.462 101.466  0.00  0.00    +0.000 HD
ENDBRANCH  42  57
BRANCH  25  59
ATOM     59  C23 UNL     1      65.084  56.240 103.085  0.00  0.00    +0.000 C 
BRANCH  59  60
ATOM     60  C24 UNL     1      63.701  56.940 103.175  0.00  0.00    +0.000 C 
ATOM     61  C25 UNL     1      63.556  57.785 104.451  0.00  0.00    +0.000 C 
ATOM     62  C26 UNL     1      62.574  55.891 103.125  0.00  0.00    +0.000 C 
ENDBRANCH  59  60
ENDBRANCH  25  59
BRANCH  45  63
ATOM     63  O10 UNL     1      77.391  57.317 102.725  0.00  0.00    +0.000 OA
BRANCH  63  64
ATOM     64  C42 UNL     1      77.582  57.598 104.084  0.00  0.00    +0.000 C 
ATOM     65  C43 UNL     1      76.397  57.809 104.961  0.00  0.00    +0.000 C 
ATOM     66  O11 UNL     1      78.738  57.631 104.586  0.00  0.00    +0.000 OA
ENDBRANCH  63  64
ENDBRANCH  45  63
TORSDOF 8
ENDMDL
MODEL 4
REMARK VINA RESULT:      -7.8      3.759      9.691
REMARK  Name = ./S1741.pdb
REMARK  19 active torsions:
REMARK  status: ('A' for Active; 'I' for Inactive)
REMARK    1  A    between atoms: C1_1  and  O1_2
REMARK    2  A    between atoms: O1_2  and  C2_3
REMARK    3  A    between atoms: C5_7  and  C6_8
REMARK    4  A    between atoms: C12_16  and  O5_19
REMARK    5  A    between atoms: C13_17  and  C14_18
REMARK    6  A    between atoms: N2_28  and  C23_31
REMARK    7  A    between atoms: C23_31  and  C24_32
REMARK    8  A    between atoms: C24_32  and  C25_33
REMARK    9  A    between atoms: C24_32  and  C26_34
REMARK   10  A    between atoms: C29_40  and  C46_61
REMARK   11  A    between atoms: C33_44  and  C34_45
REMARK   12  A    between atoms: C35_46  and  O8_47
REMARK   13  A    between atoms: C36_48  and  C37_49
REMARK   14  A    between atoms: C38_50  and  O9_51
REMARK   15  A    between atoms: C39_52  and  C40_53
REMARK   16  A    between atoms: C41_54  and  O10_55
REMARK   17  A    between atoms: O10_55  and  C42_56
REMARK   18  A    between atoms: C42_56  and  C43_57
REMARK   19  A    between atoms: C44_59  and  C45_60
REMARK                            x       y       z     vdW  Elec       q    Type
REMARK                         _______ _______ _______ _____ _____    ______ ____
ROOT
ATOM      1  C2  UNL     1      77.541  65.211 105.079  0.00  0.00    +0.000 C 
ATOM      2  C3  UNL     1      77.689  65.141 103.566  0.00  0.00    +0.000 C 
ATOM      3  C4  UNL     1      78.346  64.130 102.996  0.00  0.00    +0.000 C 
ATOM      4  O2  UNL     1      78.512  64.073 101.607  0.00  0.00    +0.000 OA
ATOM      5  C5  UNL     1      78.834  62.853 100.920  0.00  0.00    +0.000 C 
ATOM      6  C6  UNL     1      79.492  63.154  99.573  0.00  0.00    +0.000 C 
ATOM      7  O3  UNL     1      79.683  62.022 101.718  0.00  0.00    +0.000 OA
ATOM      8  C7  UNL     1      78.949  60.965 102.253  0.00  0.00    +0.000 A 
ATOM      9  C8  UNL     1      77.689  60.889 101.710  0.00  0.00    +0.000 A 
ATOM     10  C9  UNL     1      77.595  62.017 100.783  0.00  0.00    +0.000 C 
ATOM     11  O4  UNL     1      76.603  62.334 100.077  0.00  0.00    +0.000 OA
ATOM     12  C10 UNL     1      76.704  60.071 102.287  0.00  0.00    +0.000 A 
ATOM     13  C11 UNL     1      77.009  59.402 103.508  0.00  0.00    +0.000 A 
ATOM     14  C12 UNL     1      78.366  59.339 103.942  0.00  0.00    +0.000 A 
ATOM     15  C13 UNL     1      79.349  60.138 103.306  0.00  0.00    +0.000 A 
ATOM     16  C14 UNL     1      80.748  60.226 103.839  0.00  0.00    +0.000 C 
ATOM     17  C15 UNL     1      75.859  59.004 104.396  0.00  0.00    +0.000 C 
ATOM     18  O6  UNL     1      76.071  58.760 105.610  0.00  0.00    +0.000 OA
ATOM     19  C16 UNL     1      74.448  59.090 103.897  0.00  0.00    +0.000 C 
ATOM     20  C17 UNL     1      74.267  59.490 102.630  0.00  0.00    +0.000 C 
ATOM     21  N1  UNL     1      73.037  59.724 101.969  0.00  0.00    +0.000 N 
ATOM     22  C18 UNL     1      73.377  60.380 100.698  0.00  0.00    +0.000 C 
ATOM     23  C19 UNL     1      72.772  61.809 100.678  0.00  0.00    +0.000 C 
ATOM     24  C20 UNL     1      71.697  61.968  99.602  0.00  0.00    +0.000 C 
ATOM     25  N2  UNL     1      72.257  61.610  98.285  0.00  0.00    +0.000 NA
ATOM     26  C21 UNL     1      72.876  60.264  98.189  0.00  0.00    +0.000 C 
ATOM     27  C22 UNL     1      72.900  59.498  99.522  0.00  0.00    +0.000 C 
ATOM     28  N3  UNL     1      74.847  60.466 100.702  0.00  0.00    +0.000 NA
ATOM     29  C27 UNL     1      75.314  59.991 101.806  0.00  0.00    +0.000 C 
ATOM     30  N4  UNL     1      73.320  59.096 104.802  0.00  0.00    +0.000 N 
ATOM     31  C28 UNL     1      73.315  58.500 106.106  0.00  0.00    +0.000 C 
ATOM     32  O7  UNL     1      73.491  57.256 106.237  0.00  0.00    +0.000 OA
ATOM     33  C29 UNL     1      73.034  59.355 107.278  0.00  0.00    +0.000 C 
ATOM     34  C30 UNL     1      73.572  60.585 107.286  0.00  0.00    +0.000 C 
ATOM     35  C31 UNL     1      73.171  61.671 108.188  0.00  0.00    +0.000 C 
ATOM     36  C32 UNL     1      72.620  62.755 107.640  0.00  0.00    +0.000 C 
ATOM     37  C33 UNL     1      72.579  64.099 108.313  0.00  0.00    +0.000 C 
ATOM     38  C34 UNL     1      71.117  64.559 108.459  0.00  0.00    +0.000 C 
ATOM     39  C35 UNL     1      73.448  65.080 107.464  0.00  0.00    +0.000 C 
ATOM     40  C36 UNL     1      73.721  66.514 108.032  0.00  0.00    +0.000 C 
ATOM     41  C37 UNL     1      73.852  66.508 109.573  0.00  0.00    +0.000 C 
ATOM     42  C38 UNL     1      75.038  67.127 107.417  0.00  0.00    +0.000 C 
ATOM     43  C39 UNL     1      75.075  67.285 105.851  0.00  0.00    +0.000 C 
ATOM     44  C40 UNL     1      74.014  68.289 105.354  0.00  0.00    +0.000 C 
ATOM     45  C41 UNL     1      76.495  67.664 105.292  0.00  0.00    +0.000 C 
ATOM     46  C44 UNL     1      77.668  66.668 105.629  0.00  0.00    +0.000 C 
ATOM     47  C45 UNL     1      79.018  67.267 105.173  0.00  0.00    +0.000 C 
ATOM     48  C46 UNL     1      72.112  58.887 108.363  0.00  0.00    +0.000 C 
ATOM     49  H14 UNL     1      72.078  59.481 102.309  0.00  0.00    +0.000 HD
ATOM     50  H32 UNL     1      72.598  59.855 104.631  0.00  0.00    +0.000 HD
ENDROOT
BRANCH   1  52
ATOM     51  C1  UNL     1      76.531  63.507 106.328  0.00  0.00    +0.000 C 
ATOM     52  O1  UNL     1      76.321  64.633 105.497  0.00  0.00    +0.000 OA
ENDBRANCH   1  52
BRANCH  14  53
ATOM     53  O5  UNL     1      78.755  58.495 104.988  0.00  0.00    +0.000 OA
ATOM     54  H13 UNL     1      78.490  57.526 105.029  0.00  0.00    +0.000 HD
ENDBRANCH  14  53
BRANCH  39  55
ATOM     55  O8  UNL     1      72.930  65.161 106.157  0.00  0.00    +0.000 OA
ATOM     56  H41 UNL     1      73.095  64.296 105.702  0.00  0.00    +0.000 HD
ENDBRANCH  39  55
BRANCH  42  57
ATOM     57  O9  UNL     1      75.370  68.354 108.029  0.00  0.00    +0.000 OA
ATOM     58  H47 UNL     1      75.599  68.172 108.977  0.00  0.00    +0.000 HD
ENDBRANCH  42  57
BRANCH  25  59
ATOM     59  C23 UNL     1      71.444  62.019  97.114  0.00  0.00    +0.000 C 
BRANCH  59  60
ATOM     60  C24 UNL     1      70.436  60.963  96.589  0.00  0.00    +0.000 C 
ATOM     61  C25 UNL     1      70.403  60.898  95.054  0.00  0.00    +0.000 C 
ATOM     62  C26 UNL     1      69.023  61.273  97.119  0.00  0.00    +0.000 C 
ENDBRANCH  59  60
ENDBRANCH  25  59
BRANCH  45  63
ATOM     63  O10 UNL     1      76.855  68.957 105.793  0.00  0.00    +0.000 OA
BRANCH  63  64
ATOM     64  C42 UNL     1      76.933  70.121 105.017  0.00  0.00    +0.000 C 
ATOM     65  C43 UNL     1      76.959  70.007 103.532  0.00  0.00    +0.000 C 
ATOM     66  O11 UNL     1      76.939  71.261 105.552  0.00  0.00    +0.000 OA
ENDBRANCH  63  64
ENDBRANCH  45  63
TORSDOF 8
ENDMDL
MODEL 5
REMARK VINA RESULT:      -7.6      6.803     11.780
REMARK  Name = ./S1741.pdb
REMARK  19 active torsions:
REMARK  status: ('A' for Active; 'I' for Inactive)
REMARK    1  A    between atoms: C1_1  and  O1_2
REMARK    2  A    between atoms: O1_2  and  C2_3
REMARK    3  A    between atoms: C5_7  and  C6_8
REMARK    4  A    between atoms: C12_16  and  O5_19
REMARK    5  A    between atoms: C13_17  and  C14_18
REMARK    6  A    between atoms: N2_28  and  C23_31
REMARK    7  A    between atoms: C23_31  and  C24_32
REMARK    8  A    between atoms: C24_32  and  C25_33
REMARK    9  A    between atoms: C24_32  and  C26_34
REMARK   10  A    between atoms: C29_40  and  C46_61
REMARK   11  A    between atoms: C33_44  and  C34_45
REMARK   12  A    between atoms: C35_46  and  O8_47
REMARK   13  A    between atoms: C36_48  and  C37_49
REMARK   14  A    between atoms: C38_50  and  O9_51
REMARK   15  A    between atoms: C39_52  and  C40_53
REMARK   16  A    between atoms: C41_54  and  O10_55
REMARK   17  A    between atoms: O10_55  and  C42_56
REMARK   18  A    between atoms: C42_56  and  C43_57
REMARK   19  A    between atoms: C44_59  and  C45_60
REMARK                            x       y       z     vdW  Elec       q    Type
REMARK                         _______ _______ _______ _____ _____    ______ ____
ROOT
ATOM      1  C2  UNL     1      72.722  61.309 102.118  0.00  0.00    +0.000 C 
ATOM      2  C3  UNL     1      71.241  60.966 102.186  0.00  0.00    +0.000 C 
ATOM      3  C4  UNL     1      70.502  60.931 101.076  0.00  0.00    +0.000 C 
ATOM      4  O2  UNL     1      69.133  60.645 101.133  0.00  0.00    +0.000 OA
ATOM      5  C5  UNL     1      68.391  60.200  99.986  0.00  0.00    +0.000 C 
ATOM      6  C6  UNL     1      66.903  60.500 100.160  0.00  0.00    +0.000 C 
ATOM      7  O3  UNL     1      68.888  60.804  98.787  0.00  0.00    +0.000 OA
ATOM      8  C7  UNL     1      69.639  59.880  98.063  0.00  0.00    +0.000 A 
ATOM      9  C8  UNL     1      69.524  58.611  98.576  0.00  0.00    +0.000 A 
ATOM     10  C9  UNL     1      68.663  58.742  99.752  0.00  0.00    +0.000 C 
ATOM     11  O4  UNL     1      68.305  57.823 100.533  0.00  0.00    +0.000 OA
ATOM     12  C10 UNL     1      70.391  57.585  98.166  0.00  0.00    +0.000 A 
ATOM     13  C11 UNL     1      71.460  57.916  97.282  0.00  0.00    +0.000 A 
ATOM     14  C12 UNL     1      71.442  59.178  96.616  0.00  0.00    +0.000 A 
ATOM     15  C13 UNL     1      70.518  60.175  97.018  0.00  0.00    +0.000 A 
ATOM     16  C14 UNL     1      70.580  61.565  96.460  0.00  0.00    +0.000 C 
ATOM     17  C15 UNL     1      72.670  57.020  97.278  0.00  0.00    +0.000 C 
ATOM     18  O6  UNL     1      73.758  57.450  96.818  0.00  0.00    +0.000 OA
ATOM     19  C16 UNL     1      72.644  55.703  97.995  0.00  0.00    +0.000 C 
ATOM     20  C17 UNL     1      71.496  55.351  98.591  0.00  0.00    +0.000 C 
ATOM     21  N1  UNL     1      71.256  54.205  99.388  0.00  0.00    +0.000 N 
ATOM     22  C18 UNL     1      69.937  54.407 100.004  0.00  0.00    +0.000 C 
ATOM     23  C19 UNL     1      70.095  54.493 101.545  0.00  0.00    +0.000 C 
ATOM     24  C20 UNL     1      69.413  53.328 102.263  0.00  0.00    +0.000 C 
ATOM     25  N2  UNL     1      67.990  53.271 101.878  0.00  0.00    +0.000 NA
ATOM     26  C21 UNL     1      67.717  53.199 100.420  0.00  0.00    +0.000 C 
ATOM     27  C22 UNL     1      68.981  53.280  99.549  0.00  0.00    +0.000 C 
ATOM     28  N3  UNL     1      69.473  55.704  99.481  0.00  0.00    +0.000 NA
ATOM     29  C27 UNL     1      70.377  56.221  98.722  0.00  0.00    +0.000 C 
ATOM     30  N4  UNL     1      73.860  55.004  98.346  0.00  0.00    +0.000 N 
ATOM     31  C28 UNL     1      75.104  55.124  97.644  0.00  0.00    +0.000 C 
ATOM     32  O7  UNL     1      75.185  54.782  96.430  0.00  0.00    +0.000 OA
ATOM     33  C29 UNL     1      76.295  55.589  98.384  0.00  0.00    +0.000 C 
ATOM     34  C30 UNL     1      76.120  56.577  99.275  0.00  0.00    +0.000 C 
ATOM     35  C31 UNL     1      77.092  56.960 100.307  0.00  0.00    +0.000 C 
ATOM     36  C32 UNL     1      76.736  56.791 101.580  0.00  0.00    +0.000 C 
ATOM     37  C33 UNL     1      77.374  57.526 102.727  0.00  0.00    +0.000 C 
ATOM     38  C34 UNL     1      77.971  56.514 103.721  0.00  0.00    +0.000 C 
ATOM     39  C35 UNL     1      76.283  58.442 103.367  0.00  0.00    +0.000 C 
ATOM     40  C36 UNL     1      76.720  59.454 104.480  0.00  0.00    +0.000 C 
ATOM     41  C37 UNL     1      78.140  60.011 104.226  0.00  0.00    +0.000 C 
ATOM     42  C38 UNL     1      75.713  60.664 104.576  0.00  0.00    +0.000 C 
ATOM     43  C39 UNL     1      74.215  60.308 104.902  0.00  0.00    +0.000 C 
ATOM     44  C40 UNL     1      74.069  59.684 106.305  0.00  0.00    +0.000 C 
ATOM     45  C41 UNL     1      73.231  61.522 104.736  0.00  0.00    +0.000 C 
ATOM     46  C44 UNL     1      73.188  62.200 103.314  0.00  0.00    +0.000 C 
ATOM     47  C45 UNL     1      72.322  63.479 103.363  0.00  0.00    +0.000 C 
ATOM     48  C46 UNL     1      77.622  54.915  98.198  0.00  0.00    +0.000 C 
ATOM     49  H14 UNL     1      71.885  53.380  99.516  0.00  0.00    +0.000 HD
ATOM     50  H32 UNL     1      73.919  54.659  99.348  0.00  0.00    +0.000 HD
ENDROOT
BRANCH   1  52
ATOM     51  C1  UNL     1      74.241  60.078 100.830  0.00  0.00    +0.000 C 
ATOM     52  O1  UNL     1      73.511  60.139 102.041  0.00  0.00    +0.000 OA
ENDBRANCH   1  52
BRANCH  14  53
ATOM     53  O5  UNL     1      72.319  59.455  95.562  0.00  0.00    +0.000 OA
ATOM     54  H13 UNL     1      72.335  58.913  94.715  0.00  0.00    +0.000 HD
ENDBRANCH  14  53
BRANCH  39  55
ATOM     55  O8  UNL     1      75.206  57.653 103.818  0.00  0.00    +0.000 OA
ATOM     56  H41 UNL     1      74.398  57.906 103.302  0.00  0.00    +0.000 HD
ENDBRANCH  39  55
BRANCH  42  57
ATOM     57  O9  UNL     1      76.176  61.650 105.472  0.00  0.00    +0.000 OA
ATOM     58  H47 UNL     1      75.494  61.763 106.183  0.00  0.00    +0.000 HD
ENDBRANCH  42  57
BRANCH  25  59
ATOM     59  C23 UNL     1      67.133  52.410 102.728  0.00  0.00    +0.000 C 
BRANCH  59  60
ATOM     60  C24 UNL     1      66.260  53.150 103.776  0.00  0.00    +0.000 C 
ATOM     61  C25 UNL     1      65.915  54.584 103.341  0.00  0.00    +0.000 C 
ATOM     62  C26 UNL     1      66.985  53.188 105.135  0.00  0.00    +0.000 C 
ENDBRANCH  59  60
ENDBRANCH  25  59
BRANCH  45  63
ATOM     63  O10 UNL     1      73.579  62.528 105.695  0.00  0.00    +0.000 OA
BRANCH  63  64
ATOM     64  C42 UNL     1      72.738  62.977 106.722  0.00  0.00    +0.000 C 
ATOM     65  C43 UNL     1      72.503  64.439 106.887  0.00  0.00    +0.000 C 
ATOM     66  O11 UNL     1      72.143  62.164 107.479  0.00  0.00    +0.000 OA
ENDBRANCH  63  64
ENDBRANCH  45  63
TORSDOF 8
ENDMDL
MODEL 6
REMARK VINA RESULT:      -7.4      4.984     10.165
REMARK  Name = ./S1741.pdb
REMARK  19 active torsions:
REMARK  status: ('A' for Active; 'I' for Inactive)
REMARK    1  A    between atoms: C1_1  and  O1_2
REMARK    2  A    between atoms: O1_2  and  C2_3
REMARK    3  A    between atoms: C5_7  and  C6_8
REMARK    4  A    between atoms: C12_16  and  O5_19
REMARK    5  A    between atoms: C13_17  and  C14_18
REMARK    6  A    between atoms: N2_28  and  C23_31
REMARK    7  A    between atoms: C23_31  and  C24_32
REMARK    8  A    between atoms: C24_32  and  C25_33
REMARK    9  A    between atoms: C24_32  and  C26_34
REMARK   10  A    between atoms: C29_40  and  C46_61
REMARK   11  A    between atoms: C33_44  and  C34_45
REMARK   12  A    between atoms: C35_46  and  O8_47
REMARK   13  A    between atoms: C36_48  and  C37_49
REMARK   14  A    between atoms: C38_50  and  O9_51
REMARK   15  A    between atoms: C39_52  and  C40_53
REMARK   16  A    between atoms: C41_54  and  O10_55
REMARK   17  A    between atoms: O10_55  and  C42_56
REMARK   18  A    between atoms: C42_56  and  C43_57
REMARK   19  A    between atoms: C44_59  and  C45_60
REMARK                            x       y       z     vdW  Elec       q    Type
REMARK                         _______ _______ _______ _____ _____    ______ ____
ROOT
ATOM      1  C2  UNL     1      78.269  62.456 103.002  0.00  0.00    +0.000 C 
ATOM      2  C3  UNL     1      78.068  61.515 101.823  0.00  0.00    +0.000 C 
ATOM      3  C4  UNL     1      77.606  60.278 102.014  0.00  0.00    +0.000 C 
ATOM      4  O2  UNL     1      77.447  59.397 100.940  0.00  0.00    +0.000 OA
ATOM      5  C5  UNL     1      76.598  58.240 101.012  0.00  0.00    +0.000 C 
ATOM      6  C6  UNL     1      77.025  57.195  99.981  0.00  0.00    +0.000 C 
ATOM      7  O3  UNL     1      76.607  57.677 102.329  0.00  0.00    +0.000 OA
ATOM      8  C7  UNL     1      75.423  57.996 102.992  0.00  0.00    +0.000 A 
ATOM      9  C8  UNL     1      74.501  58.566 102.149  0.00  0.00    +0.000 A 
ATOM     10  C9  UNL     1      75.166  58.661 100.849  0.00  0.00    +0.000 C 
ATOM     11  O4  UNL     1      74.687  59.138  99.788  0.00  0.00    +0.000 OA
ATOM     12  C10 UNL     1      73.353  59.196 102.657  0.00  0.00    +0.000 A 
ATOM     13  C11 UNL     1      73.218  59.320 104.070  0.00  0.00    +0.000 A 
ATOM     14  C12 UNL     1      74.076  58.557 104.917  0.00  0.00    +0.000 A 
ATOM     15  C13 UNL     1      75.199  57.889 104.366  0.00  0.00    +0.000 A 
ATOM     16  C14 UNL     1      76.214  57.220 105.243  0.00  0.00    +0.000 C 
ATOM     17  C15 UNL     1      72.340  60.424 104.597  0.00  0.00    +0.000 C 
ATOM     18  O6  UNL     1      72.474  60.807 105.787  0.00  0.00    +0.000 OA
ATOM     19  C16 UNL     1      71.456  61.202 103.669  0.00  0.00    +0.000 C 
ATOM     20  C17 UNL     1      71.453  60.841 102.377  0.00  0.00    +0.000 C 
ATOM     21  N1  UNL     1      70.770  61.472 101.309  0.00  0.00    +0.000 N 
ATOM     22  C18 UNL     1      71.286  60.858 100.077  0.00  0.00    +0.000 C 
ATOM     23  C19 UNL     1      72.009  61.936  99.228  0.00  0.00    +0.000 C 
ATOM     24  C20 UNL     1      71.299  62.201  97.900  0.00  0.00    +0.000 C 
ATOM     25  N2  UNL     1      71.162  60.938  97.150  0.00  0.00    +0.000 NA
ATOM     26  C21 UNL     1      70.493  59.826  97.872  0.00  0.00    +0.000 C 
ATOM     27  C22 UNL     1      70.127  60.164  99.326  0.00  0.00    +0.000 C 
ATOM     28  N3  UNL     1      72.261  59.855 100.538  0.00  0.00    +0.000 NA
ATOM     29  C27 UNL     1      72.357  59.891 101.823  0.00  0.00    +0.000 C 
ATOM     30  N4  UNL     1      70.906  62.487 104.039  0.00  0.00    +0.000 N 
ATOM     31  C28 UNL     1      70.649  62.908 105.385  0.00  0.00    +0.000 C 
ATOM     32  O7  UNL     1      69.820  62.279 106.101  0.00  0.00    +0.000 OA
ATOM     33  C29 UNL     1      71.318  64.125 105.889  0.00  0.00    +0.000 C 
ATOM     34  C30 UNL     1      72.599  64.315 105.536  0.00  0.00    +0.000 C 
ATOM     35  C31 UNL     1      73.330  65.580 105.674  0.00  0.00    +0.000 C 
ATOM     36  C32 UNL     1      73.738  66.181 104.556  0.00  0.00    +0.000 C 
ATOM     37  C33 UNL     1      74.854  67.187 104.511  0.00  0.00    +0.000 C 
ATOM     38  C34 UNL     1      74.328  68.516 103.938  0.00  0.00    +0.000 C 
ATOM     39  C35 UNL     1      76.013  66.571 103.666  0.00  0.00    +0.000 C 
ATOM     40  C36 UNL     1      77.376  67.341 103.599  0.00  0.00    +0.000 C 
ATOM     41  C37 UNL     1      77.694  68.064 104.929  0.00  0.00    +0.000 C 
ATOM     42  C38 UNL     1      78.566  66.361 103.261  0.00  0.00    +0.000 C 
ATOM     43  C39 UNL     1      78.464  65.576 101.901  0.00  0.00    +0.000 C 
ATOM     44  C40 UNL     1      78.504  66.528 100.688  0.00  0.00    +0.000 C 
ATOM     45  C41 UNL     1      79.545  64.445 101.747  0.00  0.00    +0.000 C 
ATOM     46  C44 UNL     1      79.556  63.331 102.861  0.00  0.00    +0.000 C 
ATOM     47  C45 UNL     1      80.781  62.406 102.673  0.00  0.00    +0.000 C 
ATOM     48  C46 UNL     1      70.558  65.140 106.688  0.00  0.00    +0.000 C 
ATOM     49  H14 UNL     1      70.044  62.221 101.376  0.00  0.00    +0.000 HD
ATOM     50  H32 UNL     1      71.018  63.259 103.320  0.00  0.00    +0.000 HD
ENDROOT
BRANCH   1  52
ATOM     51  C1  UNL     1      76.541  63.068 104.460  0.00  0.00    +0.000 C 
ATOM     52  O1  UNL     1      77.135  63.279 103.193  0.00  0.00    +0.000 OA
ENDBRANCH   1  52
BRANCH  14  53
ATOM     53  O5  UNL     1      73.831  58.447 106.290  0.00  0.00    +0.000 OA
ATOM     54  H13 UNL     1      74.500  58.053 106.929  0.00  0.00    +0.000 HD
ENDBRANCH  14  53
BRANCH  39  55
ATOM     55  O8  UNL     1      75.551  66.282 102.367  0.00  0.00    +0.000 OA
ATOM     56  H41 UNL     1      75.802  67.035 101.772  0.00  0.00    +0.000 HD
ENDBRANCH  39  55
BRANCH  42  57
ATOM     57  O9  UNL     1      79.812  67.017 103.343  0.00  0.00    +0.000 OA
ATOM     58  H47 UNL     1      80.324  66.806 102.521  0.00  0.00    +0.000 HD
ENDBRANCH  42  57
BRANCH  25  59
ATOM     59  C23 UNL     1      70.791  61.082  95.721  0.00  0.00    +0.000 C 
BRANCH  59  60
ATOM     60  C24 UNL     1      69.875  59.969  95.146  0.00  0.00    +0.000 C 
ATOM     61  C25 UNL     1      70.243  59.599  93.700  0.00  0.00    +0.000 C 
ATOM     62  C26 UNL     1      68.402  60.416  95.201  0.00  0.00    +0.000 C 
ENDBRANCH  59  60
ENDBRANCH  25  59
BRANCH  45  63
ATOM     63  O10 UNL     1      80.843  65.052 101.717  0.00  0.00    +0.000 OA
BRANCH  63  64
ATOM     64  C42 UNL     1      81.764  64.915 100.669  0.00  0.00    +0.000 C 
ATOM     65  C43 UNL     1      81.295  64.424  99.344  0.00  0.00    +0.000 C 
ATOM     66  O11 UNL     1      82.971  65.242 100.818  0.00  0.00    +0.000 OA
ENDBRANCH  63  64
ENDBRANCH  45  63
TORSDOF 8
ENDMDL
MODEL 7
REMARK VINA RESULT:      -7.4      3.784      9.759
REMARK  Name = ./S1741.pdb
REMARK  19 active torsions:
REMARK  status: ('A' for Active; 'I' for Inactive)
REMARK    1  A    between atoms: C1_1  and  O1_2
REMARK    2  A    between atoms: O1_2  and  C2_3
REMARK    3  A    between atoms: C5_7  and  C6_8
REMARK    4  A    between atoms: C12_16  and  O5_19
REMARK    5  A    between atoms: C13_17  and  C14_18
REMARK    6  A    between atoms: N2_28  and  C23_31
REMARK    7  A    between atoms: C23_31  and  C24_32
REMARK    8  A    between atoms: C24_32  and  C25_33
REMARK    9  A    between atoms: C24_32  and  C26_34
REMARK   10  A    between atoms: C29_40  and  C46_61
REMARK   11  A    between atoms: C33_44  and  C34_45
REMARK   12  A    between atoms: C35_46  and  O8_47
REMARK   13  A    between atoms: C36_48  and  C37_49
REMARK   14  A    between atoms: C38_50  and  O9_51
REMARK   15  A    between atoms: C39_52  and  C40_53
REMARK   16  A    between atoms: C41_54  and  O10_55
REMARK   17  A    between atoms: O10_55  and  C42_56
REMARK   18  A    between atoms: C42_56  and  C43_57
REMARK   19  A    between atoms: C44_59  and  C45_60
REMARK                            x       y       z     vdW  Elec       q    Type
REMARK                         _______ _______ _______ _____ _____    ______ ____
ROOT
ATOM      1  C2  UNL     1      75.051  64.203 107.965  0.00  0.00    +0.000 C 
ATOM      2  C3  UNL     1      76.550  64.113 108.213  0.00  0.00    +0.000 C 
ATOM      3  C4  UNL     1      77.373  63.705 107.246  0.00  0.00    +0.000 C 
ATOM      4  O2  UNL     1      78.749  63.590 107.474  0.00  0.00    +0.000 OA
ATOM      5  C5  UNL     1      79.707  63.558 106.404  0.00  0.00    +0.000 C 
ATOM      6  C6  UNL     1      81.001  62.884 106.862  0.00  0.00    +0.000 C 
ATOM      7  O3  UNL     1      79.173  62.889 105.256  0.00  0.00    +0.000 OA
ATOM      8  C7  UNL     1      78.827  63.821 104.279  0.00  0.00    +0.000 A 
ATOM      9  C8  UNL     1      79.280  65.081 104.589  0.00  0.00    +0.000 A 
ATOM     10  C9  UNL     1      79.930  64.952 105.893  0.00  0.00    +0.000 C 
ATOM     11  O4  UNL     1      80.476  65.869 106.560  0.00  0.00    +0.000 OA
ATOM     12  C10 UNL     1      78.824  66.205 103.881  0.00  0.00    +0.000 A 
ATOM     13  C11 UNL     1      77.803  66.022 102.904  0.00  0.00    +0.000 A 
ATOM     14  C12 UNL     1      77.494  64.699 102.466  0.00  0.00    +0.000 A 
ATOM     15  C13 UNL     1      78.012  63.583 103.170  0.00  0.00    +0.000 A 
ATOM     16  C14 UNL     1      77.576  62.186 102.845  0.00  0.00    +0.000 C 
ATOM     17  C15 UNL     1      76.941  67.207 102.559  0.00  0.00    +0.000 C 
ATOM     18  O6  UNL     1      75.827  67.023 102.007  0.00  0.00    +0.000 OA
ATOM     19  C16 UNL     1      77.304  68.578 103.044  0.00  0.00    +0.000 C 
ATOM     20  C17 UNL     1      78.437  68.700 103.751  0.00  0.00    +0.000 C 
ATOM     21  N1  UNL     1      78.939  69.867 104.377  0.00  0.00    +0.000 N 
ATOM     22  C18 UNL     1      80.059  69.425 105.221  0.00  0.00    +0.000 C 
ATOM     23  C19 UNL     1      79.724  69.707 106.710  0.00  0.00    +0.000 C 
ATOM     24  C20 UNL     1      80.658  70.748 107.327  0.00  0.00    +0.000 C 
ATOM     25  N2  UNL     1      82.059  70.313 107.171  0.00  0.00    +0.000 NA
ATOM     26  C21 UNL     1      82.489  70.002 105.785  0.00  0.00    +0.000 C 
ATOM     27  C22 UNL     1      81.360  70.111 104.747  0.00  0.00    +0.000 C 
ATOM     28  N3  UNL     1      80.144  67.971 105.000  0.00  0.00    +0.000 NA
ATOM     29  C27 UNL     1      79.207  67.591 104.201  0.00  0.00    +0.000 C 
ATOM     30  N4  UNL     1      76.339  69.655 103.076  0.00  0.00    +0.000 N 
ATOM     31  C28 UNL     1      75.199  69.756 102.212  0.00  0.00    +0.000 C 
ATOM     32  O7  UNL     1      75.354  69.850 100.962  0.00  0.00    +0.000 OA
ATOM     33  C29 UNL     1      73.852  69.815 102.817  0.00  0.00    +0.000 C 
ATOM     34  C30 UNL     1      73.616  69.024 103.876  0.00  0.00    +0.000 C 
ATOM     35  C31 UNL     1      72.473  69.157 104.786  0.00  0.00    +0.000 C 
ATOM     36  C32 UNL     1      72.730  69.474 106.055  0.00  0.00    +0.000 C 
ATOM     37  C33 UNL     1      71.780  69.205 107.189  0.00  0.00    +0.000 C 
ATOM     38  C34 UNL     1      71.431  70.528 107.894  0.00  0.00    +0.000 C 
ATOM     39  C35 UNL     1      72.458  68.166 108.138  0.00  0.00    +0.000 C 
ATOM     40  C36 UNL     1      71.613  67.574 109.318  0.00  0.00    +0.000 C 
ATOM     41  C37 UNL     1      70.124  67.409 108.934  0.00  0.00    +0.000 C 
ATOM     42  C38 UNL     1      72.176  66.172 109.771  0.00  0.00    +0.000 C 
ATOM     43  C39 UNL     1      73.668  66.141 110.270  0.00  0.00    +0.000 C 
ATOM     44  C40 UNL     1      73.857  66.971 111.557  0.00  0.00    +0.000 C 
ATOM     45  C41 UNL     1      74.234  64.688 110.467  0.00  0.00    +0.000 C 
ATOM     46  C44 UNL     1      74.209  63.750 109.201  0.00  0.00    +0.000 C 
ATOM     47  C45 UNL     1      74.622  62.314 109.598  0.00  0.00    +0.000 C 
ATOM     48  C46 UNL     1      72.830  70.789 102.313  0.00  0.00    +0.000 C 
ATOM     49  H14 UNL     1      78.591  70.846 104.265  0.00  0.00    +0.000 HD
ATOM     50  H32 UNL     1      76.287  70.200 103.985  0.00  0.00    +0.000 HD
ENDROOT
BRANCH   1  52
ATOM     51  C1  UNL     1      74.095  65.521 106.283  0.00  0.00    +0.000 C 
ATOM     52  O1  UNL     1      74.680  65.509 107.571  0.00  0.00    +0.000 OA
ENDBRANCH   1  52
BRANCH  14  53
ATOM     53  O5  UNL     1      76.687  64.476 101.345  0.00  0.00    +0.000 OA
ATOM     54  H13 UNL     1      76.304  65.226 100.796  0.00  0.00    +0.000 HD
ENDBRANCH  14  53
BRANCH  39  55
ATOM     55  O8  UNL     1      73.674  68.687 108.620  0.00  0.00    +0.000 OA
ATOM     56  H41 UNL     1      73.658  68.651 109.611  0.00  0.00    +0.000 HD
ENDBRANCH  39  55
BRANCH  42  57
ATOM     57  O9  UNL     1      71.338  65.566 110.731  0.00  0.00    +0.000 OA
ATOM     58  H47 UNL     1      71.430  64.583 110.642  0.00  0.00    +0.000 HD
ENDBRANCH  42  57
BRANCH  25  59
ATOM     59  C23 UNL     1      83.050  71.047 107.995  0.00  0.00    +0.000 C 
BRANCH  59  60
ATOM     60  C24 UNL     1      82.794  71.039 109.526  0.00  0.00    +0.000 C 
ATOM     61  C25 UNL     1      82.712  72.458 110.112  0.00  0.00    +0.000 C 
ATOM     62  C26 UNL     1      83.907  70.251 110.243  0.00  0.00    +0.000 C 
ENDBRANCH  59  60
ENDBRANCH  25  59
BRANCH  45  63
ATOM     63  O10 UNL     1      73.492  64.044 111.509  0.00  0.00    +0.000 OA
BRANCH  63  64
ATOM     64  C42 UNL     1      74.016  63.687 112.759  0.00  0.00    +0.000 C 
ATOM     65  C43 UNL     1      75.450  63.963 113.055  0.00  0.00    +0.000 C 
ATOM     66  O11 UNL     1      73.286  63.177 113.650  0.00  0.00    +0.000 OA
ENDBRANCH  63  64
ENDBRANCH  45  63
TORSDOF 8
ENDMDL
MODEL 8
REMARK VINA RESULT:      -7.4      4.076      9.576
REMARK  Name = ./S1741.pdb
REMARK  19 active torsions:
REMARK  status: ('A' for Active; 'I' for Inactive)
REMARK    1  A    between atoms: C1_1  and  O1_2
REMARK    2  A    between atoms: O1_2  and  C2_3
REMARK    3  A    between atoms: C5_7  and  C6_8
REMARK    4  A    between atoms: C12_16  and  O5_19
REMARK    5  A    between atoms: C13_17  and  C14_18
REMARK    6  A    between atoms: N2_28  and  C23_31
REMARK    7  A    between atoms: C23_31  and  C24_32
REMARK    8  A    between atoms: C24_32  and  C25_33
REMARK    9  A    between atoms: C24_32  and  C26_34
REMARK   10  A    between atoms: C29_40  and  C46_61
REMARK   11  A    between atoms: C33_44  and  C34_45
REMARK   12  A    between atoms: C35_46  and  O8_47
REMARK   13  A    between atoms: C36_48  and  C37_49
REMARK   14  A    between atoms: C38_50  and  O9_51
REMARK   15  A    between atoms: C39_52  and  C40_53
REMARK   16  A    between atoms: C41_54  and  O10_55
REMARK   17  A    between atoms: O10_55  and  C42_56
REMARK   18  A    between atoms: C42_56  and  C43_57
REMARK   19  A    between atoms: C44_59  and  C45_60
REMARK                            x       y       z     vdW  Elec       q    Type
REMARK                         _______ _______ _______ _____ _____    ______ ____
ROOT
ATOM      1  C2  UNL     1      75.595  64.019 105.084  0.00  0.00    +0.000 C 
ATOM      2  C3  UNL     1      77.054  64.135 105.502  0.00  0.00    +0.000 C 
ATOM      3  C4  UNL     1      77.963  64.632 104.660  0.00  0.00    +0.000 C 
ATOM      4  O2  UNL     1      79.311  64.714 105.025  0.00  0.00    +0.000 OA
ATOM      5  C5  UNL     1      80.238  65.584 104.356  0.00  0.00    +0.000 C 
ATOM      6  C6  UNL     1      81.671  65.089 104.546  0.00  0.00    +0.000 C 
ATOM      7  O3  UNL     1      79.926  65.694 102.963  0.00  0.00    +0.000 OA
ATOM      8  C7  UNL     1      79.323  66.925 102.705  0.00  0.00    +0.000 A 
ATOM      9  C8  UNL     1      79.385  67.764 103.791  0.00  0.00    +0.000 A 
ATOM     10  C9  UNL     1      80.042  66.991 104.845  0.00  0.00    +0.000 C 
ATOM     11  O4  UNL     1      80.293  67.372 106.018  0.00  0.00    +0.000 OA
ATOM     12  C10 UNL     1      78.620  68.941 103.837  0.00  0.00    +0.000 A 
ATOM     13  C11 UNL     1      77.699  69.191 102.778  0.00  0.00    +0.000 A 
ATOM     14  C12 UNL     1      77.793  68.419 101.582  0.00  0.00    +0.000 A 
ATOM     15  C13 UNL     1      78.616  67.265 101.550  0.00  0.00    +0.000 A 
ATOM     16  C14 UNL     1      78.610  66.337 100.372  0.00  0.00    +0.000 C 
ATOM     17  C15 UNL     1      76.527  70.092 103.066  0.00  0.00    +0.000 C 
ATOM     18  O6  UNL     1      75.518  70.053 102.318  0.00  0.00    +0.000 OA
ATOM     19  C16 UNL     1      76.470  70.883 104.339  0.00  0.00    +0.000 C 
ATOM     20  C17 UNL     1      77.516  70.783 105.171  0.00  0.00    +0.000 C 
ATOM     21  N1  UNL     1      77.652  71.365 106.456  0.00  0.00    +0.000 N 
ATOM     22  C18 UNL     1      78.851  70.757 107.052  0.00  0.00    +0.000 C 
ATOM     23  C19 UNL     1      78.446  69.948 108.312  0.00  0.00    +0.000 C 
ATOM     24  C20 UNL     1      79.031  70.540 109.595  0.00  0.00    +0.000 C 
ATOM     25  N2  UNL     1      80.498  70.634 109.473  0.00  0.00    +0.000 NA
ATOM     26  C21 UNL     1      81.003  71.379 108.292  0.00  0.00    +0.000 C 
ATOM     27  C22 UNL     1      79.894  71.860 107.343  0.00  0.00    +0.000 C 
ATOM     28  N3  UNL     1      79.360  69.840 106.018  0.00  0.00    +0.000 NA
ATOM     29  C27 UNL     1      78.578  69.852 104.994  0.00  0.00    +0.000 C 
ATOM     30  N4  UNL     1      75.231  71.442 104.833  0.00  0.00    +0.000 N 
ATOM     31  C28 UNL     1      74.114  71.804 104.012  0.00  0.00    +0.000 C 
ATOM     32  O7  UNL     1      74.236  72.700 103.129  0.00  0.00    +0.000 OA
ATOM     33  C29 UNL     1      72.808  71.160 104.264  0.00  0.00    +0.000 C 
ATOM     34  C30 UNL     1      72.814  69.851 104.561  0.00  0.00    +0.000 C 
ATOM     35  C31 UNL     1      71.680  69.114 105.132  0.00  0.00    +0.000 C 
ATOM     36  C32 UNL     1      71.831  68.605 106.355  0.00  0.00    +0.000 C 
ATOM     37  C33 UNL     1      71.000  67.473 106.893  0.00  0.00    +0.000 C 
ATOM     38  C34 UNL     1      70.276  67.927 108.173  0.00  0.00    +0.000 C 
ATOM     39  C35 UNL     1      71.951  66.257 107.127  0.00  0.00    +0.000 C 
ATOM     40  C36 UNL     1      71.316  64.881 107.524  0.00  0.00    +0.000 C 
ATOM     41  C37 UNL     1      69.942  64.664 106.849  0.00  0.00    +0.000 C 
ATOM     42  C38 UNL     1      72.266  63.683 107.133  0.00  0.00    +0.000 C 
ATOM     43  C39 UNL     1      73.700  63.683 107.781  0.00  0.00    +0.000 C 
ATOM     44  C40 UNL     1      73.634  63.526 109.315  0.00  0.00    +0.000 C 
ATOM     45  C41 UNL     1      74.668  62.611 107.161  0.00  0.00    +0.000 C 
ATOM     46  C44 UNL     1      74.922  62.711 105.609  0.00  0.00    +0.000 C 
ATOM     47  C45 UNL     1      75.738  61.490 105.126  0.00  0.00    +0.000 C 
ATOM     48  C46 UNL     1      71.545  71.969 104.270  0.00  0.00    +0.000 C 
ATOM     49  H14 UNL     1      77.032  72.082 106.895  0.00  0.00    +0.000 HD
ATOM     50  H32 UNL     1      75.020  71.258 105.856  0.00  0.00    +0.000 HD
ENDROOT
BRANCH   1  52
ATOM     51  C1  UNL     1      74.210  65.783 104.409  0.00  0.00    +0.000 C 
ATOM     52  O1  UNL     1      74.857  65.152 105.498  0.00  0.00    +0.000 OA
ENDBRANCH   1  52
BRANCH  14  53
ATOM     53  O5  UNL     1      77.090  68.780 100.428  0.00  0.00    +0.000 OA
ATOM     54  H13 UNL     1      77.261  68.352  99.534  0.00  0.00    +0.000 HD
ENDBRANCH  14  53
BRANCH  39  55
ATOM     55  O8  UNL     1      72.960  66.613 108.042  0.00  0.00    +0.000 OA
ATOM     56  H41 UNL     1      72.740  66.211 108.922  0.00  0.00    +0.000 HD
ENDBRANCH  39  55
BRANCH  42  57
ATOM     57  O9  UNL     1      71.641  62.437 107.354  0.00  0.00    +0.000 OA
ATOM     58  H47 UNL     1      72.341  61.783 107.608  0.00  0.00    +0.000 HD
ENDBRANCH  42  57
BRANCH  25  59
ATOM     59  C23 UNL     1      81.229  70.881 110.740  0.00  0.00    +0.000 C 
BRANCH  59  60
ATOM     60  C24 UNL     1      82.777  70.853 110.643  0.00  0.00    +0.000 C 
ATOM     61  C25 UNL     1      83.377  69.569 111.238  0.00  0.00    +0.000 C 
ATOM     62  C26 UNL     1      83.374  72.078 111.362  0.00  0.00    +0.000 C 
ENDBRANCH  59  60
ENDBRANCH  25  59
BRANCH  45  63
ATOM     63  O10 UNL     1      74.146  61.306 107.440  0.00  0.00    +0.000 OA
BRANCH  63  64
ATOM     64  C42 UNL     1      74.617  60.458 108.451  0.00  0.00    +0.000 C 
ATOM     65  C43 UNL     1      73.936  59.154 108.687  0.00  0.00    +0.000 C 
ATOM     66  O11 UNL     1      75.632  60.759 109.134  0.00  0.00    +0.000 OA
ENDBRANCH  63  64
ENDBRANCH  45  63
TORSDOF 8
ENDMDL
MODEL 9
REMARK VINA RESULT:      -7.4      3.038      8.861
REMARK  Name = ./S1741.pdb
REMARK  19 active torsions:
REMARK  status: ('A' for Active; 'I' for Inactive)
REMARK    1  A    between atoms: C1_1  and  O1_2
REMARK    2  A    between atoms: O1_2  and  C2_3
REMARK    3  A    between atoms: C5_7  and  C6_8
REMARK    4  A    between atoms: C12_16  and  O5_19
REMARK    5  A    between atoms: C13_17  and  C14_18
REMARK    6  A    between atoms: N2_28  and  C23_31
REMARK    7  A    between atoms: C23_31  and  C24_32
REMARK    8  A    between atoms: C24_32  and  C25_33
REMARK    9  A    between atoms: C24_32  and  C26_34
REMARK   10  A    between atoms: C29_40  and  C46_61
REMARK   11  A    between atoms: C33_44  and  C34_45
REMARK   12  A    between atoms: C35_46  and  O8_47
REMARK   13  A    between atoms: C36_48  and  C37_49
REMARK   14  A    between atoms: C38_50  and  O9_51
REMARK   15  A    between atoms: C39_52  and  C40_53
REMARK   16  A    between atoms: C41_54  and  O10_55
REMARK   17  A    between atoms: O10_55  and  C42_56
REMARK   18  A    between atoms: C42_56  and  C43_57
REMARK   19  A    between atoms: C44_59  and  C45_60
REMARK                            x       y       z     vdW  Elec       q    Type
REMARK                         _______ _______ _______ _____ _____    ______ ____
ROOT
ATOM      1  C2  UNL     1      75.065  59.945 107.102  0.00  0.00    +0.000 C 
ATOM      2  C3  UNL     1      74.215  60.993 107.806  0.00  0.00    +0.000 C 
ATOM      3  C4  UNL     1      74.727  61.728 108.794  0.00  0.00    +0.000 C 
ATOM      4  O2  UNL     1      73.944  62.673 109.467  0.00  0.00    +0.000 OA
ATOM      5  C5  UNL     1      74.518  63.748 110.228  0.00  0.00    +0.000 C 
ATOM      6  C6  UNL     1      73.523  64.257 111.272  0.00  0.00    +0.000 C 
ATOM      7  O3  UNL     1      75.737  63.338 110.856  0.00  0.00    +0.000 OA
ATOM      8  C7  UNL     1      76.828  63.875 110.174  0.00  0.00    +0.000 A 
ATOM      9  C8  UNL     1      76.442  64.803 109.238  0.00  0.00    +0.000 A 
ATOM     10  C9  UNL     1      74.980  64.828 109.294  0.00  0.00    +0.000 C 
ATOM     11  O4  UNL     1      74.208  65.533 108.592  0.00  0.00    +0.000 OA
ATOM     12  C10 UNL     1      77.345  65.270 108.270  0.00  0.00    +0.000 A 
ATOM     13  C11 UNL     1      78.643  64.683 108.216  0.00  0.00    +0.000 A 
ATOM     14  C12 UNL     1      79.083  63.875 109.307  0.00  0.00    +0.000 A 
ATOM     15  C13 UNL     1      78.157  63.463 110.298  0.00  0.00    +0.000 A 
ATOM     16  C14 UNL     1      78.542  62.480 111.363  0.00  0.00    +0.000 C 
ATOM     17  C15 UNL     1      79.390  64.749 106.910  0.00  0.00    +0.000 C 
ATOM     18  O6  UNL     1      80.340  63.954 106.699  0.00  0.00    +0.000 OA
ATOM     19  C16 UNL     1      78.888  65.610 105.790  0.00  0.00    +0.000 C 
ATOM     20  C17 UNL     1      77.786  66.338 106.021  0.00  0.00    +0.000 C 
ATOM     21  N1  UNL     1      77.085  67.154 105.100  0.00  0.00    +0.000 N 
ATOM     22  C18 UNL     1      75.827  67.527 105.762  0.00  0.00    +0.000 C 
ATOM     23  C19 UNL     1      74.632  66.941 104.966  0.00  0.00    +0.000 C 
ATOM     24  C20 UNL     1      73.753  68.031 104.352  0.00  0.00    +0.000 C 
ATOM     25  N2  UNL     1      73.287  68.947 105.412  0.00  0.00    +0.000 NA
ATOM     26  C21 UNL     1      74.348  69.560 106.249  0.00  0.00    +0.000 C 
ATOM     27  C22 UNL     1      75.764  69.064 105.915  0.00  0.00    +0.000 C 
ATOM     28  N3  UNL     1      75.898  66.890 107.088  0.00  0.00    +0.000 NA
ATOM     29  C27 UNL     1      76.987  66.208 107.191  0.00  0.00    +0.000 C 
ATOM     30  N4  UNL     1      79.329  65.417 104.426  0.00  0.00    +0.000 N 
ATOM     31  C28 UNL     1      80.590  64.853 104.047  0.00  0.00    +0.000 C 
ATOM     32  O7  UNL     1      81.668  65.423 104.378  0.00  0.00    +0.000 OA
ATOM     33  C29 UNL     1      80.601  63.636 103.208  0.00  0.00    +0.000 C 
ATOM     34  C30 UNL     1      79.686  62.692 103.480  0.00  0.00    +0.000 C 
ATOM     35  C31 UNL     1      79.340  61.577 102.591  0.00  0.00    +0.000 C 
ATOM     36  C32 UNL     1      78.102  61.544 102.098  0.00  0.00    +0.000 C 
ATOM     37  C33 UNL     1      77.447  60.294 101.577  0.00  0.00    +0.000 C 
ATOM     38  C34 UNL     1      77.037  60.501 100.108  0.00  0.00    +0.000 C 
ATOM     39  C35 UNL     1      76.238  59.969 102.510  0.00  0.00    +0.000 C 
ATOM     40  C36 UNL     1      75.477  58.616 102.299  0.00  0.00    +0.000 C 
ATOM     41  C37 UNL     1      76.430  57.483 101.852  0.00  0.00    +0.000 C 
ATOM     42  C38 UNL     1      74.741  58.165 103.620  0.00  0.00    +0.000 C 
ATOM     43  C39 UNL     1      73.669  59.159 104.202  0.00  0.00    +0.000 C 
ATOM     44  C40 UNL     1      72.476  59.340 103.239  0.00  0.00    +0.000 C 
ATOM     45  C41 UNL     1      73.163  58.766 105.637  0.00  0.00    +0.000 C 
ATOM     46  C44 UNL     1      74.261  58.649 106.760  0.00  0.00    +0.000 C 
ATOM     47  C45 UNL     1      73.637  58.081 108.054  0.00  0.00    +0.000 C 
ATOM     48  C46 UNL     1      81.545  63.514 102.050  0.00  0.00    +0.000 C 
ATOM     49  H14 UNL     1      77.395  67.439 104.142  0.00  0.00    +0.000 HD
ATOM     50  H32 UNL     1      78.559  65.378 103.696  0.00  0.00    +0.000 HD
ENDROOT
BRANCH   1  52
ATOM     51  C1  UNL     1      75.515  61.882 105.865  0.00  0.00    +0.000 C 
ATOM     52  O1  UNL     1      75.662  60.476 105.936  0.00  0.00    +0.000 OA
ENDBRANCH   1  52
BRANCH  14  53
ATOM     53  O5  UNL     1      80.420  63.482 109.426  0.00  0.00    +0.000 OA
ATOM     54  H13 UNL     1      80.852  62.834 108.789  0.00  0.00    +0.000 HD
ENDBRANCH  14  53
BRANCH  39  55
ATOM     55  O8  UNL     1      75.331  61.047 102.504  0.00  0.00    +0.000 OA
ATOM     56  H41 UNL     1      75.501  61.593 101.694  0.00  0.00    +0.000 HD
ENDBRANCH  39  55
BRANCH  42  57
ATOM     57  O9  UNL     1      74.177  56.880 103.481  0.00  0.00    +0.000 OA
ATOM     58  H47 UNL     1      73.926  56.756 102.530  0.00  0.00    +0.000 HD
ENDBRANCH  42  57
BRANCH  25  59
ATOM     59  C23 UNL     1      72.177  69.853 105.028  0.00  0.00    +0.000 C 
BRANCH  59  60
ATOM     60  C24 UNL     1      70.967  69.886 105.999  0.00  0.00    +0.000 C 
ATOM     61  C25 UNL     1      70.704  68.519 106.651  0.00  0.00    +0.000 C 
ATOM     62  C26 UNL     1      69.702  70.349 105.251  0.00  0.00    +0.000 C 
ENDBRANCH  59  60
ENDBRANCH  25  59
BRANCH  45  63
ATOM     63  O10 UNL     1      72.480  57.509 105.553  0.00  0.00    +0.000 OA
BRANCH  63  64
ATOM     64  C42 UNL     1      71.271  57.213 106.196  0.00  0.00    +0.000 C 
ATOM     65  C43 UNL     1      70.457  58.321 106.767  0.00  0.00    +0.000 C 
ATOM     66  O11 UNL     1      70.841  56.030 106.261  0.00  0.00    +0.000 OA
ENDBRANCH  63  64
ENDBRANCH  45  63
TORSDOF 8
ENDMDL
MODEL 10
REMARK VINA RESULT:      -7.3      7.020     12.043
REMARK  Name = ./S1741.pdb
REMARK  19 active torsions:
REMARK  status: ('A' for Active; 'I' for Inactive)
REMARK    1  A    between atoms: C1_1  and  O1_2
REMARK    2  A    between atoms: O1_2  and  C2_3
REMARK    3  A    between atoms: C5_7  and  C6_8
REMARK    4  A    between atoms: C12_16  and  O5_19
REMARK    5  A    between atoms: C13_17  and  C14_18
REMARK    6  A    between atoms: N2_28  and  C23_31
REMARK    7  A    between atoms: C23_31  and  C24_32
REMARK    8  A    between atoms: C24_32  and  C25_33
REMARK    9  A    between atoms: C24_32  and  C26_34
REMARK   10  A    between atoms: C29_40  and  C46_61
REMARK   11  A    between atoms: C33_44  and  C34_45
REMARK   12  A    between atoms: C35_46  and  O8_47
REMARK   13  A    between atoms: C36_48  and  C37_49
REMARK   14  A    between atoms: C38_50  and  O9_51
REMARK   15  A    between atoms: C39_52  and  C40_53
REMARK   16  A    between atoms: C41_54  and  O10_55
REMARK   17  A    between atoms: O10_55  and  C42_56
REMARK   18  A    between atoms: C42_56  and  C43_57
REMARK   19  A    between atoms: C44_59  and  C45_60
REMARK                            x       y       z     vdW  Elec       q    Type
REMARK                         _______ _______ _______ _____ _____    ______ ____
ROOT
ATOM      1  C2  UNL     1      74.624  70.947  99.187  0.00  0.00    +0.000 C 
ATOM      2  C3  UNL     1      74.032  69.562  98.970  0.00  0.00    +0.000 C 
ATOM      3  C4  UNL     1      74.301  68.876  97.858  0.00  0.00    +0.000 C 
ATOM      4  O2  UNL     1      73.737  67.615  97.637  0.00  0.00    +0.000 OA
ATOM      5  C5  UNL     1      74.287  66.679  96.696  0.00  0.00    +0.000 C 
ATOM      6  C6  UNL     1      73.221  65.679  96.248  0.00  0.00    +0.000 C 
ATOM      7  O3  UNL     1      74.846  67.357  95.565  0.00  0.00    +0.000 OA
ATOM      8  C7  UNL     1      76.238  67.358  95.650  0.00  0.00    +0.000 A 
ATOM      9  C8  UNL     1      76.691  66.543  96.658  0.00  0.00    +0.000 A 
ATOM     10  C9  UNL     1      75.488  66.012  97.301  0.00  0.00    +0.000 C 
ATOM     11  O4  UNL     1      75.440  65.229  98.285  0.00  0.00    +0.000 OA
ATOM     12  C10 UNL     1      78.028  66.598  97.084  0.00  0.00    +0.000 A 
ATOM     13  C11 UNL     1      78.879  67.591  96.516  0.00  0.00    +0.000 A 
ATOM     14  C12 UNL     1      78.448  68.285  95.346  0.00  0.00    +0.000 A 
ATOM     15  C13 UNL     1      77.103  68.168  94.911  0.00  0.00    +0.000 A 
ATOM     16  C14 UNL     1      76.572  69.009  93.790  0.00  0.00    +0.000 C 
ATOM     17  C15 UNL     1      80.081  68.024  97.313  0.00  0.00    +0.000 C 
ATOM     18  O6  UNL     1      80.637  69.120  97.049  0.00  0.00    +0.000 OA
ATOM     19  C16 UNL     1      80.495  67.265  98.539  0.00  0.00    +0.000 C 
ATOM     20  C17 UNL     1      79.780  66.177  98.857  0.00  0.00    +0.000 C 
ATOM     21  N1  UNL     1      79.928  65.355 100.001  0.00  0.00    +0.000 N 
ATOM     22  C18 UNL     1      78.761  64.461 100.013  0.00  0.00    +0.000 C 
ATOM     23  C19 UNL     1      77.911  64.741 101.280  0.00  0.00    +0.000 C 
ATOM     24  C20 UNL     1      77.886  63.549 102.238  0.00  0.00    +0.000 C 
ATOM     25  N2  UNL     1      77.400  62.352 101.526  0.00  0.00    +0.000 NA
ATOM     26  C21 UNL     1      78.134  61.993 100.287  0.00  0.00    +0.000 C 
ATOM     27  C22 UNL     1      79.238  62.994  99.910  0.00  0.00    +0.000 C 
ATOM     28  N3  UNL     1      77.994  64.829  98.811  0.00  0.00    +0.000 NA
ATOM     29  C27 UNL     1      78.570  65.810  98.205  0.00  0.00    +0.000 C 
ATOM     30  N4  UNL     1      81.373  67.844  99.531  0.00  0.00    +0.000 N 
ATOM     31  C28 UNL     1      82.345  68.864  99.268  0.00  0.00    +0.000 C 
ATOM     32  O7  UNL     1      83.296  68.644  98.466  0.00  0.00    +0.000 OA
ATOM     33  C29 UNL     1      82.249  70.144 100.000  0.00  0.00    +0.000 C 
ATOM     34  C30 UNL     1      81.021  70.652 100.193  0.00  0.00    +0.000 C 
ATOM     35  C31 UNL     1      80.697  71.727 101.139  0.00  0.00    +0.000 C 
ATOM     36  C32 UNL     1      79.892  71.426 102.159  0.00  0.00    +0.000 C 
ATOM     37  C33 UNL     1      79.104  72.451 102.927  0.00  0.00    +0.000 C 
ATOM     38  C34 UNL     1      79.492  72.391 104.415  0.00  0.00    +0.000 C 
ATOM     39  C35 UNL     1      77.589  72.168 102.677  0.00  0.00    +0.000 C 
ATOM     40  C36 UNL     1      76.540  73.196 103.222  0.00  0.00    +0.000 C 
ATOM     41  C37 UNL     1      77.071  74.647 103.163  0.00  0.00    +0.000 C 
ATOM     42  C38 UNL     1      75.191  73.118 102.406  0.00  0.00    +0.000 C 
ATOM     43  C39 UNL     1      74.451  71.729 102.402  0.00  0.00    +0.000 C 
ATOM     44  C40 UNL     1      73.972  71.334 103.814  0.00  0.00    +0.000 C 
ATOM     45  C41 UNL     1      73.262  71.656 101.377  0.00  0.00    +0.000 C 
ATOM     46  C44 UNL     1      73.620  71.931  99.868  0.00  0.00    +0.000 C 
ATOM     47  C45 UNL     1      72.328  72.004  99.022  0.00  0.00    +0.000 C 
ATOM     48  C46 UNL     1      83.474  70.790 100.574  0.00  0.00    +0.000 C 
ATOM     49  H14 UNL     1      80.707  65.374 100.699  0.00  0.00    +0.000 HD
ATOM     50  H32 UNL     1      81.051  67.753 100.539  0.00  0.00    +0.000 HD
ENDROOT
BRANCH   1  52
ATOM     51  C1  UNL     1      76.931  71.354  99.193  0.00  0.00    +0.000 C 
ATOM     52  O1  UNL     1      75.823  70.875  99.932  0.00  0.00    +0.000 OA
ENDBRANCH   1  52
BRANCH  14  53
ATOM     53  O5  UNL     1      79.330  69.081  94.608  0.00  0.00    +0.000 OA
ATOM     54  H13 UNL     1      80.326  68.946  94.627  0.00  0.00    +0.000 HD
ENDBRANCH  14  53
BRANCH  39  55
ATOM     55  O8  UNL     1      77.272  70.867 103.112  0.00  0.00    +0.000 OA
ATOM     56  H41 UNL     1      78.082  70.302 103.023  0.00  0.00    +0.000 HD
ENDBRANCH  39  55
BRANCH  42  57
ATOM     57  O9  UNL     1      74.296  74.137 102.794  0.00  0.00    +0.000 OA
ATOM     58  H47 UNL     1      74.524  74.956 102.285  0.00  0.00    +0.000 HD
ENDBRANCH  42  57
BRANCH  25  59
ATOM     59  C23 UNL     1      77.016  61.209 102.390  0.00  0.00    +0.000 C 
BRANCH  59  60
ATOM     60  C24 UNL     1      78.001  60.010 102.401  0.00  0.00    +0.000 C 
ATOM     61  C25 UNL     1      77.278  58.660 102.540  0.00  0.00    +0.000 C 
ATOM     62  C26 UNL     1      79.013  60.169 103.552  0.00  0.00    +0.000 C 
ENDBRANCH  59  60
ENDBRANCH  25  59
BRANCH  45  63
ATOM     63  O10 UNL     1      72.257  72.598 101.772  0.00  0.00    +0.000 OA
BRANCH  63  64
ATOM     64  C42 UNL     1      71.024  72.258 102.344  0.00  0.00    +0.000 C 
ATOM     65  C43 UNL     1      70.508  70.869 102.194  0.00  0.00    +0.000 C 
ATOM     66  O11 UNL     1      70.367  73.094 103.019  0.00  0.00    +0.000 OA
ENDBRANCH  63  64
ENDBRANCH  45  63
TORSDOF 8
ENDMDL
MODEL 11
REMARK VINA RESULT:      -7.2      3.826      8.770
REMARK  Name = ./S1741.pdb
REMARK  19 active torsions:
REMARK  status: ('A' for Active; 'I' for Inactive)
REMARK    1  A    between atoms: C1_1  and  O1_2
REMARK    2  A    between atoms: O1_2  and  C2_3
REMARK    3  A    between atoms: C5_7  and  C6_8
REMARK    4  A    between atoms: C12_16  and  O5_19
REMARK    5  A    between atoms: C13_17  and  C14_18
REMARK    6  A    between atoms: N2_28  and  C23_31
REMARK    7  A    between atoms: C23_31  and  C24_32
REMARK    8  A    between atoms: C24_32  and  C25_33
REMARK    9  A    between atoms: C24_32  and  C26_34
REMARK   10  A    between atoms: C29_40  and  C46_61
REMARK   11  A    between atoms: C33_44  and  C34_45
REMARK   12  A    between atoms: C35_46  and  O8_47
REMARK   13  A    between atoms: C36_48  and  C37_49
REMARK   14  A    between atoms: C38_50  and  O9_51
REMARK   15  A    between atoms: C39_52  and  C40_53
REMARK   16  A    between atoms: C41_54  and  O10_55
REMARK   17  A    between atoms: O10_55  and  C42_56
REMARK   18  A    between atoms: C42_56  and  C43_57
REMARK   19  A    between atoms: C44_59  and  C45_60
REMARK                            x       y       z     vdW  Elec       q    Type
REMARK                         _______ _______ _______ _____ _____    ______ ____
ROOT
ATOM      1  C2  UNL     1      72.188  62.715 105.463  0.00  0.00    +0.000 C 
ATOM      2  C3  UNL     1      71.572  64.105 105.545  0.00  0.00    +0.000 C 
ATOM      3  C4  UNL     1      71.630  64.806 106.678  0.00  0.00    +0.000 C 
ATOM      4  O2  UNL     1      71.041  66.072 106.771  0.00  0.00    +0.000 OA
ATOM      5  C5  UNL     1      71.408  67.020 107.786  0.00  0.00    +0.000 C 
ATOM      6  C6  UNL     1      70.282  68.028 108.011  0.00  0.00    +0.000 C 
ATOM      7  O3  UNL     1      71.740  66.357 109.011  0.00  0.00    +0.000 OA
ATOM      8  C7  UNL     1      73.123  66.352 109.191  0.00  0.00    +0.000 A 
ATOM      9  C8  UNL     1      73.762  67.151 108.275  0.00  0.00    +0.000 A 
ATOM     10  C9  UNL     1      72.705  67.676 107.410  0.00  0.00    +0.000 C 
ATOM     11  O4  UNL     1      72.847  68.444 106.423  0.00  0.00    +0.000 OA
ATOM     12  C10 UNL     1      75.155  67.087 108.110  0.00  0.00    +0.000 A 
ATOM     13  C11 UNL     1      75.879  66.100 108.842  0.00  0.00    +0.000 A 
ATOM     14  C12 UNL     1      75.231  65.424 109.919  0.00  0.00    +0.000 A 
ATOM     15  C13 UNL     1      73.830  65.551 110.091  0.00  0.00    +0.000 A 
ATOM     16  C14 UNL     1      73.092  64.727 111.103  0.00  0.00    +0.000 C 
ATOM     17  C15 UNL     1      77.207  65.653 108.292  0.00  0.00    +0.000 C 
ATOM     18  O6  UNL     1      77.698  64.560 108.672  0.00  0.00    +0.000 OA
ATOM     19  C16 UNL     1      77.848  66.393 107.156  0.00  0.00    +0.000 C 
ATOM     20  C17 UNL     1      77.213  67.478 106.693  0.00  0.00    +0.000 C 
ATOM     21  N1  UNL     1      77.578  68.283 105.587  0.00  0.00    +0.000 N 
ATOM     22  C18 UNL     1      76.439  69.179 105.342  0.00  0.00    +0.000 C 
ATOM     23  C19 UNL     1      75.841  68.883 103.941  0.00  0.00    +0.000 C 
ATOM     24  C20 UNL     1      76.003  70.060 102.980  0.00  0.00    +0.000 C 
ATOM     25  N2  UNL     1      75.398  71.269 103.571  0.00  0.00    +0.000 NA
ATOM     26  C21 UNL     1      75.887  71.644 104.921  0.00  0.00    +0.000 C 
ATOM     27  C22 UNL     1      76.895  70.647 105.514  0.00  0.00    +0.000 C 
ATOM     28  N3  UNL     1      75.457  68.830 106.383  0.00  0.00    +0.000 NA
ATOM     29  C27 UNL     1      75.903  67.857 107.101  0.00  0.00    +0.000 C 
ATOM     30  N4  UNL     1      78.895  65.798 106.355  0.00  0.00    +0.000 N 
ATOM     31  C28 UNL     1      79.795  64.780 106.811  0.00  0.00    +0.000 C 
ATOM     32  O7  UNL     1      80.579  65.009 107.775  0.00  0.00    +0.000 OA
ATOM     33  C29 UNL     1      79.832  63.489 106.092  0.00  0.00    +0.000 C 
ATOM     34  C30 UNL     1      78.661  62.981 105.678  0.00  0.00    +0.000 C 
ATOM     35  C31 UNL     1      78.515  61.894 104.703  0.00  0.00    +0.000 C 
ATOM     36  C32 UNL     1      77.919  62.181 103.546  0.00  0.00    +0.000 C 
ATOM     37  C33 UNL     1      77.285  61.147 102.657  0.00  0.00    +0.000 C 
ATOM     38  C34 UNL     1      77.947  61.184 101.267  0.00  0.00    +0.000 C 
ATOM     39  C35 UNL     1      75.751  61.437 102.613  0.00  0.00    +0.000 C 
ATOM     40  C36 UNL     1      74.819  60.404 101.893  0.00  0.00    +0.000 C 
ATOM     41  C37 UNL     1      75.322  58.953 102.071  0.00  0.00    +0.000 C 
ATOM     42  C38 UNL     1      73.341  60.496 102.439  0.00  0.00    +0.000 C 
ATOM     43  C39 UNL     1      72.620  61.887 102.284  0.00  0.00    +0.000 C 
ATOM     44  C40 UNL     1      72.418  62.263 100.801  0.00  0.00    +0.000 C 
ATOM     45  C41 UNL     1      71.259  61.978 103.065  0.00  0.00    +0.000 C 
ATOM     46  C44 UNL     1      71.324  61.724 104.618  0.00  0.00    +0.000 C 
ATOM     47  C45 UNL     1      69.896  61.666 105.206  0.00  0.00    +0.000 C 
ATOM     48  C46 UNL     1      81.140  62.832 105.769  0.00  0.00    +0.000 C 
ATOM     49  H14 UNL     1      78.474  68.252 105.049  0.00  0.00    +0.000 HD
ATOM     50  H32 UNL     1      78.769  65.875 105.304  0.00  0.00    +0.000 HD
ENDROOT
BRANCH   1  52
ATOM     51  C1  UNL     1      74.446  62.251 105.876  0.00  0.00    +0.000 C 
ATOM     52  O1  UNL     1      73.506  62.774 104.956  0.00  0.00    +0.000 OA
ENDBRANCH   1  52
BRANCH  14  53
ATOM     53  O5  UNL     1      75.954  64.637 110.821  0.00  0.00    +0.000 OA
ATOM     54  H13 UNL     1      75.758  63.661 110.966  0.00  0.00    +0.000 HD
ENDBRANCH  14  53
BRANCH  39  55
ATOM     55  O8  UNL     1      75.529  62.733 102.107  0.00  0.00    +0.000 OA
ATOM     56  H41 UNL     1      75.709  63.385 102.832  0.00  0.00    +0.000 HD
ENDBRANCH  39  55
BRANCH  42  57
ATOM     57  O9  UNL     1      72.530  59.474 101.903  0.00  0.00    +0.000 OA
ATOM     58  H47 UNL     1      73.122  58.740 101.598  0.00  0.00    +0.000 HD
ENDBRANCH  42  57
BRANCH  25  59
ATOM     59  C23 UNL     1      75.189  72.401 102.634  0.00  0.00    +0.000 C 
BRANCH  59  60
ATOM     60  C24 UNL     1      73.757  72.537 102.050  0.00  0.00    +0.000 C 
ATOM     61  C25 UNL     1      72.694  71.890 102.951  0.00  0.00    +0.000 C 
ATOM     62  C26 UNL     1      73.696  71.902 100.648  0.00  0.00    +0.000 C 
ENDBRANCH  59  60
ENDBRANCH  25  59
BRANCH  45  63
ATOM     63  O10 UNL     1      70.343  61.032 102.500  0.00  0.00    +0.000 OA
BRANCH  63  64
ATOM     64  C42 UNL     1      69.470  61.302 101.438  0.00  0.00    +0.000 C 
ATOM     65  C43 UNL     1      69.292  60.287 100.363  0.00  0.00    +0.000 C 
ATOM     66  O11 UNL     1      68.803  62.370 101.399  0.00  0.00    +0.000 OA
ENDBRANCH  63  64
ENDBRANCH  45  63
TORSDOF 8
ENDMDL
MODEL 12
REMARK VINA RESULT:      -7.2      5.578     11.397
REMARK  Name = ./S1741.pdb
REMARK  19 active torsions:
REMARK  status: ('A' for Active; 'I' for Inactive)
REMARK    1  A    between atoms: C1_1  and  O1_2
REMARK    2  A    between atoms: O1_2  and  C2_3
REMARK    3  A    between atoms: C5_7  and  C6_8
REMARK    4  A    between atoms: C12_16  and  O5_19
REMARK    5  A    between atoms: C13_17  and  C14_18
REMARK    6  A    between atoms: N2_28  and  C23_31
REMARK    7  A    between atoms: C23_31  and  C24_32
REMARK    8  A    between atoms: C24_32  and  C25_33
REMARK    9  A    between atoms: C24_32  and  C26_34
REMARK   10  A    between atoms: C29_40  and  C46_61
REMARK   11  A    between atoms: C33_44  and  C34_45
REMARK   12  A    between atoms: C35_46  and  O8_47
REMARK   13  A    between atoms: C36_48  and  C37_49
REMARK   14  A    between atoms: C38_50  and  O9_51
REMARK   15  A    between atoms: C39_52  and  C40_53
REMARK   16  A    between atoms: C41_54  and  O10_55
REMARK   17  A    between atoms: O10_55  and  C42_56
REMARK   18  A    between atoms: C42_56  and  C43_57
REMARK   19  A    between atoms: C44_59  and  C45_60
REMARK                            x       y       z     vdW  Elec       q    Type
REMARK                         _______ _______ _______ _____ _____    ______ ____
ROOT
ATOM      1  C2  UNL     1      72.050  67.746 107.382  0.00  0.00    +0.000 C 
ATOM      2  C3  UNL     1      71.181  68.220 106.226  0.00  0.00    +0.000 C 
ATOM      3  C4  UNL     1      70.679  69.457 106.219  0.00  0.00    +0.000 C 
ATOM      4  O2  UNL     1      69.854  69.891 105.176  0.00  0.00    +0.000 OA
ATOM      5  C5  UNL     1      69.627  71.283 104.903  0.00  0.00    +0.000 C 
ATOM      6  C6  UNL     1      68.317  71.473 104.137  0.00  0.00    +0.000 C 
ATOM      7  O3  UNL     1      69.615  72.049 106.113  0.00  0.00    +0.000 OA
ATOM      8  C7  UNL     1      70.807  72.760 106.238  0.00  0.00    +0.000 A 
ATOM      9  C8  UNL     1      71.562  72.703 105.092  0.00  0.00    +0.000 A 
ATOM     10  C9  UNL     1      70.811  71.848 104.173  0.00  0.00    +0.000 C 
ATOM     11  O4  UNL     1      71.145  71.515 103.006  0.00  0.00    +0.000 OA
ATOM     12  C10 UNL     1      72.901  73.125 105.088  0.00  0.00    +0.000 A 
ATOM     13  C11 UNL     1      73.491  73.517 106.326  0.00  0.00    +0.000 A 
ATOM     14  C12 UNL     1      72.646  73.754 107.450  0.00  0.00    +0.000 A 
ATOM     15  C13 UNL     1      71.284  73.364 107.405  0.00  0.00    +0.000 A 
ATOM     16  C14 UNL     1      70.409  73.442 108.620  0.00  0.00    +0.000 C 
ATOM     17  C15 UNL     1      74.989  73.430 106.447  0.00  0.00    +0.000 C 
ATOM     18  O6  UNL     1      75.517  73.403 107.587  0.00  0.00    +0.000 OA
ATOM     19  C16 UNL     1      75.837  73.177 105.237  0.00  0.00    +0.000 C 
ATOM     20  C17 UNL     1      75.209  73.076 104.057  0.00  0.00    +0.000 C 
ATOM     21  N1  UNL     1      75.783  72.761 102.801  0.00  0.00    +0.000 N 
ATOM     22  C18 UNL     1      74.656  72.529 101.886  0.00  0.00    +0.000 C 
ATOM     23  C19 UNL     1      74.683  71.056 101.398  0.00  0.00    +0.000 C 
ATOM     24  C20 UNL     1      74.943  70.948  99.895  0.00  0.00    +0.000 C 
ATOM     25  N2  UNL     1      73.934  71.733  99.159  0.00  0.00    +0.000 NA
ATOM     26  C21 UNL     1      73.810  73.159  99.552  0.00  0.00    +0.000 C 
ATOM     27  C22 UNL     1      74.712  73.556 100.732  0.00  0.00    +0.000 C 
ATOM     28  N3  UNL     1      73.454  72.756 102.707  0.00  0.00    +0.000 NA
ATOM     29  C27 UNL     1      73.793  73.028 103.920  0.00  0.00    +0.000 C 
ATOM     30  N4  UNL     1      77.201  72.708 105.348  0.00  0.00    +0.000 N 
ATOM     31  C28 UNL     1      78.058  72.945 106.472  0.00  0.00    +0.000 C 
ATOM     32  O7  UNL     1      78.373  74.126 106.794  0.00  0.00    +0.000 OA
ATOM     33  C29 UNL     1      78.614  71.786 107.199  0.00  0.00    +0.000 C 
ATOM     34  C30 UNL     1      77.803  70.734 107.395  0.00  0.00    +0.000 C 
ATOM     35  C31 UNL     1      78.245  69.398 107.812  0.00  0.00    +0.000 C 
ATOM     36  C32 UNL     1      78.068  68.395 106.952  0.00  0.00    +0.000 C 
ATOM     37  C33 UNL     1      78.024  66.948 107.360  0.00  0.00    +0.000 C 
ATOM     38  C34 UNL     1      79.125  66.169 106.617  0.00  0.00    +0.000 C 
ATOM     39  C35 UNL     1      76.587  66.415 107.059  0.00  0.00    +0.000 C 
ATOM     40  C36 UNL     1      76.210  64.975 107.547  0.00  0.00    +0.000 C 
ATOM     41  C37 UNL     1      76.895  64.624 108.889  0.00  0.00    +0.000 C 
ATOM     42  C38 UNL     1      74.649  64.825 107.724  0.00  0.00    +0.000 C 
ATOM     43  C39 UNL     1      73.770  65.074 106.442  0.00  0.00    +0.000 C 
ATOM     44  C40 UNL     1      74.051  64.026 105.345  0.00  0.00    +0.000 C 
ATOM     45  C41 UNL     1      72.230  65.154 106.744  0.00  0.00    +0.000 C 
ATOM     46  C44 UNL     1      71.774  66.258 107.771  0.00  0.00    +0.000 C 
ATOM     47  C45 UNL     1      70.273  66.089 108.099  0.00  0.00    +0.000 C 
ATOM     48  C46 UNL     1      80.054  71.765 107.618  0.00  0.00    +0.000 C 
ATOM     49  H14 UNL     1      76.800  72.704 102.565  0.00  0.00    +0.000 HD
ATOM     50  H32 UNL     1      77.454  71.881 104.732  0.00  0.00    +0.000 HD
ENDROOT
BRANCH   1  52
ATOM     51  C1  UNL     1      74.034  68.822 108.008  0.00  0.00    +0.000 C 
ATOM     52  O1  UNL     1      73.422  67.931 107.094  0.00  0.00    +0.000 OA
ENDBRANCH   1  52
BRANCH  14  53
ATOM     53  O5  UNL     1      73.133  74.372 108.607  0.00  0.00    +0.000 OA
ATOM     54  H13 UNL     1      72.528  74.716 109.333  0.00  0.00    +0.000 HD
ENDBRANCH  14  53
BRANCH  39  55
ATOM     55  O8  UNL     1      76.308  66.555 105.685  0.00  0.00    +0.000 OA
ATOM     56  H41 UNL     1      75.898  67.446 105.539  0.00  0.00    +0.000 HD
ENDBRANCH  39  55
BRANCH  42  57
ATOM     57  O9  UNL     1      74.313  63.583 108.301  0.00  0.00    +0.000 OA
ATOM     58  H47 UNL     1      73.918  63.012 107.592  0.00  0.00    +0.000 HD
ENDBRANCH  42  57
BRANCH  25  59
ATOM     59  C23 UNL     1      73.858  71.466  97.702  0.00  0.00    +0.000 C 
BRANCH  59  60
ATOM     60  C24 UNL     1      72.738  70.490  97.252  0.00  0.00    +0.000 C 
ATOM     61  C25 UNL     1      71.408  70.754  97.974  0.00  0.00    +0.000 C 
ATOM     62  C26 UNL     1      73.176  69.034  97.501  0.00  0.00    +0.000 C 
ENDBRANCH  59  60
ENDBRANCH  25  59
BRANCH  45  63
ATOM     63  O10 UNL     1      71.793  63.882 107.239  0.00  0.00    +0.000 OA
BRANCH  63  64
ATOM     64  C42 UNL     1      71.224  62.872 106.453  0.00  0.00    +0.000 C 
ATOM     65  C43 UNL     1      70.189  63.228 105.443  0.00  0.00    +0.000 C 
ATOM     66  O11 UNL     1      71.604  61.675 106.555  0.00  0.00    +0.000 OA
ENDBRANCH  63  64
ENDBRANCH  45  63
TORSDOF 8
ENDMDL
MODEL 13
REMARK VINA RESULT:      -7.1      4.667      7.952
REMARK  Name = ./S1741.pdb
REMARK  19 active torsions:
REMARK  status: ('A' for Active; 'I' for Inactive)
REMARK    1  A    between atoms: C1_1  and  O1_2
REMARK    2  A    between atoms: O1_2  and  C2_3
REMARK    3  A    between atoms: C5_7  and  C6_8
REMARK    4  A    between atoms: C12_16  and  O5_19
REMARK    5  A    between atoms: C13_17  and  C14_18
REMARK    6  A    between atoms: N2_28  and  C23_31
REMARK    7  A    between atoms: C23_31  and  C24_32
REMARK    8  A    between atoms: C24_32  and  C25_33
REMARK    9  A    between atoms: C24_32  and  C26_34
REMARK   10  A    between atoms: C29_40  and  C46_61
REMARK   11  A    between atoms: C33_44  and  C34_45
REMARK   12  A    between atoms: C35_46  and  O8_47
REMARK   13  A    between atoms: C36_48  and  C37_49
REMARK   14  A    between atoms: C38_50  and  O9_51
REMARK   15  A    between atoms: C39_52  and  C40_53
REMARK   16  A    between atoms: C41_54  and  O10_55
REMARK   17  A    between atoms: O10_55  and  C42_56
REMARK   18  A    between atoms: C42_56  and  C43_57
REMARK   19  A    between atoms: C44_59  and  C45_60
REMARK                            x       y       z     vdW  Elec       q    Type
REMARK                         _______ _______ _______ _____ _____    ______ ____
ROOT
ATOM      1  C2  UNL     1      76.734  72.870 103.908  0.00  0.00    +0.000 C 
ATOM      2  C3  UNL     1      77.482  72.054 104.953  0.00  0.00    +0.000 C 
ATOM      3  C4  UNL     1      77.235  72.227 106.252  0.00  0.00    +0.000 C 
ATOM      4  O2  UNL     1      77.939  71.503 107.220  0.00  0.00    +0.000 OA
ATOM      5  C5  UNL     1      77.456  71.341 108.563  0.00  0.00    +0.000 C 
ATOM      6  C6  UNL     1      78.611  71.027 109.515  0.00  0.00    +0.000 C 
ATOM      7  O3  UNL     1      76.750  72.507 108.999  0.00  0.00    +0.000 OA
ATOM      8  C7  UNL     1      75.377  72.267 108.987  0.00  0.00    +0.000 A 
ATOM      9  C8  UNL     1      75.091  70.941 108.770  0.00  0.00    +0.000 A 
ATOM     10  C9  UNL     1      76.387  70.287 108.585  0.00  0.00    +0.000 C 
ATOM     11  O4  UNL     1      76.592  69.068 108.347  0.00  0.00    +0.000 OA
ATOM     12  C10 UNL     1      73.785  70.526 108.461  0.00  0.00    +0.000 A 
ATOM     13  C11 UNL     1      72.784  71.524 108.276  0.00  0.00    +0.000 A 
ATOM     14  C12 UNL     1      73.054  72.861 108.695  0.00  0.00    +0.000 A 
ATOM     15  C13 UNL     1      74.374  73.236 109.051  0.00  0.00    +0.000 A 
ATOM     16  C14 UNL     1      74.728  74.666 109.333  0.00  0.00    +0.000 C 
ATOM     17  C15 UNL     1      71.587  71.169 107.435  0.00  0.00    +0.000 C 
ATOM     18  O6  UNL     1      70.883  72.086 106.942  0.00  0.00    +0.000 OA
ATOM     19  C16 UNL     1      71.345  69.749 107.016  0.00  0.00    +0.000 C 
ATOM     20  C17 UNL     1      72.209  68.823 107.457  0.00  0.00    +0.000 C 
ATOM     21  N1  UNL     1      72.234  67.445 107.131  0.00  0.00    +0.000 N 
ATOM     22  C18 UNL     1      73.502  66.925 107.661  0.00  0.00    +0.000 C 
ATOM     23  C19 UNL     1      74.385  66.426 106.487  0.00  0.00    +0.000 C 
ATOM     24  C20 UNL     1      74.616  64.915 106.537  0.00  0.00    +0.000 C 
ATOM     25  N2  UNL     1      75.206  64.547 107.838  0.00  0.00    +0.000 NA
ATOM     26  C21 UNL     1      74.450  64.985 109.038  0.00  0.00    +0.000 C 
ATOM     27  C22 UNL     1      73.209  65.831 108.713  0.00  0.00    +0.000 C 
ATOM     28  N3  UNL     1      74.144  68.085 108.304  0.00  0.00    +0.000 NA
ATOM     29  C27 UNL     1      73.415  69.136 108.146  0.00  0.00    +0.000 C 
ATOM     30  N4  UNL     1      70.462  69.419 105.920  0.00  0.00    +0.000 N 
ATOM     31  C28 UNL     1      69.356  70.223 105.491  0.00  0.00    +0.000 C 
ATOM     32  O7  UNL     1      68.393  70.452 106.277  0.00  0.00    +0.000 OA
ATOM     33  C29 UNL     1      69.333  70.718 104.099  0.00  0.00    +0.000 C 
ATOM     34  C30 UNL     1      70.496  71.138 103.576  0.00  0.00    +0.000 C 
ATOM     35  C31 UNL     1      70.739  71.371 102.147  0.00  0.00    +0.000 C 
ATOM     36  C32 UNL     1      71.634  70.591 101.540  0.00  0.00    +0.000 C 
ATOM     37  C33 UNL     1      72.331  70.965 100.261  0.00  0.00    +0.000 C 
ATOM     38  C34 UNL     1      72.043  69.901  99.186  0.00  0.00    +0.000 C 
ATOM     39  C35 UNL     1      73.852  71.119 100.578  0.00  0.00    +0.000 C 
ATOM     40  C36 UNL     1      74.794  71.674  99.457  0.00  0.00    +0.000 C 
ATOM     41  C37 UNL     1      74.082  72.726  98.576  0.00  0.00    +0.000 C 
ATOM     42  C38 UNL     1      76.091  72.327 100.075  0.00  0.00    +0.000 C 
ATOM     43  C39 UNL     1      76.998  71.390 100.956  0.00  0.00    +0.000 C 
ATOM     44  C40 UNL     1      77.607  70.241 100.125  0.00  0.00    +0.000 C 
ATOM     45  C41 UNL     1      78.124  72.160 101.736  0.00  0.00    +0.000 C 
ATOM     46  C44 UNL     1      77.646  73.299 102.713  0.00  0.00    +0.000 C 
ATOM     47  C45 UNL     1      78.865  74.076 103.259  0.00  0.00    +0.000 C 
ATOM     48  C46 UNL     1      68.073  70.665 103.289  0.00  0.00    +0.000 C 
ATOM     49  H14 UNL     1      71.501  66.902 106.619  0.00  0.00    +0.000 HD
ATOM     50  H32 UNL     1      70.852  68.740 105.204  0.00  0.00    +0.000 HD
ENDROOT
BRANCH   1  52
ATOM     51  C1  UNL     1      74.399  72.861 103.725  0.00  0.00    +0.000 C 
ATOM     52  O1  UNL     1      75.600  72.171 103.435  0.00  0.00    +0.000 OA
ENDBRANCH   1  52
BRANCH  14  53
ATOM     53  O5  UNL     1      72.036  73.818 108.768  0.00  0.00    +0.000 OA
ATOM     54  H13 UNL     1      72.216  74.783 108.986  0.00  0.00    +0.000 HD
ENDBRANCH  14  53
BRANCH  39  55
ATOM     55  O8  UNL     1      74.356  69.904 101.084  0.00  0.00    +0.000 OA
ATOM     56  H41 UNL     1      75.066  69.582 100.472  0.00  0.00    +0.000 HD
ENDBRANCH  39  55
BRANCH  42  57
ATOM     57  O9  UNL     1      76.873  72.957  99.084  0.00  0.00    +0.000 OA
ATOM     58  H47 UNL     1      77.255  73.784  99.475  0.00  0.00    +0.000 HD
ENDBRANCH  42  57
BRANCH  25  59
ATOM     59  C23 UNL     1      75.782  63.182 107.913  0.00  0.00    +0.000 C 
BRANCH  59  60
ATOM     60  C24 UNL     1      75.426  62.369 109.187  0.00  0.00    +0.000 C 
ATOM     61  C25 UNL     1      76.612  62.254 110.157  0.00  0.00    +0.000 C 
ATOM     62  C26 UNL     1      74.947  60.958 108.795  0.00  0.00    +0.000 C 
ENDBRANCH  59  60
ENDBRANCH  25  59
BRANCH  45  63
ATOM     63  O10 UNL     1      79.024  72.743 100.785  0.00  0.00    +0.000 OA
BRANCH  63  64
ATOM     64  C42 UNL     1      80.341  72.319 100.568  0.00  0.00    +0.000 C 
ATOM     65  C43 UNL     1      80.998  71.434 101.570  0.00  0.00    +0.000 C 
ATOM     66  O11 UNL     1      80.964  72.638  99.520  0.00  0.00    +0.000 OA
ENDBRANCH  63  64
ENDBRANCH  45  63
TORSDOF 8
ENDMDL
MODEL 14
REMARK VINA RESULT:      -7.1      6.526     12.585
REMARK  Name = ./S1741.pdb
REMARK  19 active torsions:
REMARK  status: ('A' for Active; 'I' for Inactive)
REMARK    1  A    between atoms: C1_1  and  O1_2
REMARK    2  A    between atoms: O1_2  and  C2_3
REMARK    3  A    between atoms: C5_7  and  C6_8
REMARK    4  A    between atoms: C12_16  and  O5_19
REMARK    5  A    between atoms: C13_17  and  C14_18
REMARK    6  A    between atoms: N2_28  and  C23_31
REMARK    7  A    between atoms: C23_31  and  C24_32
REMARK    8  A    between atoms: C24_32  and  C25_33
REMARK    9  A    between atoms: C24_32  and  C26_34
REMARK   10  A    between atoms: C29_40  and  C46_61
REMARK   11  A    between atoms: C33_44  and  C34_45
REMARK   12  A    between atoms: C35_46  and  O8_47
REMARK   13  A    between atoms: C36_48  and  C37_49
REMARK   14  A    between atoms: C38_50  and  O9_51
REMARK   15  A    between atoms: C39_52  and  C40_53
REMARK   16  A    between atoms: C41_54  and  O10_55
REMARK   17  A    between atoms: O10_55  and  C42_56
REMARK   18  A    between atoms: C42_56  and  C43_57
REMARK   19  A    between atoms: C44_59  and  C45_60
REMARK                            x       y       z     vdW  Elec       q    Type
REMARK                         _______ _______ _______ _____ _____    ______ ____
ROOT
ATOM      1  C2  UNL     1      71.434  69.181 107.659  0.00  0.00    +0.000 C 
ATOM      2  C3  UNL     1      70.814  69.064 106.273  0.00  0.00    +0.000 C 
ATOM      3  C4  UNL     1      69.967  69.995 105.830  0.00  0.00    +0.000 C 
ATOM      4  O2  UNL     1      69.369  69.880 104.570  0.00  0.00    +0.000 OA
ATOM      5  C5  UNL     1      68.794  71.004 103.885  0.00  0.00    +0.000 C 
ATOM      6  C6  UNL     1      67.758  70.537 102.862  0.00  0.00    +0.000 C 
ATOM      7  O3  UNL     1      68.205  71.923 104.812  0.00  0.00    +0.000 OA
ATOM      8  C7  UNL     1      69.023  73.042 104.960  0.00  0.00    +0.000 A 
ATOM      9  C8  UNL     1      70.043  73.057 104.039  0.00  0.00    +0.000 A 
ATOM     10  C9  UNL     1      69.889  71.824 103.267  0.00  0.00    +0.000 C 
ATOM     11  O4  UNL     1      70.621  71.427 102.323  0.00  0.00    +0.000 OA
ATOM     12  C10 UNL     1      71.123  73.944 104.174  0.00  0.00    +0.000 A 
ATOM     13  C11 UNL     1      71.190  74.756 105.344  0.00  0.00    +0.000 A 
ATOM     14  C12 UNL     1      70.037  74.865 106.177  0.00  0.00    +0.000 A 
ATOM     15  C13 UNL     1      68.940  73.989 105.983  0.00  0.00    +0.000 A 
ATOM     16  C14 UNL     1      67.786  73.961 106.940  0.00  0.00    +0.000 C 
ATOM     17  C15 UNL     1      72.542  75.266 105.767  0.00  0.00    +0.000 C 
ATOM     18  O6  UNL     1      72.714  75.656 106.950  0.00  0.00    +0.000 OA
ATOM     19  C16 UNL     1      73.727  75.126 104.858  0.00  0.00    +0.000 C 
ATOM     20  C17 UNL     1      73.516  74.574 103.655  0.00  0.00    +0.000 C 
ATOM     21  N1  UNL     1      74.484  74.267 102.668  0.00  0.00    +0.000 N 
ATOM     22  C18 UNL     1      73.789  73.458 101.656  0.00  0.00    +0.000 C 
ATOM     23  C19 UNL     1      74.419  72.041 101.608  0.00  0.00    +0.000 C 
ATOM     24  C20 UNL     1      75.105  71.756 100.271  0.00  0.00    +0.000 C 
ATOM     25  N2  UNL     1      74.143  71.947  99.169  0.00  0.00    +0.000 NA
ATOM     26  C21 UNL     1      73.467  73.268  99.122  0.00  0.00    +0.000 C 
ATOM     27  C22 UNL     1      73.831  74.192 100.296  0.00  0.00    +0.000 C 
ATOM     28  N3  UNL     1      72.400  73.366 102.138  0.00  0.00    +0.000 NA
ATOM     29  C27 UNL     1      72.286  73.971 103.270  0.00  0.00    +0.000 C 
ATOM     30  N4  UNL     1      75.082  75.236 105.352  0.00  0.00    +0.000 N 
ATOM     31  C28 UNL     1      75.471  75.988 106.508  0.00  0.00    +0.000 C 
ATOM     32  O7  UNL     1      75.292  77.238 106.546  0.00  0.00    +0.000 OA
ATOM     33  C29 UNL     1      76.145  75.284 107.620  0.00  0.00    +0.000 C 
ATOM     34  C30 UNL     1      75.691  74.062 107.940  0.00  0.00    +0.000 C 
ATOM     35  C31 UNL     1      76.403  73.097 108.786  0.00  0.00    +0.000 C 
ATOM     36  C32 UNL     1      76.800  71.957 108.219  0.00  0.00    +0.000 C 
ATOM     37  C33 UNL     1      77.110  70.706 108.994  0.00  0.00    +0.000 C 
ATOM     38  C34 UNL     1      78.562  70.274 108.719  0.00  0.00    +0.000 C 
ATOM     39  C35 UNL     1      76.061  69.624 108.584  0.00  0.00    +0.000 C 
ATOM     40  C36 UNL     1      76.044  68.269 109.371  0.00  0.00    +0.000 C 
ATOM     41  C37 UNL     1      76.406  68.464 110.861  0.00  0.00    +0.000 C 
ATOM     42  C38 UNL     1      74.628  67.578 109.281  0.00  0.00    +0.000 C 
ATOM     43  C39 UNL     1      74.106  67.230 107.838  0.00  0.00    +0.000 C 
ATOM     44  C40 UNL     1      74.999  66.177 107.147  0.00  0.00    +0.000 C 
ATOM     45  C41 UNL     1      72.601  66.778 107.807  0.00  0.00    +0.000 C 
ATOM     46  C44 UNL     1      71.551  67.802 108.384  0.00  0.00    +0.000 C 
ATOM     47  C45 UNL     1      70.153  67.145 108.453  0.00  0.00    +0.000 C 
ATOM     48  C46 UNL     1      77.341  75.887 108.294  0.00  0.00    +0.000 C 
ATOM     49  H14 UNL     1      75.489  74.555 102.655  0.00  0.00    +0.000 HD
ATOM     50  H32 UNL     1      75.746  74.466 105.048  0.00  0.00    +0.000 HD
ENDROOT
BRANCH   1  52
ATOM     51  C1  UNL     1      72.648  71.136 108.094  0.00  0.00    +0.000 C 
ATOM     52  O1  UNL     1      72.698  69.812 107.597  0.00  0.00    +0.000 OA
ENDBRANCH   1  52
BRANCH  14  53
ATOM     53  O5  UNL     1      69.962  75.829 107.188  0.00  0.00    +0.000 OA
ATOM     54  H13 UNL     1      70.479  75.754 108.048  0.00  0.00    +0.000 HD
ENDBRANCH  14  53
BRANCH  39  55
ATOM     55  O8  UNL     1      76.143  69.385 107.199  0.00  0.00    +0.000 OA
ATOM     56  H41 UNL     1      75.646  68.551 106.996  0.00  0.00    +0.000 HD
ENDBRANCH  39  55
BRANCH  42  57
ATOM     57  O9  UNL     1      74.560  66.434 110.104  0.00  0.00    +0.000 OA
ATOM     58  H47 UNL     1      75.140  65.736 109.706  0.00  0.00    +0.000 HD
ENDBRANCH  42  57
BRANCH  25  59
ATOM     59  C23 UNL     1      74.562  71.401  97.855  0.00  0.00    +0.000 C 
BRANCH  59  60
ATOM     60  C24 UNL     1      73.415  71.080  96.861  0.00  0.00    +0.000 C 
ATOM     61  C25 UNL     1      72.242  70.352  97.537  0.00  0.00    +0.000 C 
ATOM     62  C26 UNL     1      73.948  70.221  95.698  0.00  0.00    +0.000 C 
ENDBRANCH  59  60
ENDBRANCH  25  59
BRANCH  45  63
ATOM     63  O10 UNL     1      72.474  65.555 108.542  0.00  0.00    +0.000 OA
BRANCH  63  64
ATOM     64  C42 UNL     1      72.150  64.314 107.977  0.00  0.00    +0.000 C 
ATOM     65  C43 UNL     1      71.572  64.265 106.605  0.00  0.00    +0.000 C 
ATOM     66  O11 UNL     1      72.381  63.239 108.591  0.00  0.00    +0.000 OA
ENDBRANCH  63  64
ENDBRANCH  45  63
TORSDOF 8
ENDMDL
MODEL 15
REMARK VINA RESULT:      -7.1      3.971      9.196
REMARK  Name = ./S1741.pdb
REMARK  19 active torsions:
REMARK  status: ('A' for Active; 'I' for Inactive)
REMARK    1  A    between atoms: C1_1  and  O1_2
REMARK    2  A    between atoms: O1_2  and  C2_3
REMARK    3  A    between atoms: C5_7  and  C6_8
REMARK    4  A    between atoms: C12_16  and  O5_19
REMARK    5  A    between atoms: C13_17  and  C14_18
REMARK    6  A    between atoms: N2_28  and  C23_31
REMARK    7  A    between atoms: C23_31  and  C24_32
REMARK    8  A    between atoms: C24_32  and  C25_33
REMARK    9  A    between atoms: C24_32  and  C26_34
REMARK   10  A    between atoms: C29_40  and  C46_61
REMARK   11  A    between atoms: C33_44  and  C34_45
REMARK   12  A    between atoms: C35_46  and  O8_47
REMARK   13  A    between atoms: C36_48  and  C37_49
REMARK   14  A    between atoms: C38_50  and  O9_51
REMARK   15  A    between atoms: C39_52  and  C40_53
REMARK   16  A    between atoms: C41_54  and  O10_55
REMARK   17  A    between atoms: O10_55  and  C42_56
REMARK   18  A    between atoms: C42_56  and  C43_57
REMARK   19  A    between atoms: C44_59  and  C45_60
REMARK                            x       y       z     vdW  Elec       q    Type
REMARK                         _______ _______ _______ _____ _____    ______ ____
ROOT
ATOM      1  C2  UNL     1      76.235  69.165 103.826  0.00  0.00    +0.000 C 
ATOM      2  C3  UNL     1      76.601  68.134 102.768  0.00  0.00    +0.000 C 
ATOM      3  C4  UNL     1      77.404  67.111 103.068  0.00  0.00    +0.000 C 
ATOM      4  O2  UNL     1      77.769  66.175 102.094  0.00  0.00    +0.000 OA
ATOM      5  C5  UNL     1      78.273  64.872 102.429  0.00  0.00    +0.000 C 
ATOM      6  C6  UNL     1      79.092  64.300 101.272  0.00  0.00    +0.000 C 
ATOM      7  O3  UNL     1      79.057  64.917 103.626  0.00  0.00    +0.000 OA
ATOM      8  C7  UNL     1      78.333  64.385 104.691  0.00  0.00    +0.000 A 
ATOM      9  C8  UNL     1      77.172  63.782 104.272  0.00  0.00    +0.000 A 
ATOM     10  C9  UNL     1      77.129  63.983 102.823  0.00  0.00    +0.000 C 
ATOM     11  O4  UNL     1      76.227  63.601 102.034  0.00  0.00    +0.000 OA
ATOM     12  C10 UNL     1      76.177  63.416 105.193  0.00  0.00    +0.000 A 
ATOM     13  C11 UNL     1      76.352  63.780 106.560  0.00  0.00    +0.000 A 
ATOM     14  C12 UNL     1      77.636  64.223 106.999  0.00  0.00    +0.000 A 
ATOM     15  C13 UNL     1      78.639  64.534 106.046  0.00  0.00    +0.000 A 
ATOM     16  C14 UNL     1      79.937  65.161 106.459  0.00  0.00    +0.000 C 
ATOM     17  C15 UNL     1      75.120  63.903 107.417  0.00  0.00    +0.000 C 
ATOM     18  O6  UNL     1      75.174  64.560 108.487  0.00  0.00    +0.000 OA
ATOM     19  C16 UNL     1      73.792  63.426 106.912  0.00  0.00    +0.000 C 
ATOM     20  C17 UNL     1      73.764  62.854 105.700  0.00  0.00    +0.000 C 
ATOM     21  N1  UNL     1      72.627  62.405 104.986  0.00  0.00    +0.000 N 
ATOM     22  C18 UNL     1      73.096  62.096 103.627  0.00  0.00    +0.000 C 
ATOM     23  C19 UNL     1      72.397  63.041 102.614  0.00  0.00    +0.000 C 
ATOM     24  C20 UNL     1      71.478  62.286 101.654  0.00  0.00    +0.000 C 
ATOM     25  N2  UNL     1      72.244  61.234 100.958  0.00  0.00    +0.000 NA
ATOM     26  C21 UNL     1      72.966  60.275 101.831  0.00  0.00    +0.000 C 
ATOM     27  C22 UNL     1      72.856  60.598 103.330  0.00  0.00    +0.000 C 
ATOM     28  N3  UNL     1      74.540  62.381 103.655  0.00  0.00    +0.000 NA
ATOM     29  C27 UNL     1      74.878  62.832 104.814  0.00  0.00    +0.000 C 
ATOM     30  N4  UNL     1      72.549  63.862 107.510  0.00  0.00    +0.000 N 
ATOM     31  C28 UNL     1      72.402  64.286 108.871  0.00  0.00    +0.000 C 
ATOM     32  O7  UNL     1      72.647  63.486 109.818  0.00  0.00    +0.000 OA
ATOM     33  C29 UNL     1      71.896  65.648 109.141  0.00  0.00    +0.000 C 
ATOM     34  C30 UNL     1      72.337  66.637 108.347  0.00  0.00    +0.000 C 
ATOM     35  C31 UNL     1      71.735  67.973 108.255  0.00  0.00    +0.000 C 
ATOM     36  C32 UNL     1      71.190  68.323 107.090  0.00  0.00    +0.000 C 
ATOM     37  C33 UNL     1      70.957  69.750 106.676  0.00  0.00    +0.000 C 
ATOM     38  C34 UNL     1      69.460  69.967 106.390  0.00  0.00    +0.000 C 
ATOM     39  C35 UNL     1      71.865  70.038 105.438  0.00  0.00    +0.000 C 
ATOM     40  C36 UNL     1      71.950  71.508 104.904  0.00  0.00    +0.000 C 
ATOM     41  C37 UNL     1      71.861  72.543 106.049  0.00  0.00    +0.000 C 
ATOM     42  C38 UNL     1      73.294  71.747 104.111  0.00  0.00    +0.000 C 
ATOM     43  C39 UNL     1      73.541  70.832 102.855  0.00  0.00    +0.000 C 
ATOM     44  C40 UNL     1      72.492  71.082 101.752  0.00  0.00    +0.000 C 
ATOM     45  C41 UNL     1      74.994  70.952 102.268  0.00  0.00    +0.000 C 
ATOM     46  C44 UNL     1      76.177  70.618 103.254  0.00  0.00    +0.000 C 
ATOM     47  C45 UNL     1      77.531  70.958 102.591  0.00  0.00    +0.000 C 
ATOM     48  C46 UNL     1      70.866  65.885 110.203  0.00  0.00    +0.000 C 
ATOM     49  H14 UNL     1      71.650  62.308 105.346  0.00  0.00    +0.000 HD
ATOM     50  H32 UNL     1      71.806  64.198 106.832  0.00  0.00    +0.000 HD
ENDROOT
BRANCH   1  52
ATOM     51  C1  UNL     1      75.181  68.603 105.840  0.00  0.00    +0.000 C 
ATOM     52  O1  UNL     1      75.013  68.836 104.455  0.00  0.00    +0.000 OA
ENDBRANCH   1  52
BRANCH  14  53
ATOM     53  O5  UNL     1      77.932  64.354 108.359  0.00  0.00    +0.000 OA
ATOM     54  H13 UNL     1      78.698  64.912 108.695  0.00  0.00    +0.000 HD
ENDBRANCH  14  53
BRANCH  39  55
ATOM     55  O8  UNL     1      71.534  69.155 104.392  0.00  0.00    +0.000 OA
ATOM     56  H41 UNL     1      71.257  69.693 103.606  0.00  0.00    +0.000 HD
ENDBRANCH  39  55
BRANCH  42  57
ATOM     57  O9  UNL     1      73.446  73.103 103.753  0.00  0.00    +0.000 OA
ATOM     58  H47 UNL     1      72.565  73.440 103.448  0.00  0.00    +0.000 HD
ENDBRANCH  42  57
BRANCH  25  59
ATOM     59  C23 UNL     1      71.578  60.638  99.774  0.00  0.00    +0.000 C 
BRANCH  59  60
ATOM     60  C24 UNL     1      71.060  61.646  98.713  0.00  0.00    +0.000 C 
ATOM     61  C25 UNL     1      69.917  61.065  97.865  0.00  0.00    +0.000 C 
ATOM     62  C26 UNL     1      72.214  62.080  97.789  0.00  0.00    +0.000 C 
ENDBRANCH  59  60
ENDBRANCH  25  59
BRANCH  45  63
ATOM     63  O10 UNL     1      75.185  72.287 101.785  0.00  0.00    +0.000 OA
BRANCH  63  64
ATOM     64  C42 UNL     1      75.222  72.648 100.432  0.00  0.00    +0.000 C 
ATOM     65  C43 UNL     1      75.597  71.628  99.413  0.00  0.00    +0.000 C 
ATOM     66  O11 UNL     1      74.903  73.808 100.058  0.00  0.00    +0.000 OA
ENDBRANCH  63  64
ENDBRANCH  45  63
TORSDOF 8
ENDMDL
MODEL 16
REMARK VINA RESULT:      -7.0      4.392      9.334
REMARK  Name = ./S1741.pdb
REMARK  19 active torsions:
REMARK  status: ('A' for Active; 'I' for Inactive)
REMARK    1  A    between atoms: C1_1  and  O1_2
REMARK    2  A    between atoms: O1_2  and  C2_3
REMARK    3  A    between atoms: C5_7  and  C6_8
REMARK    4  A    between atoms: C12_16  and  O5_19
REMARK    5  A    between atoms: C13_17  and  C14_18
REMARK    6  A    between atoms: N2_28  and  C23_31
REMARK    7  A    between atoms: C23_31  and  C24_32
REMARK    8  A    between atoms: C24_32  and  C25_33
REMARK    9  A    between atoms: C24_32  and  C26_34
REMARK   10  A    between atoms: C29_40  and  C46_61
REMARK   11  A    between atoms: C33_44  and  C34_45
REMARK   12  A    between atoms: C35_46  and  O8_47
REMARK   13  A    between atoms: C36_48  and  C37_49
REMARK   14  A    between atoms: C38_50  and  O9_51
REMARK   15  A    between atoms: C39_52  and  C40_53
REMARK   16  A    between atoms: C41_54  and  O10_55
REMARK   17  A    between atoms: O10_55  and  C42_56
REMARK   18  A    between atoms: C42_56  and  C43_57
REMARK   19  A    between atoms: C44_59  and  C45_60
REMARK                            x       y       z     vdW  Elec       q    Type
REMARK                         _______ _______ _______ _____ _____    ______ ____
ROOT
ATOM      1  C2  UNL     1      75.389  65.648 103.781  0.00  0.00    +0.000 C 
ATOM      2  C3  UNL     1      76.870  65.935 103.985  0.00  0.00    +0.000 C 
ATOM      3  C4  UNL     1      77.456  66.952 103.351  0.00  0.00    +0.000 C 
ATOM      4  O2  UNL     1      78.823  67.205 103.510  0.00  0.00    +0.000 OA
ATOM      5  C5  UNL     1      79.412  68.477 103.199  0.00  0.00    +0.000 C 
ATOM      6  C6  UNL     1      80.907  68.324 102.922  0.00  0.00    +0.000 C 
ATOM      7  O3  UNL     1      78.755  69.088 102.082  0.00  0.00    +0.000 OA
ATOM      8  C7  UNL     1      77.925  70.118 102.522  0.00  0.00    +0.000 A 
ATOM      9  C8  UNL     1      78.120  70.401 103.852  0.00  0.00    +0.000 A 
ATOM     10  C9  UNL     1      79.127  69.444 104.311  0.00  0.00    +0.000 C 
ATOM     11  O4  UNL     1      79.594  69.339 105.475  0.00  0.00    +0.000 OA
ATOM     12  C10 UNL     1      77.217  71.214 104.556  0.00  0.00    +0.000 A 
ATOM     13  C11 UNL     1      76.037  71.653 103.886  0.00  0.00    +0.000 A 
ATOM     14  C12 UNL     1      75.954  71.514 102.468  0.00  0.00    +0.000 A 
ATOM     15  C13 UNL     1      76.913  70.729 101.779  0.00  0.00    +0.000 A 
ATOM     16  C14 UNL     1      76.763  70.422 100.319  0.00  0.00    +0.000 C 
ATOM     17  C15 UNL     1      74.847  72.022 104.731  0.00  0.00    +0.000 C 
ATOM     18  O6  UNL     1      73.704  72.054 104.209  0.00  0.00    +0.000 OA
ATOM     19  C16 UNL     1      74.981  72.154 106.218  0.00  0.00    +0.000 C 
ATOM     20  C17 UNL     1      76.201  71.974 106.743  0.00  0.00    +0.000 C 
ATOM     21  N1  UNL     1      76.555  71.967 108.115  0.00  0.00    +0.000 N 
ATOM     22  C18 UNL     1      77.943  71.483 108.173  0.00  0.00    +0.000 C 
ATOM     23  C19 UNL     1      77.988  70.142 108.952  0.00  0.00    +0.000 C 
ATOM     24  C20 UNL     1      78.770  70.258 110.261  0.00  0.00    +0.000 C 
ATOM     25  N2  UNL     1      80.131  70.757 109.983  0.00  0.00    +0.000 NA
ATOM     26  C21 UNL     1      80.210  72.033 109.229  0.00  0.00    +0.000 C 
ATOM     27  C22 UNL     1      78.842  72.579 108.791  0.00  0.00    +0.000 C 
ATOM     28  N3  UNL     1      78.319  71.253 106.768  0.00  0.00    +0.000 NA
ATOM     29  C27 UNL     1      77.318  71.504 105.997  0.00  0.00    +0.000 C 
ATOM     30  N4  UNL     1      73.829  72.120 107.092  0.00  0.00    +0.000 N 
ATOM     31  C28 UNL     1      72.502  72.506 106.711  0.00  0.00    +0.000 C 
ATOM     32  O7  UNL     1      72.265  73.692 106.344  0.00  0.00    +0.000 OA
ATOM     33  C29 UNL     1      71.414  71.513 106.821  0.00  0.00    +0.000 C 
ATOM     34  C30 UNL     1      71.695  70.249 106.465  0.00  0.00    +0.000 C 
ATOM     35  C31 UNL     1      70.864  69.082 106.785  0.00  0.00    +0.000 C 
ATOM     36  C32 UNL     1      71.386  68.156 107.589  0.00  0.00    +0.000 C 
ATOM     37  C33 UNL     1      70.897  66.736 107.650  0.00  0.00    +0.000 C 
ATOM     38  C34 UNL     1      70.447  66.405 109.084  0.00  0.00    +0.000 C 
ATOM     39  C35 UNL     1      72.053  65.815 107.144  0.00  0.00    +0.000 C 
ATOM     40  C36 UNL     1      71.756  64.291 106.939  0.00  0.00    +0.000 C 
ATOM     41  C37 UNL     1      70.309  64.047 106.451  0.00  0.00    +0.000 C 
ATOM     42  C38 UNL     1      72.755  63.652 105.898  0.00  0.00    +0.000 C 
ATOM     43  C39 UNL     1      74.286  63.734 106.251  0.00  0.00    +0.000 C 
ATOM     44  C40 UNL     1      74.622  62.929 107.524  0.00  0.00    +0.000 C 
ATOM     45  C41 UNL     1      75.227  63.307 105.067  0.00  0.00    +0.000 C 
ATOM     46  C44 UNL     1      75.075  64.118 103.725  0.00  0.00    +0.000 C 
ATOM     47  C45 UNL     1      75.927  63.465 102.612  0.00  0.00    +0.000 C 
ATOM     48  C46 UNL     1      70.082  71.898 107.390  0.00  0.00    +0.000 C 
ATOM     49  H14 UNL     1      75.958  72.249 108.925  0.00  0.00    +0.000 HD
ATOM     50  H32 UNL     1      73.906  71.472 107.929  0.00  0.00    +0.000 HD
ENDROOT
BRANCH   1  52
ATOM     51  C1  UNL     1      73.781  67.287 104.243  0.00  0.00    +0.000 C 
ATOM     52  O1  UNL     1      74.608  66.273 104.781  0.00  0.00    +0.000 OA
ENDBRANCH   1  52
BRANCH  14  53
ATOM     53  O5  UNL     1      74.943  72.144 101.735  0.00  0.00    +0.000 OA
ATOM     54  H13 UNL     1      74.617  73.071 101.949  0.00  0.00    +0.000 HD
ENDBRANCH  14  53
BRANCH  39  55
ATOM     55  O8  UNL     1      73.188  65.988 107.961  0.00  0.00    +0.000 OA
ATOM     56  H41 UNL     1      73.902  65.381 107.635  0.00  0.00    +0.000 HD
ENDBRANCH  39  55
BRANCH  42  57
ATOM     57  O9  UNL     1      72.404  62.319 105.599  0.00  0.00    +0.000 OA
ATOM     58  H47 UNL     1      72.730  61.743 106.337  0.00  0.00    +0.000 HD
ENDBRANCH  42  57
BRANCH  25  59
ATOM     59  C23 UNL     1      81.101  70.615 111.096  0.00  0.00    +0.000 C 
BRANCH  59  60
ATOM     60  C24 UNL     1      82.598  70.752 110.708  0.00  0.00    +0.000 C 
ATOM     61  C25 UNL     1      83.426  69.528 111.132  0.00  0.00    +0.000 C 
ATOM     62  C26 UNL     1      83.195  72.021 111.345  0.00  0.00    +0.000 C 
ENDBRANCH  59  60
ENDBRANCH  25  59
BRANCH  45  63
ATOM     63  O10 UNL     1      74.998  61.923 104.776  0.00  0.00    +0.000 OA
BRANCH  63  64
ATOM     64  C42 UNL     1      75.903  60.889 105.051  0.00  0.00    +0.000 C 
ATOM     65  C43 UNL     1      75.427  59.676 105.773  0.00  0.00    +0.000 C 
ATOM     66  O11 UNL     1      77.099  60.950 104.661  0.00  0.00    +0.000 OA
ENDBRANCH  63  64
ENDBRANCH  45  63
TORSDOF 8
ENDMDL
MODEL 17
REMARK VINA RESULT:      -6.9     10.219     15.102
REMARK  Name = ./S1741.pdb
REMARK  19 active torsions:
REMARK  status: ('A' for Active; 'I' for Inactive)
REMARK    1  A    between atoms: C1_1  and  O1_2
REMARK    2  A    between atoms: O1_2  and  C2_3
REMARK    3  A    between atoms: C5_7  and  C6_8
REMARK    4  A    between atoms: C12_16  and  O5_19
REMARK    5  A    between atoms: C13_17  and  C14_18
REMARK    6  A    between atoms: N2_28  and  C23_31
REMARK    7  A    between atoms: C23_31  and  C24_32
REMARK    8  A    between atoms: C24_32  and  C25_33
REMARK    9  A    between atoms: C24_32  and  C26_34
REMARK   10  A    between atoms: C29_40  and  C46_61
REMARK   11  A    between atoms: C33_44  and  C34_45
REMARK   12  A    between atoms: C35_46  and  O8_47
REMARK   13  A    between atoms: C36_48  and  C37_49
REMARK   14  A    between atoms: C38_50  and  O9_51
REMARK   15  A    between atoms: C39_52  and  C40_53
REMARK   16  A    between atoms: C41_54  and  O10_55
REMARK   17  A    between atoms: O10_55  and  C42_56
REMARK   18  A    between atoms: C42_56  and  C43_57
REMARK   19  A    between atoms: C44_59  and  C45_60
REMARK                            x       y       z     vdW  Elec       q    Type
REMARK                         _______ _______ _______ _____ _____    ______ ____
ROOT
ATOM      1  C2  UNL     1      87.326  70.702  99.047  0.00  0.00    +0.000 C 
ATOM      2  C3  UNL     1      86.578  70.748  97.722  0.00  0.00    +0.000 C 
ATOM      3  C4  UNL     1      86.743  69.781  96.818  0.00  0.00    +0.000 C 
ATOM      4  O2  UNL     1      86.082  69.830  95.585  0.00  0.00    +0.000 OA
ATOM      5  C5  UNL     1      85.894  68.666  94.765  0.00  0.00    +0.000 C 
ATOM      6  C6  UNL     1      85.678  69.066  93.306  0.00  0.00    +0.000 C 
ATOM      7  O3  UNL     1      87.006  67.772  94.880  0.00  0.00    +0.000 OA
ATOM      8  C7  UNL     1      86.661  66.680  95.675  0.00  0.00    +0.000 A 
ATOM      9  C8  UNL     1      85.315  66.651  95.949  0.00  0.00    +0.000 A 
ATOM     10  C9  UNL     1      84.761  67.848  95.314  0.00  0.00    +0.000 C 
ATOM     11  O4  UNL     1      83.560  68.223  95.326  0.00  0.00    +0.000 OA
ATOM     12  C10 UNL     1      84.798  65.796  96.936  0.00  0.00    +0.000 A 
ATOM     13  C11 UNL     1      85.714  65.034  97.718  0.00  0.00    +0.000 A 
ATOM     14  C12 UNL     1      87.072  64.931  97.290  0.00  0.00    +0.000 A 
ATOM     15  C13 UNL     1      87.551  65.773  96.254  0.00  0.00    +0.000 A 
ATOM     16  C14 UNL     1      89.005  65.813  95.893  0.00  0.00    +0.000 C 
ATOM     17  C15 UNL     1      85.261  64.574  99.079  0.00  0.00    +0.000 C 
ATOM     18  O6  UNL     1      86.118  64.236  99.935  0.00  0.00    +0.000 OA
ATOM     19  C16 UNL     1      83.825  64.704  99.486  0.00  0.00    +0.000 C 
ATOM     20  C17 UNL     1      82.971  65.201  98.579  0.00  0.00    +0.000 C 
ATOM     21  N1  UNL     1      81.597  65.491  98.760  0.00  0.00    +0.000 N 
ATOM     22  C18 UNL     1      81.180  66.241  97.566  0.00  0.00    +0.000 C 
ATOM     23  C19 UNL     1      80.741  67.670  97.983  0.00  0.00    +0.000 C 
ATOM     24  C20 UNL     1      79.253  67.916  97.730  0.00  0.00    +0.000 C 
ATOM     25  N2  UNL     1      78.942  67.657  96.312  0.00  0.00    +0.000 NA
ATOM     26  C21 UNL     1      79.330  66.320  95.797  0.00  0.00    +0.000 C 
ATOM     27  C22 UNL     1      80.075  65.454  96.825  0.00  0.00    +0.000 C 
ATOM     28  N3  UNL     1      82.391  66.320  96.731  0.00  0.00    +0.000 NA
ATOM     29  C27 UNL     1      83.381  65.760  97.336  0.00  0.00    +0.000 C 
ATOM     30  N4  UNL     1      83.419  64.646 100.873  0.00  0.00    +0.000 N 
ATOM     31  C28 UNL     1      84.132  63.951 101.905  0.00  0.00    +0.000 C 
ATOM     32  O7  UNL     1      84.292  62.700 101.836  0.00  0.00    +0.000 OA
ATOM     33  C29 UNL     1      84.612  64.715 103.075  0.00  0.00    +0.000 C 
ATOM     34  C30 UNL     1      85.116  65.939 102.847  0.00  0.00    +0.000 C 
ATOM     35  C31 UNL     1      85.356  66.954 103.880  0.00  0.00    +0.000 C 
ATOM     36  C32 UNL     1      84.643  68.078 103.814  0.00  0.00    +0.000 C 
ATOM     37  C33 UNL     1      85.059  69.367 104.468  0.00  0.00    +0.000 C 
ATOM     38  C34 UNL     1      83.967  69.821 105.454  0.00  0.00    +0.000 C 
ATOM     39  C35 UNL     1      85.332  70.407 103.335  0.00  0.00    +0.000 C 
ATOM     40  C36 UNL     1      85.949  71.792 103.729  0.00  0.00    +0.000 C 
ATOM     41  C37 UNL     1      86.936  71.666 104.912  0.00  0.00    +0.000 C 
ATOM     42  C38 UNL     1      86.705  72.445 102.508  0.00  0.00    +0.000 C 
ATOM     43  C39 UNL     1      85.847  72.722 101.218  0.00  0.00    +0.000 C 
ATOM     44  C40 UNL     1      84.742  73.766 101.480  0.00  0.00    +0.000 C 
ATOM     45  C41 UNL     1      86.708  73.136  99.969  0.00  0.00    +0.000 C 
ATOM     46  C44 UNL     1      87.814  72.113  99.511  0.00  0.00    +0.000 C 
ATOM     47  C45 UNL     1      88.688  72.739  98.400  0.00  0.00    +0.000 C 
ATOM     48  C46 UNL     1      84.456  64.169 104.462  0.00  0.00    +0.000 C 
ATOM     49  H14 UNL     1      80.995  65.227  99.572  0.00  0.00    +0.000 HD
ATOM     50  H32 UNL     1      82.766  65.419 101.194  0.00  0.00    +0.000 HD
ENDROOT
BRANCH   1  52
ATOM     51  C1  UNL     1      87.129  68.909 100.540  0.00  0.00    +0.000 C 
ATOM     52  O1  UNL     1      86.538  70.100 100.054  0.00  0.00    +0.000 OA
ENDBRANCH   1  52
BRANCH  14  53
ATOM     53  O5  UNL     1      87.948  64.008  97.870  0.00  0.00    +0.000 OA
ATOM     54  H13 UNL     1      88.680  64.281  98.504  0.00  0.00    +0.000 HD
ENDBRANCH  14  53
BRANCH  39  55
ATOM     55  O8  UNL     1      84.164  70.591 102.570  0.00  0.00    +0.000 OA
ATOM     56  H41 UNL     1      84.018  71.565 102.453  0.00  0.00    +0.000 HD
ENDBRANCH  39  55
BRANCH  42  57
ATOM     57  O9  UNL     1      87.385  73.619 102.892  0.00  0.00    +0.000 OA
ATOM     58  H47 UNL     1      88.262  73.355 103.271  0.00  0.00    +0.000 HD
ENDBRANCH  42  57
BRANCH  25  59
ATOM     59  C23 UNL     1      77.626  68.160  95.846  0.00  0.00    +0.000 C 
BRANCH  59  60
ATOM     60  C24 UNL     1      77.655  69.057  94.580  0.00  0.00    +0.000 C 
ATOM     61  C25 UNL     1      77.389  68.259  93.293  0.00  0.00    +0.000 C 
ATOM     62  C26 UNL     1      79.017  69.769  94.469  0.00  0.00    +0.000 C 
ENDBRANCH  59  60
ENDBRANCH  25  59
BRANCH  45  63
ATOM     63  O10 UNL     1      87.351  74.385 100.250  0.00  0.00    +0.000 OA
BRANCH  63  64
ATOM     64  C42 UNL     1      87.065  75.594  99.602  0.00  0.00    +0.000 C 
ATOM     65  C43 UNL     1      88.109  76.234  98.755  0.00  0.00    +0.000 C 
ATOM     66  O11 UNL     1      85.925  76.126  99.689  0.00  0.00    +0.000 OA
ENDBRANCH  63  64
ENDBRANCH  45  63
TORSDOF 8
ENDMDL
MODEL 18
REMARK VINA RESULT:      -6.9      3.772      9.069
REMARK  Name = ./S1741.pdb
REMARK  19 active torsions:
REMARK  status: ('A' for Active; 'I' for Inactive)
REMARK    1  A    between atoms: C1_1  and  O1_2
REMARK    2  A    between atoms: O1_2  and  C2_3
REMARK    3  A    between atoms: C5_7  and  C6_8
REMARK    4  A    between atoms: C12_16  and  O5_19
REMARK    5  A    between atoms: C13_17  and  C14_18
REMARK    6  A    between atoms: N2_28  and  C23_31
REMARK    7  A    between atoms: C23_31  and  C24_32
REMARK    8  A    between atoms: C24_32  and  C25_33
REMARK    9  A    between atoms: C24_32  and  C26_34
REMARK   10  A    between atoms: C29_40  and  C46_61
REMARK   11  A    between atoms: C33_44  and  C34_45
REMARK   12  A    between atoms: C35_46  and  O8_47
REMARK   13  A    between atoms: C36_48  and  C37_49
REMARK   14  A    between atoms: C38_50  and  O9_51
REMARK   15  A    between atoms: C39_52  and  C40_53
REMARK   16  A    between atoms: C41_54  and  O10_55
REMARK   17  A    between atoms: O10_55  and  C42_56
REMARK   18  A    between atoms: C42_56  and  C43_57
REMARK   19  A    between atoms: C44_59  and  C45_60
REMARK                            x       y       z     vdW  Elec       q    Type
REMARK                         _______ _______ _______ _____ _____    ______ ____
ROOT
ATOM      1  C2  UNL     1      75.712  64.079 104.541  0.00  0.00    +0.000 C 
ATOM      2  C3  UNL     1      74.202  64.258 104.620  0.00  0.00    +0.000 C 
ATOM      3  C4  UNL     1      73.579  64.248 105.800  0.00  0.00    +0.000 C 
ATOM      4  O2  UNL     1      72.189  64.382 105.879  0.00  0.00    +0.000 OA
ATOM      5  C5  UNL     1      71.521  64.780 107.087  0.00  0.00    +0.000 C 
ATOM      6  C6  UNL     1      70.065  64.316 107.074  0.00  0.00    +0.000 C 
ATOM      7  O3  UNL     1      72.200  64.271 108.241  0.00  0.00    +0.000 OA
ATOM      8  C7  UNL     1      72.913  65.294 108.864  0.00  0.00    +0.000 A 
ATOM      9  C8  UNL     1      72.607  66.526 108.340  0.00  0.00    +0.000 A 
ATOM     10  C9  UNL     1      71.653  66.266 107.262  0.00  0.00    +0.000 C 
ATOM     11  O4  UNL     1      71.118  67.116 106.504  0.00  0.00    +0.000 OA
ATOM     12  C10 UNL     1      73.393  67.652 108.638  0.00  0.00    +0.000 A 
ATOM     13  C11 UNL     1      74.575  67.466 109.412  0.00  0.00    +0.000 A 
ATOM     14  C12 UNL     1      74.764  66.231 110.102  0.00  0.00    +0.000 A 
ATOM     15  C13 UNL     1      73.921  65.128 109.818  0.00  0.00    +0.000 A 
ATOM     16  C14 UNL     1      74.192  63.771 110.395  0.00  0.00    +0.000 C 
ATOM     17  C15 UNL     1      75.673  68.487 109.273  0.00  0.00    +0.000 C 
ATOM     18  O6  UNL     1      76.842  68.192 109.627  0.00  0.00    +0.000 OA
ATOM     19  C16 UNL     1      75.429  69.770 108.536  0.00  0.00    +0.000 C 
ATOM     20  C17 UNL     1      74.195  69.978 108.056  0.00  0.00    +0.000 C 
ATOM     21  N1  UNL     1      73.751  71.065 107.264  0.00  0.00    +0.000 N 
ATOM     22  C18 UNL     1      72.407  70.703 106.793  0.00  0.00    +0.000 C 
ATOM     23  C19 UNL     1      72.417  70.586 105.246  0.00  0.00    +0.000 C 
ATOM     24  C20 UNL     1      71.543  71.648 104.578  0.00  0.00    +0.000 C 
ATOM     25  N2  UNL     1      70.168  71.562 105.108  0.00  0.00    +0.000 NA
ATOM     26  C21 UNL     1      70.037  71.650 106.584  0.00  0.00    +0.000 C 
ATOM     27  C22 UNL     1      71.383  71.734 107.321  0.00  0.00    +0.000 C 
ATOM     28  N3  UNL     1      72.145  69.380 107.387  0.00  0.00    +0.000 NA
ATOM     29  C27 UNL     1      73.172  68.988 108.059  0.00  0.00    +0.000 C 
ATOM     30  N4  UNL     1      76.519  70.586 108.047  0.00  0.00    +0.000 N 
ATOM     31  C28 UNL     1      77.833  70.623 108.619  0.00  0.00    +0.000 C 
ATOM     32  O7  UNL     1      77.998  71.010 109.810  0.00  0.00    +0.000 OA
ATOM     33  C29 UNL     1      78.988  70.266 107.769  0.00  0.00    +0.000 C 
ATOM     34  C30 UNL     1      78.834  69.237 106.921  0.00  0.00    +0.000 C 
ATOM     35  C31 UNL     1      79.733  68.929 105.803  0.00  0.00    +0.000 C 
ATOM     36  C32 UNL     1      79.235  69.018 104.569  0.00  0.00    +0.000 C 
ATOM     37  C33 UNL     1      79.831  68.321 103.378  0.00  0.00    +0.000 C 
ATOM     38  C34 UNL     1      80.209  69.360 102.307  0.00  0.00    +0.000 C 
ATOM     39  C35 UNL     1      78.789  67.273 102.873  0.00  0.00    +0.000 C 
ATOM     40  C36 UNL     1      79.222  66.280 101.741  0.00  0.00    +0.000 C 
ATOM     41  C37 UNL     1      80.713  65.888 101.858  0.00  0.00    +0.000 C 
ATOM     42  C38 UNL     1      78.350  64.965 101.775  0.00  0.00    +0.000 C 
ATOM     43  C39 UNL     1      76.797  65.147 101.598  0.00  0.00    +0.000 C 
ATOM     44  C40 UNL     1      76.442  65.708 100.205  0.00  0.00    +0.000 C 
ATOM     45  C41 UNL     1      75.975  63.840 101.890  0.00  0.00    +0.000 C 
ATOM     46  C44 UNL     1      76.151  63.206 103.321  0.00  0.00    +0.000 C 
ATOM     47  C45 UNL     1      75.430  61.840 103.388  0.00  0.00    +0.000 C 
ATOM     48  C46 UNL     1      80.243  71.084 107.803  0.00  0.00    +0.000 C 
ATOM     49  H14 UNL     1      74.269  71.949 107.055  0.00  0.00    +0.000 HD
ATOM     50  H32 UNL     1      76.438  70.903 107.037  0.00  0.00    +0.000 HD
ENDROOT
BRANCH   1  52
ATOM     51  C1  UNL     1      77.216  65.502 105.634  0.00  0.00    +0.000 C 
ATOM     52  O1  UNL     1      76.370  65.329 104.513  0.00  0.00    +0.000 OA
ENDBRANCH   1  52
BRANCH  14  53
ATOM     53  O5  UNL     1      75.768  66.084 111.065  0.00  0.00    +0.000 OA
ATOM     54  H13 UNL     1      75.835  66.680 111.872  0.00  0.00    +0.000 HD
ENDBRANCH  14  53
BRANCH  39  55
ATOM     55  O8  UNL     1      77.592  67.926 102.520  0.00  0.00    +0.000 OA
ATOM     56  H41 UNL     1      76.899  67.237 102.351  0.00  0.00    +0.000 HD
ENDBRANCH  39  55
BRANCH  42  57
ATOM     57  O9  UNL     1      78.827  64.007 100.855  0.00  0.00    +0.000 OA
ATOM     58  H47 UNL     1      79.405  63.370 101.348  0.00  0.00    +0.000 HD
ENDBRANCH  42  57
BRANCH  25  59
ATOM     59  C23 UNL     1      69.140  72.299 104.333  0.00  0.00    +0.000 C 
BRANCH  59  60
ATOM     60  C24 UNL     1      68.580  73.582 105.005  0.00  0.00    +0.000 C 
ATOM     61  C25 UNL     1      67.097  73.815 104.674  0.00  0.00    +0.000 C 
ATOM     62  C26 UNL     1      69.401  74.809 104.566  0.00  0.00    +0.000 C 
ENDBRANCH  59  60
ENDBRANCH  25  59
BRANCH  45  63
ATOM     63  O10 UNL     1      76.333  62.847 100.920  0.00  0.00    +0.000 OA
BRANCH  63  64
ATOM     64  C42 UNL     1      75.429  62.199 100.069  0.00  0.00    +0.000 C 
ATOM     65  C43 UNL     1      75.638  60.761  99.740  0.00  0.00    +0.000 C 
ATOM     66  O11 UNL     1      74.418  62.798  99.614  0.00  0.00    +0.000 OA
ENDBRANCH  63  64
ENDBRANCH  45  63
TORSDOF 8
ENDMDL
MODEL 19
REMARK VINA RESULT:      -6.8      6.908     12.246
REMARK  Name = ./S1741.pdb
REMARK  19 active torsions:
REMARK  status: ('A' for Active; 'I' for Inactive)
REMARK    1  A    between atoms: C1_1  and  O1_2
REMARK    2  A    between atoms: O1_2  and  C2_3
REMARK    3  A    between atoms: C5_7  and  C6_8
REMARK    4  A    between atoms: C12_16  and  O5_19
REMARK    5  A    between atoms: C13_17  and  C14_18
REMARK    6  A    between atoms: N2_28  and  C23_31
REMARK    7  A    between atoms: C23_31  and  C24_32
REMARK    8  A    between atoms: C24_32  and  C25_33
REMARK    9  A    between atoms: C24_32  and  C26_34
REMARK   10  A    between atoms: C29_40  and  C46_61
REMARK   11  A    between atoms: C33_44  and  C34_45
REMARK   12  A    between atoms: C35_46  and  O8_47
REMARK   13  A    between atoms: C36_48  and  C37_49
REMARK   14  A    between atoms: C38_50  and  O9_51
REMARK   15  A    between atoms: C39_52  and  C40_53
REMARK   16  A    between atoms: C41_54  and  O10_55
REMARK   17  A    between atoms: O10_55  and  C42_56
REMARK   18  A    between atoms: C42_56  and  C43_57
REMARK   19  A    between atoms: C44_59  and  C45_60
REMARK                            x       y       z     vdW  Elec       q    Type
REMARK                         _______ _______ _______ _____ _____    ______ ____
ROOT
ATOM      1  C2  UNL     1      75.901  71.395 107.845  0.00  0.00    +0.000 C 
ATOM      2  C3  UNL     1      75.971  70.184 106.926  0.00  0.00    +0.000 C 
ATOM      3  C4  UNL     1      74.913  69.385 106.776  0.00  0.00    +0.000 C 
ATOM      4  O2  UNL     1      74.978  68.253 105.956  0.00  0.00    +0.000 OA
ATOM      5  C5  UNL     1      73.803  67.607 105.441  0.00  0.00    +0.000 C 
ATOM      6  C6  UNL     1      74.104  66.152 105.081  0.00  0.00    +0.000 C 
ATOM      7  O3  UNL     1      72.724  67.679 106.379  0.00  0.00    +0.000 OA
ATOM      8  C7  UNL     1      71.796  68.634 105.968  0.00  0.00    +0.000 A 
ATOM      9  C8  UNL     1      72.054  69.085 104.696  0.00  0.00    +0.000 A 
ATOM     10  C9  UNL     1      73.273  68.392 104.276  0.00  0.00    +0.000 C 
ATOM     11  O4  UNL     1      73.873  68.518 103.177  0.00  0.00    +0.000 OA
ATOM     12  C10 UNL     1      71.408  70.225 104.190  0.00  0.00    +0.000 A 
ATOM     13  C11 UNL     1      70.557  70.964 105.062  0.00  0.00    +0.000 A 
ATOM     14  C12 UNL     1      70.154  70.376 106.299  0.00  0.00    +0.000 A 
ATOM     15  C13 UNL     1      70.790  69.194 106.758  0.00  0.00    +0.000 A 
ATOM     16  C14 UNL     1      70.514  68.643 108.125  0.00  0.00    +0.000 C 
ATOM     17  C15 UNL     1      70.318  72.416 104.745  0.00  0.00    +0.000 C 
ATOM     18  O6  UNL     1      69.900  73.186 105.647  0.00  0.00    +0.000 OA
ATOM     19  C16 UNL     1      70.761  72.991 103.433  0.00  0.00    +0.000 C 
ATOM     20  C17 UNL     1      71.330  72.152 102.556  0.00  0.00    +0.000 C 
ATOM     21  N1  UNL     1      71.896  72.476 101.299  0.00  0.00    +0.000 N 
ATOM     22  C18 UNL     1      72.602  71.268 100.848  0.00  0.00    +0.000 C 
ATOM     23  C19 UNL     1      74.120  71.569 100.739  0.00  0.00    +0.000 C 
ATOM     24  C20 UNL     1      74.626  71.487  99.299  0.00  0.00    +0.000 C 
ATOM     25  N2  UNL     1      74.306  70.162  98.735  0.00  0.00    +0.000 NA
ATOM     26  C21 UNL     1      72.878  69.761  98.796  0.00  0.00    +0.000 C 
ATOM     27  C22 UNL     1      71.980  70.777  99.520  0.00  0.00    +0.000 C 
ATOM     28  N3  UNL     1      72.369  70.278 101.912  0.00  0.00    +0.000 NA
ATOM     29  C27 UNL     1      71.684  70.809 102.866  0.00  0.00    +0.000 C 
ATOM     30  N4  UNL     1      70.908  74.417 103.238  0.00  0.00    +0.000 N 
ATOM     31  C28 UNL     1      70.185  75.420 103.963  0.00  0.00    +0.000 C 
ATOM     32  O7  UNL     1      68.925  75.478 103.884  0.00  0.00    +0.000 OA
ATOM     33  C29 UNL     1      70.943  76.419 104.744  0.00  0.00    +0.000 C 
ATOM     34  C30 UNL     1      72.020  75.985 105.418  0.00  0.00    +0.000 C 
ATOM     35  C31 UNL     1      73.059  76.851 105.989  0.00  0.00    +0.000 C 
ATOM     36  C32 UNL     1      74.289  76.748 105.487  0.00  0.00    +0.000 C 
ATOM     37  C33 UNL     1      75.527  77.186 106.221  0.00  0.00    +0.000 C 
ATOM     38  C34 UNL     1      76.271  78.247 105.390  0.00  0.00    +0.000 C 
ATOM     39  C35 UNL     1      76.387  75.914 106.501  0.00  0.00    +0.000 C 
ATOM     40  C36 UNL     1      77.656  76.058 107.409  0.00  0.00    +0.000 C 
ATOM     41  C37 UNL     1      77.449  77.107 108.525  0.00  0.00    +0.000 C 
ATOM     42  C38 UNL     1      78.037  74.679 108.076  0.00  0.00    +0.000 C 
ATOM     43  C39 UNL     1      78.357  73.490 107.097  0.00  0.00    +0.000 C 
ATOM     44  C40 UNL     1      79.615  73.771 106.249  0.00  0.00    +0.000 C 
ATOM     45  C41 UNL     1      78.482  72.099 107.819  0.00  0.00    +0.000 C 
ATOM     46  C44 UNL     1      77.226  71.622 108.642  0.00  0.00    +0.000 C 
ATOM     47  C45 UNL     1      77.568  70.341 109.436  0.00  0.00    +0.000 C 
ATOM     48  C46 UNL     1      70.565  77.869 104.703  0.00  0.00    +0.000 C 
ATOM     49  H14 UNL     1      71.828  73.387 100.789  0.00  0.00    +0.000 HD
ATOM     50  H32 UNL     1      71.819  74.728 102.790  0.00  0.00    +0.000 HD
ENDROOT
BRANCH   1  52
ATOM     51  C1  UNL     1      74.341  73.121 107.582  0.00  0.00    +0.000 C 
ATOM     52  O1  UNL     1      75.556  72.560 107.123  0.00  0.00    +0.000 OA
ENDBRANCH   1  52
BRANCH  14  53
ATOM     53  O5  UNL     1      69.135  70.939 107.073  0.00  0.00    +0.000 OA
ATOM     54  H13 UNL     1      69.287  71.732 107.674  0.00  0.00    +0.000 HD
ENDBRANCH  14  53
BRANCH  39  55
ATOM     55  O8  UNL     1      76.724  75.292 105.283  0.00  0.00    +0.000 OA
ATOM     56  H41 UNL     1      77.710  75.187 105.249  0.00  0.00    +0.000 HD
ENDBRANCH  39  55
BRANCH  42  57
ATOM     57  O9  UNL     1      79.087  74.830 109.006  0.00  0.00    +0.000 OA
ATOM     58  H47 UNL     1      79.155  75.792 109.238  0.00  0.00    +0.000 HD
ENDBRANCH  42  57
BRANCH  25  59
ATOM     59  C23 UNL     1      75.010  69.818  97.475  0.00  0.00    +0.000 C 
BRANCH  59  60
ATOM     60  C24 UNL     1      74.138  69.158  96.374  0.00  0.00    +0.000 C 
ATOM     61  C25 UNL     1      74.830  67.945  95.731  0.00  0.00    +0.000 C 
ATOM     62  C26 UNL     1      73.794  70.190  95.283  0.00  0.00    +0.000 C 
ENDBRANCH  59  60
ENDBRANCH  25  59
BRANCH  45  63
ATOM     63  O10 UNL     1      79.603  72.145 108.711  0.00  0.00    +0.000 OA
BRANCH  63  64
ATOM     64  C42 UNL     1      80.730  71.317 108.619  0.00  0.00    +0.000 C 
ATOM     65  C43 UNL     1      81.745  71.342 109.708  0.00  0.00    +0.000 C 
ATOM     66  O11 UNL     1      80.877  70.522 107.652  0.00  0.00    +0.000 OA
ENDBRANCH  63  64
ENDBRANCH  45  63
TORSDOF 8
ENDMDL
MODEL 20
REMARK VINA RESULT:      -6.7      4.356      8.151
REMARK  Name = ./S1741.pdb
REMARK  19 active torsions:
REMARK  status: ('A' for Active; 'I' for Inactive)
REMARK    1  A    between atoms: C1_1  and  O1_2
REMARK    2  A    between atoms: O1_2  and  C2_3
REMARK    3  A    between atoms: C5_7  and  C6_8
REMARK    4  A    between atoms: C12_16  and  O5_19
REMARK    5  A    between atoms: C13_17  and  C14_18
REMARK    6  A    between atoms: N2_28  and  C23_31
REMARK    7  A    between atoms: C23_31  and  C24_32
REMARK    8  A    between atoms: C24_32  and  C25_33
REMARK    9  A    between atoms: C24_32  and  C26_34
REMARK   10  A    between atoms: C29_40  and  C46_61
REMARK   11  A    between atoms: C33_44  and  C34_45
REMARK   12  A    between atoms: C35_46  and  O8_47
REMARK   13  A    between atoms: C36_48  and  C37_49
REMARK   14  A    between atoms: C38_50  and  O9_51
REMARK   15  A    between atoms: C39_52  and  C40_53
REMARK   16  A    between atoms: C41_54  and  O10_55
REMARK   17  A    between atoms: O10_55  and  C42_56
REMARK   18  A    between atoms: C42_56  and  C43_57
REMARK   19  A    between atoms: C44_59  and  C45_60
REMARK                            x       y       z     vdW  Elec       q    Type
REMARK                         _______ _______ _______ _____ _____    ______ ____
ROOT
ATOM      1  C2  UNL     1      77.707  70.411 103.355  0.00  0.00    +0.000 C 
ATOM      2  C3  UNL     1      78.253  69.021 103.649  0.00  0.00    +0.000 C 
ATOM      3  C4  UNL     1      78.360  68.588 104.906  0.00  0.00    +0.000 C 
ATOM      4  O2  UNL     1      78.888  67.323 105.187  0.00  0.00    +0.000 OA
ATOM      5  C5  UNL     1      78.658  66.652 106.437  0.00  0.00    +0.000 C 
ATOM      6  C6  UNL     1      79.750  65.617 106.700  0.00  0.00    +0.000 C 
ATOM      7  O3  UNL     1      78.585  67.590 107.517  0.00  0.00    +0.000 OA
ATOM      8  C7  UNL     1      77.259  67.761 107.912  0.00  0.00    +0.000 A 
ATOM      9  C8  UNL     1      76.425  66.846 107.317  0.00  0.00    +0.000 A 
ATOM     10  C9  UNL     1      77.281  66.053 106.434  0.00  0.00    +0.000 C 
ATOM     11  O4  UNL     1      76.924  65.107 105.684  0.00  0.00    +0.000 OA
ATOM     12  C10 UNL     1      75.030  67.001 107.370  0.00  0.00    +0.000 A 
ATOM     13  C11 UNL     1      74.502  68.183 107.965  0.00  0.00    +0.000 A 
ATOM     14  C12 UNL     1      75.367  69.012 108.742  0.00  0.00    +0.000 A 
ATOM     15  C13 UNL     1      76.768  68.797 108.708  0.00  0.00    +0.000 A 
ATOM     16  C14 UNL     1      77.717  69.748 109.374  0.00  0.00    +0.000 C 
ATOM     17  C15 UNL     1      73.123  68.622 107.551  0.00  0.00    +0.000 C 
ATOM     18  O6  UNL     1      72.767  69.812 107.747  0.00  0.00    +0.000 OA
ATOM     19  C16 UNL     1      72.251  67.718 106.732  0.00  0.00    +0.000 C 
ATOM     20  C17 UNL     1      72.735  66.505 106.431  0.00  0.00    +0.000 C 
ATOM     21  N1  UNL     1      72.136  65.519 105.610  0.00  0.00    +0.000 N 
ATOM     22  C18 UNL     1      73.164  64.490 105.395  0.00  0.00    +0.000 C 
ATOM     23  C19 UNL     1      73.517  64.423 103.885  0.00  0.00    +0.000 C 
ATOM     24  C20 UNL     1      73.124  63.086 103.256  0.00  0.00    +0.000 C 
ATOM     25  N2  UNL     1      73.759  61.982 104.000  0.00  0.00    +0.000 NA
ATOM     26  C21 UNL     1      73.499  61.952 105.461  0.00  0.00    +0.000 C 
ATOM     27  C22 UNL     1      72.668  63.142 105.966  0.00  0.00    +0.000 C 
ATOM     28  N3  UNL     1      74.333  64.962 106.156  0.00  0.00    +0.000 NA
ATOM     29  C27 UNL     1      74.075  66.104 106.697  0.00  0.00    +0.000 C 
ATOM     30  N4  UNL     1      71.111  68.221 105.997  0.00  0.00    +0.000 N 
ATOM     31  C28 UNL     1      70.363  69.391 106.350  0.00  0.00    +0.000 C 
ATOM     32  O7  UNL     1      69.752  69.447 107.454  0.00  0.00    +0.000 OA
ATOM     33  C29 UNL     1      70.267  70.495 105.372  0.00  0.00    +0.000 C 
ATOM     34  C30 UNL     1      71.371  70.794 104.669  0.00  0.00    +0.000 C 
ATOM     35  C31 UNL     1      71.399  71.628 103.462  0.00  0.00    +0.000 C 
ATOM     36  C32 UNL     1      71.762  71.046 102.320  0.00  0.00    +0.000 C 
ATOM     37  C33 UNL     1      72.282  71.803 101.129  0.00  0.00    +0.000 C 
ATOM     38  C34 UNL     1      71.383  71.529  99.910  0.00  0.00    +0.000 C 
ATOM     39  C35 UNL     1      73.766  71.370 100.904  0.00  0.00    +0.000 C 
ATOM     40  C36 UNL     1      74.609  72.135  99.827  0.00  0.00    +0.000 C 
ATOM     41  C37 UNL     1      74.224  73.630  99.750  0.00  0.00    +0.000 C 
ATOM     42  C38 UNL     1      76.153  72.026 100.133  0.00  0.00    +0.000 C 
ATOM     43  C39 UNL     1      76.760  70.575 100.184  0.00  0.00    +0.000 C 
ATOM     44  C40 UNL     1      76.674  69.873  98.812  0.00  0.00    +0.000 C 
ATOM     45  C41 UNL     1      78.231  70.529 100.734  0.00  0.00    +0.000 C 
ATOM     46  C44 UNL     1      78.458  71.115 102.178  0.00  0.00    +0.000 C 
ATOM     47  C45 UNL     1      79.969  71.166 102.498  0.00  0.00    +0.000 C 
ATOM     48  C46 UNL     1      68.959  71.185 105.124  0.00  0.00    +0.000 C 
ATOM     49  H14 UNL     1      71.161  65.516 105.233  0.00  0.00    +0.000 HD
ATOM     50  H32 UNL     1      71.043  67.909 104.985  0.00  0.00    +0.000 HD
ENDROOT
BRANCH   1  52
ATOM     51  C1  UNL     1      75.580  71.091 104.060  0.00  0.00    +0.000 C 
ATOM     52  O1  UNL     1      76.319  70.367 103.094  0.00  0.00    +0.000 OA
ENDBRANCH   1  52
BRANCH  14  53
ATOM     53  O5  UNL     1      74.859  70.038 109.546  0.00  0.00    +0.000 OA
ATOM     54  H13 UNL     1      74.794  69.959 110.546  0.00  0.00    +0.000 HD
ENDBRANCH  14  53
BRANCH  39  55
ATOM     55  O8  UNL     1      73.825  69.981 100.677  0.00  0.00    +0.000 OA
ATOM     56  H41 UNL     1      74.746  69.751 100.388  0.00  0.00    +0.000 HD
ENDBRANCH  39  55
BRANCH  42  57
ATOM     57  O9  UNL     1      76.910  72.831  99.255  0.00  0.00    +0.000 OA
ATOM     58  H47 UNL     1      77.677  72.293  98.931  0.00  0.00    +0.000 HD
ENDBRANCH  42  57
BRANCH  25  59
ATOM     59  C23 UNL     1      73.737  60.662 103.323  0.00  0.00    +0.000 C 
BRANCH  59  60
ATOM     60  C24 UNL     1      75.116  59.973 103.142  0.00  0.00    +0.000 C 
ATOM     61  C25 UNL     1      75.431  58.989 104.280  0.00  0.00    +0.000 C 
ATOM     62  C26 UNL     1      76.230  61.035 103.060  0.00  0.00    +0.000 C 
ENDBRANCH  59  60
ENDBRANCH  25  59
BRANCH  45  63
ATOM     63  O10 UNL     1      79.082  71.243  99.828  0.00  0.00    +0.000 OA
BRANCH  63  64
ATOM     64  C42 UNL     1      80.104  70.662  99.067  0.00  0.00    +0.000 C 
ATOM     65  C43 UNL     1      80.375  69.204  99.199  0.00  0.00    +0.000 C 
ATOM     66  O11 UNL     1      80.769  71.344  98.242  0.00  0.00    +0.000 OA
ENDBRANCH  63  64
ENDBRANCH  45  63
TORSDOF 8
ENDMDL
