MODEL 1
REMARK VINA RESULT:      -7.6      0.000      0.000
REMARK  Name = ./S1764.pdb
REMARK  20 active torsions:
REMARK  status: ('A' for Active; 'I' for Inactive)
REMARK    1  A    between atoms: C1_1  and  O1_2
REMARK    2  A    between atoms: O1_2  and  C2_3
REMARK    3  A    between atoms: C5_7  and  C6_8
REMARK    4  A    between atoms: C11_15  and  O5_16
REMARK    5  A    between atoms: C12_17  and  C38_51
REMARK    6  A    between atoms: C15_22  and  C32_43
REMARK    7  A    between atoms: C19_26  and  C20_27
REMARK    8  A    between atoms: C21_28  and  O7_29
REMARK    9  A    between atoms: C22_30  and  C23_31
REMARK   10  A    between atoms: C24_32  and  O8_33
REMARK   11  A    between atoms: C25_34  and  C26_35
REMARK   12  A    between atoms: C27_36  and  O9_37
REMARK   13  A    between atoms: O9_37  and  C28_38
REMARK   14  A    between atoms: C28_38  and  C29_39
REMARK   15  A    between atoms: C30_41  and  C31_42
REMARK   16  A    between atoms: C33_44  and  O12_50
REMARK   17  A    between atoms: C35_46  and  O11_49
REMARK   18  A    between atoms: C36_47  and  C37_48
REMARK   19  A    between atoms: N2_52  and  N3_53
REMARK   20  A    between atoms: N4_56  and  C41_57
REMARK                            x       y       z     vdW  Elec       q    Type
REMARK                         _______ _______ _______ _____ _____    ______ ____
ROOT
ATOM      1  C2  UNL     1      77.271  68.102 104.497  0.00  0.00    +0.000 C 
ATOM      2  C3  UNL     1      76.729  67.441 103.248  0.00  0.00    +0.000 C 
ATOM      3  C4  UNL     1      77.483  66.672 102.462  0.00  0.00    +0.000 C 
ATOM      4  O2  UNL     1      76.902  66.085 101.339  0.00  0.00    +0.000 OA
ATOM      5  C5  UNL     1      77.512  65.036 100.586  0.00  0.00    +0.000 C 
ATOM      6  C6  UNL     1      78.440  65.589  99.507  0.00  0.00    +0.000 C 
ATOM      7  O3  UNL     1      78.195  64.127 101.448  0.00  0.00    +0.000 OA
ATOM      8  C7  UNL     1      77.427  62.989 101.647  0.00  0.00    +0.000 A 
ATOM      9  C8  UNL     1      76.324  62.953 100.826  0.00  0.00    +0.000 A 
ATOM     10  C9  UNL     1      76.406  64.190 100.042  0.00  0.00    +0.000 C 
ATOM     11  O4  UNL     1      75.601  64.570  99.154  0.00  0.00    +0.000 OA
ATOM     12  C10 UNL     1      75.247  62.077 101.101  0.00  0.00    +0.000 A 
ATOM     13  C11 UNL     1      74.081  62.006 100.303  0.00  0.00    +0.000 A 
ATOM     14  C12 UNL     1      72.915  61.397 100.826  0.00  0.00    +0.000 A 
ATOM     15  C13 UNL     1      72.911  60.979 102.171  0.00  0.00    +0.000 A 
ATOM     16  N1  UNL     1      71.681  60.919 102.911  0.00  0.00    +0.000 N 
ATOM     17  C14 UNL     1      71.048  62.168 103.236  0.00  0.00    +0.000 C 
ATOM     18  O6  UNL     1      70.835  63.016 102.323  0.00  0.00    +0.000 OA
ATOM     19  C15 UNL     1      70.809  62.559 104.639  0.00  0.00    +0.000 C 
ATOM     20  C16 UNL     1      71.185  63.795 105.023  0.00  0.00    +0.000 C 
ATOM     21  C17 UNL     1      70.964  64.357 106.373  0.00  0.00    +0.000 C 
ATOM     22  C18 UNL     1      71.561  65.495 106.733  0.00  0.00    +0.000 C 
ATOM     23  C19 UNL     1      71.201  66.214 108.014  0.00  0.00    +0.000 C 
ATOM     24  C20 UNL     1      70.118  67.261 107.710  0.00  0.00    +0.000 C 
ATOM     25  C21 UNL     1      72.475  66.768 108.736  0.00  0.00    +0.000 C 
ATOM     26  C22 UNL     1      73.164  68.034 108.094  0.00  0.00    +0.000 C 
ATOM     27  C23 UNL     1      72.546  69.347 108.635  0.00  0.00    +0.000 C 
ATOM     28  C24 UNL     1      74.711  67.987 108.347  0.00  0.00    +0.000 C 
ATOM     29  C25 UNL     1      75.501  69.273 107.871  0.00  0.00    +0.000 C 
ATOM     30  C26 UNL     1      76.038  70.027 109.104  0.00  0.00    +0.000 C 
ATOM     31  C27 UNL     1      76.647  69.008 106.826  0.00  0.00    +0.000 C 
ATOM     32  C30 UNL     1      76.114  68.634 105.402  0.00  0.00    +0.000 C 
ATOM     33  C31 UNL     1      75.365  69.819 104.738  0.00  0.00    +0.000 C 
ATOM     34  C32 UNL     1      70.212  61.568 105.606  0.00  0.00    +0.000 C 
ATOM     35  C33 UNL     1      74.116  60.848 102.877  0.00  0.00    +0.000 A 
ATOM     36  C34 UNL     1      75.325  61.312 102.305  0.00  0.00    +0.000 A 
ATOM     37  C35 UNL     1      76.585  61.153 102.948  0.00  0.00    +0.000 A 
ATOM     38  C36 UNL     1      77.650  62.026 102.628  0.00  0.00    +0.000 A 
ATOM     39  C37 UNL     1      78.950  61.996 103.382  0.00  0.00    +0.000 C 
ATOM     40  H11 UNL     1      71.561  60.123 103.575  0.00  0.00    +0.000 HD
ENDROOT
BRANCH   1  42
ATOM     41  C1  UNL     1      79.472  68.808 104.132  0.00  0.00    +0.000 C 
ATOM     42  O1  UNL     1      78.111  69.186 104.119  0.00  0.00    +0.000 OA
ENDBRANCH   1  42
BRANCH  13  43
ATOM     43  O5  UNL     1      74.100  62.537  99.014  0.00  0.00    +0.000 OA
ATOM     44  H10 UNL     1      74.361  62.014  98.189  0.00  0.00    +0.000 HD
ENDBRANCH  13  43
BRANCH  25  45
ATOM     45  O7  UNL     1      72.250  66.961 110.113  0.00  0.00    +0.000 OA
ATOM     46  H20 UNL     1      72.607  66.180 110.607  0.00  0.00    +0.000 HD
ENDBRANCH  25  45
BRANCH  28  47
ATOM     47  O8  UNL     1      75.238  66.824 107.752  0.00  0.00    +0.000 OA
ATOM     48  H26 UNL     1      74.821  66.043 108.203  0.00  0.00    +0.000 HD
ENDBRANCH  28  47
BRANCH  37  49
ATOM     49  O11 UNL     1      76.769  60.127 103.880  0.00  0.00    +0.000 OA
ATOM     50  H45 UNL     1      76.818  60.283 104.879  0.00  0.00    +0.000 HD
ENDBRANCH  37  49
BRANCH  35  51
ATOM     51  O12 UNL     1      74.036  60.379 104.192  0.00  0.00    +0.000 OA
ATOM     52  H46 UNL     1      73.287  59.799 104.536  0.00  0.00    +0.000 HD
ENDBRANCH  35  51
BRANCH  14  53
ATOM     53  C38 UNL     1      71.680  61.207 100.022  0.00  0.00    +0.000 C 
ATOM     54  N2  UNL     1      71.730  61.005  98.739  0.00  0.00    +0.000 NA
BRANCH  54  55
ATOM     55  N3  UNL     1      70.575  60.796  97.961  0.00  0.00    +0.000 N 
ATOM     56  C39 UNL     1      70.676  60.553  96.520  0.00  0.00    +0.000 C 
ATOM     57  C40 UNL     1      69.414  61.066  95.815  0.00  0.00    +0.000 C 
ATOM     58  N4  UNL     1      68.171  60.566  96.443  0.00  0.00    +0.000 NA
ATOM     59  C41 UNL     1      67.914  59.148  96.138  0.00  0.00    +0.000 C 
ATOM     60  C42 UNL     1      68.122  60.853  97.893  0.00  0.00    +0.000 C 
ATOM     61  C43 UNL     1      69.364  60.341  98.638  0.00  0.00    +0.000 C 
ENDBRANCH  54  55
ENDBRANCH  14  53
BRANCH  31  62
ATOM     62  O9  UNL     1      77.486  70.165 106.699  0.00  0.00    +0.000 OA
BRANCH  62  63
ATOM     63  C28 UNL     1      78.782  70.266 107.220  0.00  0.00    +0.000 C 
ATOM     64  C29 UNL     1      79.634  71.422 106.827  0.00  0.00    +0.000 C 
ATOM     65  O10 UNL     1      79.220  69.414 108.038  0.00  0.00    +0.000 OA
ENDBRANCH  62  63
ENDBRANCH  31  62
TORSDOF 10
ENDMDL
MODEL 2
REMARK VINA RESULT:      -7.5      4.592     10.337
REMARK  Name = ./S1764.pdb
REMARK  20 active torsions:
REMARK  status: ('A' for Active; 'I' for Inactive)
REMARK    1  A    between atoms: C1_1  and  O1_2
REMARK    2  A    between atoms: O1_2  and  C2_3
REMARK    3  A    between atoms: C5_7  and  C6_8
REMARK    4  A    between atoms: C11_15  and  O5_16
REMARK    5  A    between atoms: C12_17  and  C38_51
REMARK    6  A    between atoms: C15_22  and  C32_43
REMARK    7  A    between atoms: C19_26  and  C20_27
REMARK    8  A    between atoms: C21_28  and  O7_29
REMARK    9  A    between atoms: C22_30  and  C23_31
REMARK   10  A    between atoms: C24_32  and  O8_33
REMARK   11  A    between atoms: C25_34  and  C26_35
REMARK   12  A    between atoms: C27_36  and  O9_37
REMARK   13  A    between atoms: O9_37  and  C28_38
REMARK   14  A    between atoms: C28_38  and  C29_39
REMARK   15  A    between atoms: C30_41  and  C31_42
REMARK   16  A    between atoms: C33_44  and  O12_50
REMARK   17  A    between atoms: C35_46  and  O11_49
REMARK   18  A    between atoms: C36_47  and  C37_48
REMARK   19  A    between atoms: N2_52  and  N3_53
REMARK   20  A    between atoms: N4_56  and  C41_57
REMARK                            x       y       z     vdW  Elec       q    Type
REMARK                         _______ _______ _______ _____ _____    ______ ____
ROOT
ATOM      1  C2  UNL     1      76.405  68.349 102.906  0.00  0.00    +0.000 C 
ATOM      2  C3  UNL     1      76.536  68.275 104.412  0.00  0.00    +0.000 C 
ATOM      3  C4  UNL     1      75.788  69.014 105.231  0.00  0.00    +0.000 C 
ATOM      4  O2  UNL     1      75.958  68.872 106.608  0.00  0.00    +0.000 OA
ATOM      5  C5  UNL     1      75.044  69.387 107.578  0.00  0.00    +0.000 C 
ATOM      6  C6  UNL     1      75.369  70.835 107.939  0.00  0.00    +0.000 C 
ATOM      7  O3  UNL     1      73.698  69.251 107.125  0.00  0.00    +0.000 OA
ATOM      8  C7  UNL     1      73.098  68.158 107.735  0.00  0.00    +0.000 A 
ATOM      9  C8  UNL     1      73.877  67.624 108.734  0.00  0.00    +0.000 A 
ATOM     10  C9  UNL     1      75.084  68.459 108.749  0.00  0.00    +0.000 C 
ATOM     11  O4  UNL     1      76.072  68.337 109.517  0.00  0.00    +0.000 OA
ATOM     12  C10 UNL     1      73.620  66.327 109.237  0.00  0.00    +0.000 A 
ATOM     13  C11 UNL     1      74.396  65.719 110.252  0.00  0.00    +0.000 A 
ATOM     14  C12 UNL     1      74.319  64.319 110.443  0.00  0.00    +0.000 A 
ATOM     15  C13 UNL     1      73.559  63.550 109.540  0.00  0.00    +0.000 A 
ATOM     16  N1  UNL     1      73.889  62.172 109.300  0.00  0.00    +0.000 N 
ATOM     17  C14 UNL     1      75.111  61.904 108.591  0.00  0.00    +0.000 C 
ATOM     18  O6  UNL     1      76.190  62.431 108.984  0.00  0.00    +0.000 OA
ATOM     19  C15 UNL     1      75.103  61.177 107.307  0.00  0.00    +0.000 C 
ATOM     20  C16 UNL     1      75.792  61.706 106.276  0.00  0.00    +0.000 C 
ATOM     21  C17 UNL     1      75.930  61.073 104.947  0.00  0.00    +0.000 C 
ATOM     22  C18 UNL     1      76.438  61.764 103.924  0.00  0.00    +0.000 C 
ATOM     23  C19 UNL     1      76.794  61.100 102.612  0.00  0.00    +0.000 C 
ATOM     24  C20 UNL     1      78.274  60.692 102.646  0.00  0.00    +0.000 C 
ATOM     25  C21 UNL     1      76.378  61.988 101.391  0.00  0.00    +0.000 C 
ATOM     26  C22 UNL     1      77.260  63.265 101.107  0.00  0.00    +0.000 C 
ATOM     27  C23 UNL     1      78.458  62.929 100.184  0.00  0.00    +0.000 C 
ATOM     28  C24 UNL     1      76.372  64.404 100.493  0.00  0.00    +0.000 C 
ATOM     29  C25 UNL     1      77.167  65.692 100.034  0.00  0.00    +0.000 C 
ATOM     30  C26 UNL     1      77.120  65.800  98.497  0.00  0.00    +0.000 C 
ATOM     31  C27 UNL     1      76.713  67.038 100.710  0.00  0.00    +0.000 C 
ATOM     32  C30 UNL     1      77.125  67.146 102.217  0.00  0.00    +0.000 C 
ATOM     33  C31 UNL     1      78.665  67.225 102.388  0.00  0.00    +0.000 C 
ATOM     34  C32 UNL     1      74.294  59.912 107.162  0.00  0.00    +0.000 C 
ATOM     35  C33 UNL     1      72.630  64.167 108.690  0.00  0.00    +0.000 A 
ATOM     36  C34 UNL     1      72.584  65.579 108.600  0.00  0.00    +0.000 A 
ATOM     37  C35 UNL     1      71.624  66.262 107.798  0.00  0.00    +0.000 A 
ATOM     38  C36 UNL     1      71.899  67.569 107.338  0.00  0.00    +0.000 A 
ATOM     39  C37 UNL     1      70.990  68.275 106.372  0.00  0.00    +0.000 C 
ATOM     40  H11 UNL     1      73.097  61.505 109.178  0.00  0.00    +0.000 HD
ENDROOT
BRANCH   1  42
ATOM     41  C1  UNL     1      75.991  70.547 102.216  0.00  0.00    +0.000 C 
ATOM     42  O1  UNL     1      76.982  69.567 102.451  0.00  0.00    +0.000 OA
ENDBRANCH   1  42
BRANCH  13  43
ATOM     43  O5  UNL     1      75.222  66.511 111.049  0.00  0.00    +0.000 OA
ATOM     44  H10 UNL     1      74.938  67.387 111.465  0.00  0.00    +0.000 HD
ENDBRANCH  13  43
BRANCH  25  45
ATOM     45  O7  UNL     1      76.212  61.221 100.222  0.00  0.00    +0.000 OA
ATOM     46  H20 UNL     1      76.475  60.285 100.416  0.00  0.00    +0.000 HD
ENDBRANCH  25  45
BRANCH  28  47
ATOM     47  O8  UNL     1      75.358  64.739 101.412  0.00  0.00    +0.000 OA
ATOM     48  H26 UNL     1      75.051  63.896 101.839  0.00  0.00    +0.000 HD
ENDBRANCH  28  47
BRANCH  37  49
ATOM     49  O11 UNL     1      70.409  65.644 107.485  0.00  0.00    +0.000 OA
ATOM     50  H45 UNL     1      70.289  64.640 107.445  0.00  0.00    +0.000 HD
ENDBRANCH  37  49
BRANCH  35  51
ATOM     51  O12 UNL     1      71.876  63.333 107.858  0.00  0.00    +0.000 OA
ATOM     52  H46 UNL     1      71.456  62.469 108.163  0.00  0.00    +0.000 HD
ENDBRANCH  35  51
BRANCH  14  53
ATOM     53  C38 UNL     1      75.034  63.619 111.542  0.00  0.00    +0.000 C 
ATOM     54  N2  UNL     1      74.495  62.620 112.175  0.00  0.00    +0.000 NA
BRANCH  54  55
ATOM     55  N3  UNL     1      75.164  61.926 113.201  0.00  0.00    +0.000 N 
ATOM     56  C39 UNL     1      74.461  60.928 114.013  0.00  0.00    +0.000 C 
ATOM     57  C40 UNL     1      75.084  60.863 115.413  0.00  0.00    +0.000 C 
ATOM     58  N4  UNL     1      76.555  60.705 115.372  0.00  0.00    +0.000 NA
ATOM     59  C41 UNL     1      76.967  59.344 114.990  0.00  0.00    +0.000 C 
ATOM     60  C42 UNL     1      77.207  61.747 114.550  0.00  0.00    +0.000 C 
ATOM     61  C43 UNL     1      76.619  61.835 113.132  0.00  0.00    +0.000 C 
ENDBRANCH  54  55
ENDBRANCH  14  53
BRANCH  31  62
ATOM     62  O9  UNL     1      77.269  68.162 100.013  0.00  0.00    +0.000 OA
BRANCH  62  63
ATOM     63  C28 UNL     1      76.552  68.986  99.137  0.00  0.00    +0.000 C 
ATOM     64  C29 UNL     1      77.295  69.940  98.268  0.00  0.00    +0.000 C 
ATOM     65  O10 UNL     1      75.297  68.907  99.052  0.00  0.00    +0.000 OA
ENDBRANCH  62  63
ENDBRANCH  31  62
TORSDOF 10
ENDMDL
MODEL 3
REMARK VINA RESULT:      -7.4      4.854     10.902
REMARK  Name = ./S1764.pdb
REMARK  20 active torsions:
REMARK  status: ('A' for Active; 'I' for Inactive)
REMARK    1  A    between atoms: C1_1  and  O1_2
REMARK    2  A    between atoms: O1_2  and  C2_3
REMARK    3  A    between atoms: C5_7  and  C6_8
REMARK    4  A    between atoms: C11_15  and  O5_16
REMARK    5  A    between atoms: C12_17  and  C38_51
REMARK    6  A    between atoms: C15_22  and  C32_43
REMARK    7  A    between atoms: C19_26  and  C20_27
REMARK    8  A    between atoms: C21_28  and  O7_29
REMARK    9  A    between atoms: C22_30  and  C23_31
REMARK   10  A    between atoms: C24_32  and  O8_33
REMARK   11  A    between atoms: C25_34  and  C26_35
REMARK   12  A    between atoms: C27_36  and  O9_37
REMARK   13  A    between atoms: O9_37  and  C28_38
REMARK   14  A    between atoms: C28_38  and  C29_39
REMARK   15  A    between atoms: C30_41  and  C31_42
REMARK   16  A    between atoms: C33_44  and  O12_50
REMARK   17  A    between atoms: C35_46  and  O11_49
REMARK   18  A    between atoms: C36_47  and  C37_48
REMARK   19  A    between atoms: N2_52  and  N3_53
REMARK   20  A    between atoms: N4_56  and  C41_57
REMARK                            x       y       z     vdW  Elec       q    Type
REMARK                         _______ _______ _______ _____ _____    ______ ____
ROOT
ATOM      1  C2  UNL     1      76.181  68.621 102.943  0.00  0.00    +0.000 C 
ATOM      2  C3  UNL     1      76.259  68.779 104.446  0.00  0.00    +0.000 C 
ATOM      3  C4  UNL     1      75.478  69.626 105.117  0.00  0.00    +0.000 C 
ATOM      4  O2  UNL     1      75.600  69.699 106.504  0.00  0.00    +0.000 OA
ATOM      5  C5  UNL     1      74.650  70.346 107.352  0.00  0.00    +0.000 C 
ATOM      6  C6  UNL     1      74.953  71.835 107.498  0.00  0.00    +0.000 C 
ATOM      7  O3  UNL     1      73.321  70.127 106.880  0.00  0.00    +0.000 OA
ATOM      8  C7  UNL     1      72.707  69.133 107.629  0.00  0.00    +0.000 A 
ATOM      9  C8  UNL     1      73.453  68.767 108.724  0.00  0.00    +0.000 A 
ATOM     10  C9  UNL     1      74.653  69.608 108.652  0.00  0.00    +0.000 C 
ATOM     11  O4  UNL     1      75.614  69.615 109.463  0.00  0.00    +0.000 OA
ATOM     12  C10 UNL     1      73.185  67.559 109.410  0.00  0.00    +0.000 A 
ATOM     13  C11 UNL     1      73.928  67.122 110.533  0.00  0.00    +0.000 A 
ATOM     14  C12 UNL     1      73.853  65.767 110.933  0.00  0.00    +0.000 A 
ATOM     15  C13 UNL     1      73.129  64.860 110.133  0.00  0.00    +0.000 A 
ATOM     16  N1  UNL     1      73.476  63.466 110.118  0.00  0.00    +0.000 N 
ATOM     17  C14 UNL     1      74.724  63.106 109.500  0.00  0.00    +0.000 C 
ATOM     18  O6  UNL     1      75.785  63.699 109.845  0.00  0.00    +0.000 OA
ATOM     19  C15 UNL     1      74.765  62.191 108.343  0.00  0.00    +0.000 C 
ATOM     20  C16 UNL     1      75.487  62.564 107.268  0.00  0.00    +0.000 C 
ATOM     21  C17 UNL     1      75.675  61.737 106.056  0.00  0.00    +0.000 C 
ATOM     22  C18 UNL     1      76.215  62.269 104.957  0.00  0.00    +0.000 C 
ATOM     23  C19 UNL     1      76.621  61.417 103.775  0.00  0.00    +0.000 C 
ATOM     24  C20 UNL     1      78.102  61.035 103.922  0.00  0.00    +0.000 C 
ATOM     25  C21 UNL     1      76.244  62.103 102.420  0.00  0.00    +0.000 C 
ATOM     26  C22 UNL     1      77.127  63.332 101.974  0.00  0.00    +0.000 C 
ATOM     27  C23 UNL     1      78.359  62.871 101.154  0.00  0.00    +0.000 C 
ATOM     28  C24 UNL     1      76.256  64.353 101.163  0.00  0.00    +0.000 C 
ATOM     29  C25 UNL     1      77.059  65.564 100.540  0.00  0.00    +0.000 C 
ATOM     30  C26 UNL     1      77.065  65.436  99.003  0.00  0.00    +0.000 C 
ATOM     31  C27 UNL     1      76.573  66.993 100.986  0.00  0.00    +0.000 C 
ATOM     32  C30 UNL     1      76.932  67.335 102.471  0.00  0.00    +0.000 C 
ATOM     33  C31 UNL     1      78.464  67.456 102.680  0.00  0.00    +0.000 C 
ATOM     34  C32 UNL     1      73.969  60.910 108.366  0.00  0.00    +0.000 C 
ATOM     35  C33 UNL     1      72.227  65.330 109.167  0.00  0.00    +0.000 A 
ATOM     36  C34 UNL     1      72.176  66.711 108.860  0.00  0.00    +0.000 A 
ATOM     37  C35 UNL     1      71.242  67.253 107.932  0.00  0.00    +0.000 A 
ATOM     38  C36 UNL     1      71.526  68.478 107.287  0.00  0.00    +0.000 A 
ATOM     39  C37 UNL     1      70.647  69.018 106.193  0.00  0.00    +0.000 C 
ATOM     40  H11 UNL     1      72.692  62.779 110.073  0.00  0.00    +0.000 HD
ENDROOT
BRANCH   1  42
ATOM     41  C1  UNL     1      75.778  70.679 101.905  0.00  0.00    +0.000 C 
ATOM     42  O1  UNL     1      76.766  69.761 102.327  0.00  0.00    +0.000 OA
ENDBRANCH   1  42
BRANCH  13  43
ATOM     43  O5  UNL     1      74.722  68.036 111.227  0.00  0.00    +0.000 OA
ATOM     44  H10 UNL     1      75.697  68.207 111.024  0.00  0.00    +0.000 HD
ENDBRANCH  13  43
BRANCH  25  45
ATOM     45  O7  UNL     1      76.123  61.164 101.377  0.00  0.00    +0.000 OA
ATOM     46  H20 UNL     1      75.648  60.365 101.722  0.00  0.00    +0.000 HD
ENDBRANCH  25  45
BRANCH  28  47
ATOM     47  O8  UNL     1      75.208  64.813 101.985  0.00  0.00    +0.000 OA
ATOM     48  H26 UNL     1      75.341  65.789 102.120  0.00  0.00    +0.000 HD
ENDBRANCH  28  47
BRANCH  37  49
ATOM     49  O11 UNL     1      70.043  66.581 107.676  0.00  0.00    +0.000 OA
ATOM     50  H45 UNL     1      69.522  66.080 108.385  0.00  0.00    +0.000 HD
ENDBRANCH  37  49
BRANCH  35  51
ATOM     51  O12 UNL     1      71.508  64.370 108.448  0.00  0.00    +0.000 OA
ATOM     52  H46 UNL     1      71.738  63.389 108.439  0.00  0.00    +0.000 HD
ENDBRANCH  35  51
BRANCH  14  53
ATOM     53  C38 UNL     1      74.533  65.251 112.149  0.00  0.00    +0.000 C 
ATOM     54  N2  UNL     1      74.336  65.788 113.317  0.00  0.00    +0.000 NA
BRANCH  54  55
ATOM     55  N3  UNL     1      74.949  65.300 114.486  0.00  0.00    +0.000 N 
ATOM     56  C39 UNL     1      74.849  66.038 115.749  0.00  0.00    +0.000 C 
ATOM     57  C40 UNL     1      76.090  65.769 116.610  0.00  0.00    +0.000 C 
ATOM     58  N4  UNL     1      76.376  64.324 116.755  0.00  0.00    +0.000 NA
ATOM     59  C41 UNL     1      75.441  63.653 117.675  0.00  0.00    +0.000 C 
ATOM     60  C42 UNL     1      76.478  63.639 115.449  0.00  0.00    +0.000 C 
ATOM     61  C43 UNL     1      75.246  63.873 114.562  0.00  0.00    +0.000 C 
ENDBRANCH  54  55
ENDBRANCH  14  53
BRANCH  31  62
ATOM     62  O9  UNL     1      77.148  68.003 100.144  0.00  0.00    +0.000 OA
BRANCH  62  63
ATOM     63  C28 UNL     1      76.482  68.619  99.077  0.00  0.00    +0.000 C 
ATOM     64  C29 UNL     1      77.281  69.258  97.996  0.00  0.00    +0.000 C 
ATOM     65  O10 UNL     1      75.223  68.611  99.006  0.00  0.00    +0.000 OA
ENDBRANCH  62  63
ENDBRANCH  31  62
TORSDOF 10
ENDMDL
MODEL 4
REMARK VINA RESULT:      -7.3      4.737     10.888
REMARK  Name = ./S1764.pdb
REMARK  20 active torsions:
REMARK  status: ('A' for Active; 'I' for Inactive)
REMARK    1  A    between atoms: C1_1  and  O1_2
REMARK    2  A    between atoms: O1_2  and  C2_3
REMARK    3  A    between atoms: C5_7  and  C6_8
REMARK    4  A    between atoms: C11_15  and  O5_16
REMARK    5  A    between atoms: C12_17  and  C38_51
REMARK    6  A    between atoms: C15_22  and  C32_43
REMARK    7  A    between atoms: C19_26  and  C20_27
REMARK    8  A    between atoms: C21_28  and  O7_29
REMARK    9  A    between atoms: C22_30  and  C23_31
REMARK   10  A    between atoms: C24_32  and  O8_33
REMARK   11  A    between atoms: C25_34  and  C26_35
REMARK   12  A    between atoms: C27_36  and  O9_37
REMARK   13  A    between atoms: O9_37  and  C28_38
REMARK   14  A    between atoms: C28_38  and  C29_39
REMARK   15  A    between atoms: C30_41  and  C31_42
REMARK   16  A    between atoms: C33_44  and  O12_50
REMARK   17  A    between atoms: C35_46  and  O11_49
REMARK   18  A    between atoms: C36_47  and  C37_48
REMARK   19  A    between atoms: N2_52  and  N3_53
REMARK   20  A    between atoms: N4_56  and  C41_57
REMARK                            x       y       z     vdW  Elec       q    Type
REMARK                         _______ _______ _______ _____ _____    ______ ____
ROOT
ATOM      1  C2  UNL     1      79.953  66.987 103.179  0.00  0.00    +0.000 C 
ATOM      2  C3  UNL     1      79.753  67.373 104.629  0.00  0.00    +0.000 C 
ATOM      3  C4  UNL     1      79.543  68.634 105.010  0.00  0.00    +0.000 C 
ATOM      4  O2  UNL     1      79.351  68.903 106.364  0.00  0.00    +0.000 OA
ATOM      5  C5  UNL     1      78.847  70.143 106.864  0.00  0.00    +0.000 C 
ATOM      6  C6  UNL     1      79.969  71.156 107.078  0.00  0.00    +0.000 C 
ATOM      7  O3  UNL     1      77.834  70.660 106.002  0.00  0.00    +0.000 OA
ATOM      8  C7  UNL     1      76.578  70.401 106.533  0.00  0.00    +0.000 A 
ATOM      9  C8  UNL     1      76.645  69.900 107.812  0.00  0.00    +0.000 A 
ATOM     10  C9  UNL     1      78.080  69.832 108.108  0.00  0.00    +0.000 C 
ATOM     11  O4  UNL     1      78.607  69.436 109.179  0.00  0.00    +0.000 OA
ATOM     12  C10 UNL     1      75.528  69.256 108.394  0.00  0.00    +0.000 A 
ATOM     13  C11 UNL     1      75.541  68.706 109.698  0.00  0.00    +0.000 A 
ATOM     14  C12 UNL     1      74.543  67.775 110.072  0.00  0.00    +0.000 A 
ATOM     15  C13 UNL     1      73.628  67.331 109.097  0.00  0.00    +0.000 A 
ATOM     16  N1  UNL     1      73.018  66.035 109.209  0.00  0.00    +0.000 N 
ATOM     17  C14 UNL     1      73.867  64.891 109.018  0.00  0.00    +0.000 C 
ATOM     18  O6  UNL     1      74.945  64.797 109.670  0.00  0.00    +0.000 OA
ATOM     19  C15 UNL     1      73.600  63.914 107.943  0.00  0.00    +0.000 C 
ATOM     20  C16 UNL     1      74.626  63.558 107.144  0.00  0.00    +0.000 C 
ATOM     21  C17 UNL     1      74.536  62.553 106.063  0.00  0.00    +0.000 C 
ATOM     22  C18 UNL     1      75.531  62.424 105.183  0.00  0.00    +0.000 C 
ATOM     23  C19 UNL     1      75.580  61.276 104.198  0.00  0.00    +0.000 C 
ATOM     24  C20 UNL     1      76.408  60.134 104.806  0.00  0.00    +0.000 C 
ATOM     25  C21 UNL     1      76.050  61.756 102.784  0.00  0.00    +0.000 C 
ATOM     26  C22 UNL     1      77.581  62.101 102.622  0.00  0.00    +0.000 C 
ATOM     27  C23 UNL     1      78.404  60.846 102.236  0.00  0.00    +0.000 C 
ATOM     28  C24 UNL     1      77.763  63.247 101.566  0.00  0.00    +0.000 C 
ATOM     29  C25 UNL     1      79.266  63.590 101.211  0.00  0.00    +0.000 C 
ATOM     30  C26 UNL     1      79.555  63.171  99.755  0.00  0.00    +0.000 C 
ATOM     31  C27 UNL     1      79.692  65.083 101.464  0.00  0.00    +0.000 C 
ATOM     32  C30 UNL     1      79.820  65.444 102.982  0.00  0.00    +0.000 C 
ATOM     33  C31 UNL     1      80.985  64.676 103.660  0.00  0.00    +0.000 C 
ATOM     34  C32 UNL     1      72.202  63.389 107.732  0.00  0.00    +0.000 C 
ATOM     35  C33 UNL     1      73.480  68.032 107.891  0.00  0.00    +0.000 A 
ATOM     36  C34 UNL     1      74.378  69.077 107.566  0.00  0.00    +0.000 A 
ATOM     37  C35 UNL     1      74.242  69.861 106.385  0.00  0.00    +0.000 A 
ATOM     38  C36 UNL     1      75.372  70.516 105.846  0.00  0.00    +0.000 A 
ATOM     39  C37 UNL     1      75.315  71.232 104.526  0.00  0.00    +0.000 C 
ATOM     40  H11 UNL     1      72.016  65.952 108.929  0.00  0.00    +0.000 HD
ENDROOT
BRANCH   1  42
ATOM     41  C1  UNL     1      81.191  68.638 102.075  0.00  0.00    +0.000 C 
ATOM     42  O1  UNL     1      81.247  67.406 102.763  0.00  0.00    +0.000 OA
ENDBRANCH   1  42
BRANCH  13  43
ATOM     43  O5  UNL     1      76.537  69.093 110.595  0.00  0.00    +0.000 OA
ATOM     44  H10 UNL     1      76.682  68.667 111.500  0.00  0.00    +0.000 HD
ENDBRANCH  13  43
BRANCH  25  45
ATOM     45  O7  UNL     1      75.620  60.881 101.768  0.00  0.00    +0.000 OA
ATOM     46  H20 UNL     1      74.751  61.202 101.417  0.00  0.00    +0.000 HD
ENDBRANCH  25  45
BRANCH  28  47
ATOM     47  O8  UNL     1      77.077  64.394 102.012  0.00  0.00    +0.000 OA
ATOM     48  H26 UNL     1      76.418  64.640 101.310  0.00  0.00    +0.000 HD
ENDBRANCH  28  47
BRANCH  37  49
ATOM     49  O11 UNL     1      72.991  69.992 105.774  0.00  0.00    +0.000 OA
ATOM     50  H45 UNL     1      72.690  70.831 105.295  0.00  0.00    +0.000 HD
ENDBRANCH  37  49
BRANCH  35  51
ATOM     51  O12 UNL     1      72.516  67.560 106.995  0.00  0.00    +0.000 OA
ATOM     52  H46 UNL     1      72.553  66.653 106.558  0.00  0.00    +0.000 HD
ENDBRANCH  35  51
BRANCH  14  53
ATOM     53  C38 UNL     1      74.438  67.221 111.447  0.00  0.00    +0.000 C 
ATOM     54  N2  UNL     1      74.857  67.886 112.481  0.00  0.00    +0.000 NA
BRANCH  54  55
ATOM     55  N3  UNL     1      74.745  67.392 113.794  0.00  0.00    +0.000 N 
ATOM     56  C39 UNL     1      75.618  67.891 114.861  0.00  0.00    +0.000 C 
ATOM     57  C40 UNL     1      75.833  66.796 115.913  0.00  0.00    +0.000 C 
ATOM     58  N4  UNL     1      74.561  66.201 116.380  0.00  0.00    +0.000 NA
ATOM     59  C41 UNL     1      73.817  67.094 117.283  0.00  0.00    +0.000 C 
ATOM     60  C42 UNL     1      73.731  65.705 115.261  0.00  0.00    +0.000 C 
ATOM     61  C43 UNL     1      73.480  66.779 114.191  0.00  0.00    +0.000 C 
ENDBRANCH  54  55
ENDBRANCH  14  53
BRANCH  31  62
ATOM     62  O9  UNL     1      80.950  65.360 100.832  0.00  0.00    +0.000 OA
BRANCH  62  63
ATOM     63  C28 UNL     1      81.093  66.009  99.599  0.00  0.00    +0.000 C 
ATOM     64  C29 UNL     1      82.268  65.689  98.743  0.00  0.00    +0.000 C 
ATOM     65  O10 UNL     1      80.227  66.831  99.194  0.00  0.00    +0.000 OA
ENDBRANCH  62  63
ENDBRANCH  31  62
TORSDOF 10
ENDMDL
MODEL 5
REMARK VINA RESULT:      -7.3      2.847      3.800
REMARK  Name = ./S1764.pdb
REMARK  20 active torsions:
REMARK  status: ('A' for Active; 'I' for Inactive)
REMARK    1  A    between atoms: C1_1  and  O1_2
REMARK    2  A    between atoms: O1_2  and  C2_3
REMARK    3  A    between atoms: C5_7  and  C6_8
REMARK    4  A    between atoms: C11_15  and  O5_16
REMARK    5  A    between atoms: C12_17  and  C38_51
REMARK    6  A    between atoms: C15_22  and  C32_43
REMARK    7  A    between atoms: C19_26  and  C20_27
REMARK    8  A    between atoms: C21_28  and  O7_29
REMARK    9  A    between atoms: C22_30  and  C23_31
REMARK   10  A    between atoms: C24_32  and  O8_33
REMARK   11  A    between atoms: C25_34  and  C26_35
REMARK   12  A    between atoms: C27_36  and  O9_37
REMARK   13  A    between atoms: O9_37  and  C28_38
REMARK   14  A    between atoms: C28_38  and  C29_39
REMARK   15  A    between atoms: C30_41  and  C31_42
REMARK   16  A    between atoms: C33_44  and  O12_50
REMARK   17  A    between atoms: C35_46  and  O11_49
REMARK   18  A    between atoms: C36_47  and  C37_48
REMARK   19  A    between atoms: N2_52  and  N3_53
REMARK   20  A    between atoms: N4_56  and  C41_57
REMARK                            x       y       z     vdW  Elec       q    Type
REMARK                         _______ _______ _______ _____ _____    ______ ____
ROOT
ATOM      1  C2  UNL     1      77.342  67.646 105.817  0.00  0.00    +0.000 C 
ATOM      2  C3  UNL     1      77.510  67.017 104.451  0.00  0.00    +0.000 C 
ATOM      3  C4  UNL     1      78.706  66.707 103.950  0.00  0.00    +0.000 C 
ATOM      4  O2  UNL     1      78.774  66.113 102.690  0.00  0.00    +0.000 OA
ATOM      5  C5  UNL     1      79.947  65.487 102.169  0.00  0.00    +0.000 C 
ATOM      6  C6  UNL     1      80.854  66.495 101.467  0.00  0.00    +0.000 C 
ATOM      7  O3  UNL     1      80.644  64.786 103.198  0.00  0.00    +0.000 OA
ATOM      8  C7  UNL     1      80.374  63.427 103.115  0.00  0.00    +0.000 A 
ATOM      9  C8  UNL     1      79.679  63.100 101.975  0.00  0.00    +0.000 A 
ATOM     10  C9  UNL     1      79.490  64.377 101.279  0.00  0.00    +0.000 C 
ATOM     11  O4  UNL     1      78.907  64.553 100.178  0.00  0.00    +0.000 OA
ATOM     12  C10 UNL     1      79.014  61.856 101.866  0.00  0.00    +0.000 A 
ATOM     13  C11 UNL     1      78.270  61.471 100.725  0.00  0.00    +0.000 A 
ATOM     14  C12 UNL     1      77.347  60.402 100.823  0.00  0.00    +0.000 A 
ATOM     15  C13 UNL     1      77.108  59.824 102.086  0.00  0.00    +0.000 A 
ATOM     16  N1  UNL     1      75.845  59.204 102.374  0.00  0.00    +0.000 N 
ATOM     17  C14 UNL     1      74.700  60.066 102.486  0.00  0.00    +0.000 C 
ATOM     18  O6  UNL     1      74.450  60.895 101.566  0.00  0.00    +0.000 OA
ATOM     19  C15 UNL     1      73.916  60.134 103.735  0.00  0.00    +0.000 C 
ATOM     20  C16 UNL     1      73.633  61.352 104.238  0.00  0.00    +0.000 C 
ATOM     21  C17 UNL     1      72.812  61.590 105.445  0.00  0.00    +0.000 C 
ATOM     22  C18 UNL     1      72.767  62.805 105.997  0.00  0.00    +0.000 C 
ATOM     23  C19 UNL     1      71.783  63.145 107.095  0.00  0.00    +0.000 C 
ATOM     24  C20 UNL     1      70.518  63.745 106.462  0.00  0.00    +0.000 C 
ATOM     25  C21 UNL     1      72.450  64.025 108.206  0.00  0.00    +0.000 C 
ATOM     26  C22 UNL     1      72.733  65.534 107.845  0.00  0.00    +0.000 C 
ATOM     27  C23 UNL     1      71.511  66.429 108.166  0.00  0.00    +0.000 C 
ATOM     28  C24 UNL     1      74.016  66.033 108.597  0.00  0.00    +0.000 C 
ATOM     29  C25 UNL     1      74.329  67.574 108.426  0.00  0.00    +0.000 C 
ATOM     30  C26 UNL     1      74.124  68.289 109.777  0.00  0.00    +0.000 C 
ATOM     31  C27 UNL     1      75.741  67.909 107.818  0.00  0.00    +0.000 C 
ATOM     32  C30 UNL     1      75.856  67.572 106.293  0.00  0.00    +0.000 C 
ATOM     33  C31 UNL     1      74.932  68.473 105.433  0.00  0.00    +0.000 C 
ATOM     34  C32 UNL     1      73.505  58.864 104.436  0.00  0.00    +0.000 C 
ATOM     35  C33 UNL     1      77.993  60.052 103.150  0.00  0.00    +0.000 A 
ATOM     36  C34 UNL     1      79.026  61.011 103.017  0.00  0.00    +0.000 A 
ATOM     37  C35 UNL     1      79.989  61.244 104.041  0.00  0.00    +0.000 A 
ATOM     38  C36 UNL     1      80.658  62.486 104.103  0.00  0.00    +0.000 A 
ATOM     39  C37 UNL     1      81.570  62.836 105.245  0.00  0.00    +0.000 C 
ATOM     40  H11 UNL     1      75.860  58.334 102.950  0.00  0.00    +0.000 HD
ENDROOT
BRANCH   1  42
ATOM     41  C1  UNL     1      79.070  69.169 106.229  0.00  0.00    +0.000 C 
ATOM     42  O1  UNL     1      77.749  69.007 105.754  0.00  0.00    +0.000 OA
ENDBRANCH   1  42
BRANCH  13  43
ATOM     43  O5  UNL     1      78.461  62.150  99.522  0.00  0.00    +0.000 OA
ATOM     44  H10 UNL     1      77.971  61.933  98.665  0.00  0.00    +0.000 HD
ENDBRANCH  13  43
BRANCH  25  45
ATOM     45  O7  UNL     1      71.765  63.920 109.432  0.00  0.00    +0.000 OA
ATOM     46  H20 UNL     1      72.428  63.933 110.169  0.00  0.00    +0.000 HD
ENDBRANCH  25  45
BRANCH  28  47
ATOM     47  O8  UNL     1      75.116  65.248 108.196  0.00  0.00    +0.000 OA
ATOM     48  H26 UNL     1      74.936  64.932 107.271  0.00  0.00    +0.000 HD
ENDBRANCH  28  47
BRANCH  37  49
ATOM     49  O11 UNL     1      80.279  60.237 104.967  0.00  0.00    +0.000 OA
ATOM     50  H45 UNL     1      80.234  59.250 104.750  0.00  0.00    +0.000 HD
ENDBRANCH  37  49
BRANCH  35  51
ATOM     51  O12 UNL     1      77.716  59.404 104.358  0.00  0.00    +0.000 OA
ATOM     52  H46 UNL     1      77.983  59.763 105.260  0.00  0.00    +0.000 HD
ENDBRANCH  35  51
BRANCH  14  53
ATOM     53  C38 UNL     1      76.595  59.883  99.652  0.00  0.00    +0.000 C 
ATOM     54  N2  UNL     1      76.275  58.627  99.553  0.00  0.00    +0.000 NA
BRANCH  54  55
ATOM     55  N3  UNL     1      75.541  58.117  98.467  0.00  0.00    +0.000 N 
ATOM     56  C39 UNL     1      76.093  57.056  97.620  0.00  0.00    +0.000 C 
ATOM     57  C40 UNL     1      75.528  57.175  96.199  0.00  0.00    +0.000 C 
ATOM     58  N4  UNL     1      74.052  57.277  96.183  0.00  0.00    +0.000 NA
ATOM     59  C41 UNL     1      73.393  55.991  96.468  0.00  0.00    +0.000 C 
ATOM     60  C42 UNL     1      73.556  58.372  97.044  0.00  0.00    +0.000 C 
ATOM     61  C43 UNL     1      74.090  58.279  98.482  0.00  0.00    +0.000 C 
ENDBRANCH  54  55
ENDBRANCH  14  53
BRANCH  31  62
ATOM     62  O9  UNL     1      76.044  69.301 107.991  0.00  0.00    +0.000 OA
BRANCH  62  63
ATOM     63  C28 UNL     1      76.909  69.808 108.968  0.00  0.00    +0.000 C 
ATOM     64  C29 UNL     1      76.904  71.270 109.253  0.00  0.00    +0.000 C 
ATOM     65  O10 UNL     1      77.663  69.044 109.628  0.00  0.00    +0.000 OA
ENDBRANCH  62  63
ENDBRANCH  31  62
TORSDOF 10
ENDMDL
MODEL 6
REMARK VINA RESULT:      -7.0     12.635     19.117
REMARK  Name = ./S1764.pdb
REMARK  20 active torsions:
REMARK  status: ('A' for Active; 'I' for Inactive)
REMARK    1  A    between atoms: C1_1  and  O1_2
REMARK    2  A    between atoms: O1_2  and  C2_3
REMARK    3  A    between atoms: C5_7  and  C6_8
REMARK    4  A    between atoms: C11_15  and  O5_16
REMARK    5  A    between atoms: C12_17  and  C38_51
REMARK    6  A    between atoms: C15_22  and  C32_43
REMARK    7  A    between atoms: C19_26  and  C20_27
REMARK    8  A    between atoms: C21_28  and  O7_29
REMARK    9  A    between atoms: C22_30  and  C23_31
REMARK   10  A    between atoms: C24_32  and  O8_33
REMARK   11  A    between atoms: C25_34  and  C26_35
REMARK   12  A    between atoms: C27_36  and  O9_37
REMARK   13  A    between atoms: O9_37  and  C28_38
REMARK   14  A    between atoms: C28_38  and  C29_39
REMARK   15  A    between atoms: C30_41  and  C31_42
REMARK   16  A    between atoms: C33_44  and  O12_50
REMARK   17  A    between atoms: C35_46  and  O11_49
REMARK   18  A    between atoms: C36_47  and  C37_48
REMARK   19  A    between atoms: N2_52  and  N3_53
REMARK   20  A    between atoms: N4_56  and  C41_57
REMARK                            x       y       z     vdW  Elec       q    Type
REMARK                         _______ _______ _______ _____ _____    ______ ____
ROOT
ATOM      1  C2  UNL     1      86.778  67.911  96.015  0.00  0.00    +0.000 C 
ATOM      2  C3  UNL     1      85.837  68.904  96.663  0.00  0.00    +0.000 C 
ATOM      3  C4  UNL     1      85.166  68.628  97.782  0.00  0.00    +0.000 C 
ATOM      4  O2  UNL     1      84.333  69.605  98.324  0.00  0.00    +0.000 OA
ATOM      5  C5  UNL     1      83.787  69.541  99.643  0.00  0.00    +0.000 C 
ATOM      6  C6  UNL     1      82.473  68.763  99.666  0.00  0.00    +0.000 C 
ATOM      7  O3  UNL     1      84.736  68.991 100.555  0.00  0.00    +0.000 OA
ATOM      8  C7  UNL     1      85.333  70.006 101.290  0.00  0.00    +0.000 A 
ATOM      9  C8  UNL     1      84.729  71.224 101.086  0.00  0.00    +0.000 A 
ATOM     10  C9  UNL     1      83.654  70.948 100.128  0.00  0.00    +0.000 C 
ATOM     11  O4  UNL     1      82.833  71.779  99.661  0.00  0.00    +0.000 OA
ATOM     12  C10 UNL     1      85.380  72.424 101.456  0.00  0.00    +0.000 A 
ATOM     13  C11 UNL     1      84.816  73.707 101.258  0.00  0.00    +0.000 A 
ATOM     14  C12 UNL     1      85.650  74.850 101.306  0.00  0.00    +0.000 A 
ATOM     15  C13 UNL     1      87.041  74.672 101.436  0.00  0.00    +0.000 A 
ATOM     16  N1  UNL     1      87.952  75.654 100.918  0.00  0.00    +0.000 N 
ATOM     17  C14 UNL     1      88.042  75.777  99.488  0.00  0.00    +0.000 C 
ATOM     18  O6  UNL     1      86.988  75.922  98.806  0.00  0.00    +0.000 OA
ATOM     19  C15 UNL     1      89.319  75.553  98.782  0.00  0.00    +0.000 C 
ATOM     20  C16 UNL     1      89.313  74.735  97.711  0.00  0.00    +0.000 C 
ATOM     21  C17 UNL     1      90.494  74.454  96.865  0.00  0.00    +0.000 C 
ATOM     22  C18 UNL     1      90.455  73.468  95.965  0.00  0.00    +0.000 C 
ATOM     23  C19 UNL     1      91.551  73.282  94.939  0.00  0.00    +0.000 C 
ATOM     24  C20 UNL     1      91.161  74.027  93.654  0.00  0.00    +0.000 C 
ATOM     25  C21 UNL     1      91.903  71.768  94.747  0.00  0.00    +0.000 C 
ATOM     26  C22 UNL     1      90.862  70.890  93.952  0.00  0.00    +0.000 C 
ATOM     27  C23 UNL     1      91.139  70.930  92.428  0.00  0.00    +0.000 C 
ATOM     28  C24 UNL     1      90.876  69.419  94.494  0.00  0.00    +0.000 C 
ATOM     29  C25 UNL     1      89.974  68.403  93.684  0.00  0.00    +0.000 C 
ATOM     30  C26 UNL     1      90.876  67.389  92.952  0.00  0.00    +0.000 C 
ATOM     31  C27 UNL     1      88.867  67.669  94.528  0.00  0.00    +0.000 C 
ATOM     32  C30 UNL     1      87.684  68.605  94.949  0.00  0.00    +0.000 C 
ATOM     33  C31 UNL     1      86.864  69.084  93.723  0.00  0.00    +0.000 C 
ATOM     34  C32 UNL     1      90.587  76.186  99.298  0.00  0.00    +0.000 C 
ATOM     35  C33 UNL     1      87.563  73.437 101.850  0.00  0.00    +0.000 A 
ATOM     36  C34 UNL     1      86.712  72.311 101.959  0.00  0.00    +0.000 A 
ATOM     37  C35 UNL     1      87.173  71.048 102.430  0.00  0.00    +0.000 A 
ATOM     38  C36 UNL     1      86.482  69.871 102.067  0.00  0.00    +0.000 A 
ATOM     39  C37 UNL     1      87.008  68.506 102.413  0.00  0.00    +0.000 C 
ATOM     40  H11 UNL     1      88.807  75.858 101.480  0.00  0.00    +0.000 HD
ENDROOT
BRANCH   1  42
ATOM     41  C1  UNL     1      85.883  65.759  96.228  0.00  0.00    +0.000 C 
ATOM     42  O1  UNL     1      86.012  66.889  95.390  0.00  0.00    +0.000 OA
ENDBRANCH   1  42
BRANCH  13  43
ATOM     43  O5  UNL     1      83.447  73.824 101.020  0.00  0.00    +0.000 OA
ATOM     44  H10 UNL     1      82.759  73.154 101.334  0.00  0.00    +0.000 HD
ENDBRANCH  13  43
BRANCH  25  45
ATOM     45  O7  UNL     1      93.203  71.598  94.233  0.00  0.00    +0.000 OA
ATOM     46  H20 UNL     1      93.829  72.163  94.755  0.00  0.00    +0.000 HD
ENDBRANCH  25  45
BRANCH  28  47
ATOM     47  O8  UNL     1      90.523  69.429  95.858  0.00  0.00    +0.000 OA
ATOM     48  H26 UNL     1      89.772  70.071  95.967  0.00  0.00    +0.000 HD
ENDBRANCH  28  47
BRANCH  37  49
ATOM     49  O11 UNL     1      88.296  70.981 103.262  0.00  0.00    +0.000 OA
ATOM     50  H45 UNL     1      89.246  71.048 102.921  0.00  0.00    +0.000 HD
ENDBRANCH  37  49
BRANCH  35  51
ATOM     51  O12 UNL     1      88.951  73.352 102.005  0.00  0.00    +0.000 OA
ATOM     52  H46 UNL     1      89.429  73.531 102.874  0.00  0.00    +0.000 HD
ENDBRANCH  35  51
BRANCH  14  53
ATOM     53  C38 UNL     1      85.121  76.234 101.194  0.00  0.00    +0.000 C 
ATOM     54  N2  UNL     1      85.513  77.177 101.997  0.00  0.00    +0.000 NA
BRANCH  54  55
ATOM     55  N3  UNL     1      85.045  78.501 101.894  0.00  0.00    +0.000 N 
ATOM     56  C39 UNL     1      83.672  78.780 101.464  0.00  0.00    +0.000 C 
ATOM     57  C40 UNL     1      83.613  80.138 100.754  0.00  0.00    +0.000 C 
ATOM     58  N4  UNL     1      84.248  81.217 101.543  0.00  0.00    +0.000 NA
ATOM     59  C41 UNL     1      83.423  81.642 102.687  0.00  0.00    +0.000 C 
ATOM     60  C42 UNL     1      85.634  80.883 101.935  0.00  0.00    +0.000 C 
ATOM     61  C43 UNL     1      85.733  79.534 102.663  0.00  0.00    +0.000 C 
ENDBRANCH  54  55
ENDBRANCH  14  53
BRANCH  31  62
ATOM     62  O9  UNL     1      88.321  66.567  93.788  0.00  0.00    +0.000 OA
BRANCH  62  63
ATOM     63  C28 UNL     1      88.651  65.224  94.008  0.00  0.00    +0.000 C 
ATOM     64  C29 UNL     1      89.367  64.848  95.259  0.00  0.00    +0.000 C 
ATOM     65  O10 UNL     1      88.323  64.331  93.181  0.00  0.00    +0.000 OA
ENDBRANCH  62  63
ENDBRANCH  31  62
TORSDOF 10
ENDMDL
MODEL 7
REMARK VINA RESULT:      -7.0      4.921     10.056
REMARK  Name = ./S1764.pdb
REMARK  20 active torsions:
REMARK  status: ('A' for Active; 'I' for Inactive)
REMARK    1  A    between atoms: C1_1  and  O1_2
REMARK    2  A    between atoms: O1_2  and  C2_3
REMARK    3  A    between atoms: C5_7  and  C6_8
REMARK    4  A    between atoms: C11_15  and  O5_16
REMARK    5  A    between atoms: C12_17  and  C38_51
REMARK    6  A    between atoms: C15_22  and  C32_43
REMARK    7  A    between atoms: C19_26  and  C20_27
REMARK    8  A    between atoms: C21_28  and  O7_29
REMARK    9  A    between atoms: C22_30  and  C23_31
REMARK   10  A    between atoms: C24_32  and  O8_33
REMARK   11  A    between atoms: C25_34  and  C26_35
REMARK   12  A    between atoms: C27_36  and  O9_37
REMARK   13  A    between atoms: O9_37  and  C28_38
REMARK   14  A    between atoms: C28_38  and  C29_39
REMARK   15  A    between atoms: C30_41  and  C31_42
REMARK   16  A    between atoms: C33_44  and  O12_50
REMARK   17  A    between atoms: C35_46  and  O11_49
REMARK   18  A    between atoms: C36_47  and  C37_48
REMARK   19  A    between atoms: N2_52  and  N3_53
REMARK   20  A    between atoms: N4_56  and  C41_57
REMARK                            x       y       z     vdW  Elec       q    Type
REMARK                         _______ _______ _______ _____ _____    ______ ____
ROOT
ATOM      1  C2  UNL     1      76.513  60.952 104.909  0.00  0.00    +0.000 C 
ATOM      2  C3  UNL     1      75.246  61.779 104.936  0.00  0.00    +0.000 C 
ATOM      3  C4  UNL     1      74.271  61.565 105.820  0.00  0.00    +0.000 C 
ATOM      4  O2  UNL     1      73.143  62.383 105.788  0.00  0.00    +0.000 OA
ATOM      5  C5  UNL     1      72.173  62.440 106.835  0.00  0.00    +0.000 C 
ATOM      6  C6  UNL     1      71.096  61.373 106.658  0.00  0.00    +0.000 C 
ATOM      7  O3  UNL     1      72.803  62.340 108.112  0.00  0.00    +0.000 OA
ATOM      8  C7  UNL     1      72.908  63.596 108.692  0.00  0.00    +0.000 A 
ATOM      9  C8  UNL     1      72.221  64.556 107.987  0.00  0.00    +0.000 A 
ATOM     10  C9  UNL     1      71.633  63.834 106.854  0.00  0.00    +0.000 C 
ATOM     11  O4  UNL     1      70.910  64.320 105.947  0.00  0.00    +0.000 OA
ATOM     12  C10 UNL     1      72.476  65.931 108.202  0.00  0.00    +0.000 A 
ATOM     13  C11 UNL     1      71.813  66.964 107.497  0.00  0.00    +0.000 A 
ATOM     14  C12 UNL     1      72.363  68.268 107.491  0.00  0.00    +0.000 A 
ATOM     15  C13 UNL     1      73.619  68.479 108.092  0.00  0.00    +0.000 A 
ATOM     16  N1  UNL     1      74.474  69.541 107.638  0.00  0.00    +0.000 N 
ATOM     17  C14 UNL     1      75.057  69.401 106.331  0.00  0.00    +0.000 C 
ATOM     18  O6  UNL     1      74.316  69.137 105.342  0.00  0.00    +0.000 OA
ATOM     19  C15 UNL     1      76.521  69.377 106.149  0.00  0.00    +0.000 C 
ATOM     20  C16 UNL     1      77.047  68.392 105.393  0.00  0.00    +0.000 C 
ATOM     21  C17 UNL     1      78.484  68.261 105.068  0.00  0.00    +0.000 C 
ATOM     22  C18 UNL     1      78.946  67.142 104.505  0.00  0.00    +0.000 C 
ATOM     23  C19 UNL     1      80.355  67.045 103.963  0.00  0.00    +0.000 C 
ATOM     24  C20 UNL     1      80.340  67.402 102.469  0.00  0.00    +0.000 C 
ATOM     25  C21 UNL     1      81.007  65.664 104.309  0.00  0.00    +0.000 C 
ATOM     26  C22 UNL     1      80.494  64.412 103.498  0.00  0.00    +0.000 C 
ATOM     27  C23 UNL     1      81.297  64.223 102.186  0.00  0.00    +0.000 C 
ATOM     28  C24 UNL     1      80.562  63.128 104.396  0.00  0.00    +0.000 C 
ATOM     29  C25 UNL     1      80.204  61.778 103.652  0.00  0.00    +0.000 C 
ATOM     30  C26 UNL     1      81.471  60.905 103.543  0.00  0.00    +0.000 C 
ATOM     31  C27 UNL     1      79.009  60.965 104.273  0.00  0.00    +0.000 C 
ATOM     32  C30 UNL     1      77.613  61.633 104.034  0.00  0.00    +0.000 C 
ATOM     33  C31 UNL     1      77.229  61.638 102.531  0.00  0.00    +0.000 C 
ATOM     34  C32 UNL     1      77.385  70.400 106.842  0.00  0.00    +0.000 C 
ATOM     35  C33 UNL     1      74.157  67.523 108.967  0.00  0.00    +0.000 A 
ATOM     36  C34 UNL     1      73.531  66.261 109.106  0.00  0.00    +0.000 A 
ATOM     37  C35 UNL     1      73.997  65.274 110.022  0.00  0.00    +0.000 A 
ATOM     38  C36 UNL     1      73.698  63.913 109.795  0.00  0.00    +0.000 A 
ATOM     39  C37 UNL     1      74.287  62.822 110.645  0.00  0.00    +0.000 C 
ATOM     40  H11 UNL     1      75.016  70.061 108.362  0.00  0.00    +0.000 HD
ENDROOT
BRANCH   1  42
ATOM     41  C1  UNL     1      75.885  58.752 105.403  0.00  0.00    +0.000 C 
ATOM     42  O1  UNL     1      76.216  59.667 104.378  0.00  0.00    +0.000 OA
ENDBRANCH   1  42
BRANCH  13  43
ATOM     43  O5  UNL     1      70.627  66.679 106.821  0.00  0.00    +0.000 OA
ATOM     44  H10 UNL     1      70.504  65.889 106.202  0.00  0.00    +0.000 HD
ENDBRANCH  13  43
BRANCH  25  45
ATOM     45  O7  UNL     1      82.413  65.734 104.293  0.00  0.00    +0.000 OA
ATOM     46  H20 UNL     1      82.691  66.629 104.618  0.00  0.00    +0.000 HD
ENDBRANCH  25  45
BRANCH  28  47
ATOM     47  O8  UNL     1      79.739  63.314 105.524  0.00  0.00    +0.000 OA
ATOM     48  H26 UNL     1      79.078  64.021 105.298  0.00  0.00    +0.000 HD
ENDBRANCH  28  47
BRANCH  37  49
ATOM     49  O11 UNL     1      74.732  65.658 111.148  0.00  0.00    +0.000 OA
ATOM     50  H45 UNL     1      74.315  66.073 111.971  0.00  0.00    +0.000 HD
ENDBRANCH  37  49
BRANCH  35  51
ATOM     51  O12 UNL     1      75.384  67.827 109.565  0.00  0.00    +0.000 OA
ATOM     52  H46 UNL     1      76.271  67.491 109.224  0.00  0.00    +0.000 HD
ENDBRANCH  35  51
BRANCH  14  53
ATOM     53  C38 UNL     1      71.683  69.422 106.849  0.00  0.00    +0.000 C 
ATOM     54  N2  UNL     1      70.928  69.268 105.802  0.00  0.00    +0.000 NA
BRANCH  54  55
ATOM     55  N3  UNL     1      70.253  70.343 105.192  0.00  0.00    +0.000 N 
ATOM     56  C39 UNL     1      68.793  70.336 105.063  0.00  0.00    +0.000 C 
ATOM     57  C40 UNL     1      68.375  71.137 103.823  0.00  0.00    +0.000 C 
ATOM     58  N4  UNL     1      68.996  72.479 103.780  0.00  0.00    +0.000 NA
ATOM     59  C41 UNL     1      68.387  73.414 104.741  0.00  0.00    +0.000 C 
ATOM     60  C42 UNL     1      70.468  72.419 103.901  0.00  0.00    +0.000 C 
ATOM     61  C43 UNL     1      70.928  71.636 105.141  0.00  0.00    +0.000 C 
ENDBRANCH  54  55
ENDBRANCH  14  53
BRANCH  31  62
ATOM     62  O9  UNL     1      78.969  59.638 103.729  0.00  0.00    +0.000 OA
BRANCH  62  63
ATOM     63  C28 UNL     1      79.317  58.480 104.436  0.00  0.00    +0.000 C 
ATOM     64  C29 UNL     1      78.767  57.169 103.995  0.00  0.00    +0.000 C 
ATOM     65  O10 UNL     1      80.111  58.531 105.413  0.00  0.00    +0.000 OA
ENDBRANCH  62  63
ENDBRANCH  31  62
TORSDOF 10
ENDMDL
MODEL 8
REMARK VINA RESULT:      -6.9      4.385     10.288
REMARK  Name = ./S1764.pdb
REMARK  20 active torsions:
REMARK  status: ('A' for Active; 'I' for Inactive)
REMARK    1  A    between atoms: C1_1  and  O1_2
REMARK    2  A    between atoms: O1_2  and  C2_3
REMARK    3  A    between atoms: C5_7  and  C6_8
REMARK    4  A    between atoms: C11_15  and  O5_16
REMARK    5  A    between atoms: C12_17  and  C38_51
REMARK    6  A    between atoms: C15_22  and  C32_43
REMARK    7  A    between atoms: C19_26  and  C20_27
REMARK    8  A    between atoms: C21_28  and  O7_29
REMARK    9  A    between atoms: C22_30  and  C23_31
REMARK   10  A    between atoms: C24_32  and  O8_33
REMARK   11  A    between atoms: C25_34  and  C26_35
REMARK   12  A    between atoms: C27_36  and  O9_37
REMARK   13  A    between atoms: O9_37  and  C28_38
REMARK   14  A    between atoms: C28_38  and  C29_39
REMARK   15  A    between atoms: C30_41  and  C31_42
REMARK   16  A    between atoms: C33_44  and  O12_50
REMARK   17  A    between atoms: C35_46  and  O11_49
REMARK   18  A    between atoms: C36_47  and  C37_48
REMARK   19  A    between atoms: N2_52  and  N3_53
REMARK   20  A    between atoms: N4_56  and  C41_57
REMARK                            x       y       z     vdW  Elec       q    Type
REMARK                         _______ _______ _______ _____ _____    ______ ____
ROOT
ATOM      1  C2  UNL     1      74.833  61.703 102.961  0.00  0.00    +0.000 C 
ATOM      2  C3  UNL     1      73.672  62.486 103.535  0.00  0.00    +0.000 C 
ATOM      3  C4  UNL     1      72.953  62.043 104.567  0.00  0.00    +0.000 C 
ATOM      4  O2  UNL     1      71.910  62.834 105.047  0.00  0.00    +0.000 OA
ATOM      5  C5  UNL     1      71.256  62.612 106.298  0.00  0.00    +0.000 C 
ATOM      6  C6  UNL     1      70.106  61.618 106.158  0.00  0.00    +0.000 C 
ATOM      7  O3  UNL     1      72.193  62.192 107.289  0.00  0.00    +0.000 OA
ATOM      8  C7  UNL     1      72.525  63.258 108.113  0.00  0.00    +0.000 A 
ATOM      9  C8  UNL     1      71.738  64.362 107.884  0.00  0.00    +0.000 A 
ATOM     10  C9  UNL     1      70.829  63.950 106.809  0.00  0.00    +0.000 C 
ATOM     11  O4  UNL     1      69.924  64.648 106.283  0.00  0.00    +0.000 OA
ATOM     12  C10 UNL     1      72.126  65.637 108.357  0.00  0.00    +0.000 A 
ATOM     13  C11 UNL     1      71.366  66.811 108.139  0.00  0.00    +0.000 A 
ATOM     14  C12 UNL     1      71.975  68.077 108.309  0.00  0.00    +0.000 A 
ATOM     15  C13 UNL     1      73.357  68.136 108.580  0.00  0.00    +0.000 A 
ATOM     16  N1  UNL     1      74.126  69.286 108.192  0.00  0.00    +0.000 N 
ATOM     17  C14 UNL     1      74.333  69.491 106.784  0.00  0.00    +0.000 C 
ATOM     18  O6  UNL     1      73.343  69.485 105.999  0.00  0.00    +0.000 OA
ATOM     19  C15 UNL     1      75.693  69.526 106.211  0.00  0.00    +0.000 C 
ATOM     20  C16 UNL     1      75.939  68.772 105.121  0.00  0.00    +0.000 C 
ATOM     21  C17 UNL     1      77.228  68.741 104.397  0.00  0.00    +0.000 C 
ATOM     22  C18 UNL     1      77.455  67.808 103.469  0.00  0.00    +0.000 C 
ATOM     23  C19 UNL     1      78.662  67.864 102.560  0.00  0.00    +0.000 C 
ATOM     24  C20 UNL     1      78.275  68.592 101.263  0.00  0.00    +0.000 C 
ATOM     25  C21 UNL     1      79.294  66.445 102.360  0.00  0.00    +0.000 C 
ATOM     26  C22 UNL     1      78.509  65.440 101.433  0.00  0.00    +0.000 C 
ATOM     27  C23 UNL     1      78.924  65.601  99.949  0.00  0.00    +0.000 C 
ATOM     28  C24 UNL     1      78.730  63.969 101.929  0.00  0.00    +0.000 C 
ATOM     29  C25 UNL     1      78.106  62.853 100.998  0.00  0.00    +0.000 C 
ATOM     30  C26 UNL     1      79.242  62.046 100.335  0.00  0.00    +0.000 C 
ATOM     31  C27 UNL     1      77.069  61.898 101.696  0.00  0.00    +0.000 C 
ATOM     32  C30 UNL     1      75.704  62.594 102.018  0.00  0.00    +0.000 C 
ATOM     33  C31 UNL     1      74.938  62.982 100.727  0.00  0.00    +0.000 C 
ATOM     34  C32 UNL     1      76.771  70.343 106.877  0.00  0.00    +0.000 C 
ATOM     35  C33 UNL     1      74.045  66.992 109.010  0.00  0.00    +0.000 A 
ATOM     36  C34 UNL     1      73.400  65.732 108.995  0.00  0.00    +0.000 A 
ATOM     37  C35 UNL     1      74.029  64.547 109.473  0.00  0.00    +0.000 A 
ATOM     38  C36 UNL     1      73.596  63.286 109.004  0.00  0.00    +0.000 A 
ATOM     39  C37 UNL     1      74.320  62.018 109.362  0.00  0.00    +0.000 C 
ATOM     40  H11 UNL     1      74.871  69.607 108.848  0.00  0.00    +0.000 HD
ENDROOT
BRANCH   1  42
ATOM     41  C1  UNL     1      74.155  59.465 103.058  0.00  0.00    +0.000 C 
ATOM     42  O1  UNL     1      74.327  60.595 102.227  0.00  0.00    +0.000 OA
ENDBRANCH   1  42
BRANCH  13  43
ATOM     43  O5  UNL     1      70.028  66.700 107.760  0.00  0.00    +0.000 OA
ATOM     44  H10 UNL     1      69.680  66.010 107.109  0.00  0.00    +0.000 HD
ENDBRANCH  13  43
BRANCH  25  45
ATOM     45  O7  UNL     1      80.648  66.528 101.982  0.00  0.00    +0.000 OA
ATOM     46  H20 UNL     1      81.212  66.296 102.764  0.00  0.00    +0.000 HD
ENDBRANCH  25  45
BRANCH  28  47
ATOM     47  O8  UNL     1      78.248  63.852 103.247  0.00  0.00    +0.000 OA
ATOM     48  H26 UNL     1      77.258  63.772 103.197  0.00  0.00    +0.000 HD
ENDBRANCH  28  47
BRANCH  37  49
ATOM     49  O11 UNL     1      75.058  64.634 110.416  0.00  0.00    +0.000 OA
ATOM     50  H45 UNL     1      76.039  64.667 110.169  0.00  0.00    +0.000 HD
ENDBRANCH  37  49
BRANCH  35  51
ATOM     51  O12 UNL     1      75.403  67.141 109.309  0.00  0.00    +0.000 OA
ATOM     52  H46 UNL     1      75.835  68.025 109.527  0.00  0.00    +0.000 HD
ENDBRANCH  35  51
BRANCH  14  53
ATOM     53  C38 UNL     1      71.223  69.352 108.184  0.00  0.00    +0.000 C 
ATOM     54  N2  UNL     1      70.488  69.608 107.143  0.00  0.00    +0.000 NA
BRANCH  54  55
ATOM     55  N3  UNL     1      69.747  70.797 107.014  0.00  0.00    +0.000 N 
ATOM     56  C39 UNL     1      70.374  72.101 107.245  0.00  0.00    +0.000 C 
ATOM     57  C40 UNL     1      69.328  73.100 107.755  0.00  0.00    +0.000 C 
ATOM     58  N4  UNL     1      68.118  73.136 106.904  0.00  0.00    +0.000 NA
ATOM     59  C41 UNL     1      68.344  73.836 105.628  0.00  0.00    +0.000 C 
ATOM     60  C42 UNL     1      67.524  71.795 106.719  0.00  0.00    +0.000 C 
ATOM     61  C43 UNL     1      68.538  70.767 106.195  0.00  0.00    +0.000 C 
ENDBRANCH  54  55
ENDBRANCH  14  53
BRANCH  31  62
ATOM     62  O9  UNL     1      76.804  60.755 100.870  0.00  0.00    +0.000 OA
BRANCH  62  63
ATOM     63  C28 UNL     1      77.178  59.443 101.187  0.00  0.00    +0.000 C 
ATOM     64  C29 UNL     1      77.793  59.165 102.515  0.00  0.00    +0.000 C 
ATOM     65  O10 UNL     1      76.974  58.497 100.381  0.00  0.00    +0.000 OA
ENDBRANCH  62  63
ENDBRANCH  31  62
TORSDOF 10
ENDMDL
MODEL 9
REMARK VINA RESULT:      -6.9      4.148      8.280
REMARK  Name = ./S1764.pdb
REMARK  20 active torsions:
REMARK  status: ('A' for Active; 'I' for Inactive)
REMARK    1  A    between atoms: C1_1  and  O1_2
REMARK    2  A    between atoms: O1_2  and  C2_3
REMARK    3  A    between atoms: C5_7  and  C6_8
REMARK    4  A    between atoms: C11_15  and  O5_16
REMARK    5  A    between atoms: C12_17  and  C38_51
REMARK    6  A    between atoms: C15_22  and  C32_43
REMARK    7  A    between atoms: C19_26  and  C20_27
REMARK    8  A    between atoms: C21_28  and  O7_29
REMARK    9  A    between atoms: C22_30  and  C23_31
REMARK   10  A    between atoms: C24_32  and  O8_33
REMARK   11  A    between atoms: C25_34  and  C26_35
REMARK   12  A    between atoms: C27_36  and  O9_37
REMARK   13  A    between atoms: O9_37  and  C28_38
REMARK   14  A    between atoms: C28_38  and  C29_39
REMARK   15  A    between atoms: C30_41  and  C31_42
REMARK   16  A    between atoms: C33_44  and  O12_50
REMARK   17  A    between atoms: C35_46  and  O11_49
REMARK   18  A    between atoms: C36_47  and  C37_48
REMARK   19  A    between atoms: N2_52  and  N3_53
REMARK   20  A    between atoms: N4_56  and  C41_57
REMARK                            x       y       z     vdW  Elec       q    Type
REMARK                         _______ _______ _______ _____ _____    ______ ____
ROOT
ATOM      1  C2  UNL     1      76.410  66.132 105.989  0.00  0.00    +0.000 C 
ATOM      2  C3  UNL     1      76.330  64.731 106.555  0.00  0.00    +0.000 C 
ATOM      3  C4  UNL     1      75.291  64.311 107.279  0.00  0.00    +0.000 C 
ATOM      4  O2  UNL     1      75.286  62.999 107.750  0.00  0.00    +0.000 OA
ATOM      5  C5  UNL     1      74.131  62.352 108.286  0.00  0.00    +0.000 C 
ATOM      6  C6  UNL     1      73.981  62.625 109.781  0.00  0.00    +0.000 C 
ATOM      7  O3  UNL     1      72.959  62.733 107.565  0.00  0.00    +0.000 OA
ATOM      8  C7  UNL     1      72.605  61.733 106.670  0.00  0.00    +0.000 A 
ATOM      9  C8  UNL     1      73.343  60.587 106.847  0.00  0.00    +0.000 A 
ATOM     10  C9  UNL     1      74.252  60.900 107.955  0.00  0.00    +0.000 C 
ATOM     11  O4  UNL     1      75.109  60.132 108.462  0.00  0.00    +0.000 OA
ATOM     12  C10 UNL     1      73.386  59.593 105.841  0.00  0.00    +0.000 A 
ATOM     13  C11 UNL     1      74.139  58.401 105.959  0.00  0.00    +0.000 A 
ATOM     14  C12 UNL     1      74.429  57.642 104.800  0.00  0.00    +0.000 A 
ATOM     15  C13 UNL     1      74.057  58.155 103.541  0.00  0.00    +0.000 A 
ATOM     16  N1  UNL     1      74.791  57.790 102.361  0.00  0.00    +0.000 N 
ATOM     17  C14 UNL     1      76.131  58.297 102.238  0.00  0.00    +0.000 C 
ATOM     18  O6  UNL     1      76.949  58.139 103.188  0.00  0.00    +0.000 OA
ATOM     19  C15 UNL     1      76.518  59.159 101.103  0.00  0.00    +0.000 C 
ATOM     20  C16 UNL     1      77.178  60.302 101.375  0.00  0.00    +0.000 C 
ATOM     21  C17 UNL     1      77.684  61.241 100.351  0.00  0.00    +0.000 C 
ATOM     22  C18 UNL     1      78.127  62.449 100.708  0.00  0.00    +0.000 C 
ATOM     23  C19 UNL     1      78.846  63.355  99.732  0.00  0.00    +0.000 C 
ATOM     24  C20 UNL     1      80.359  63.124  99.861  0.00  0.00    +0.000 C 
ATOM     25  C21 UNL     1      78.386  64.844  99.890  0.00  0.00    +0.000 C 
ATOM     26  C22 UNL     1      78.908  65.619 101.161  0.00  0.00    +0.000 C 
ATOM     27  C23 UNL     1      80.277  66.292 100.887  0.00  0.00    +0.000 C 
ATOM     28  C24 UNL     1      77.841  66.670 101.624  0.00  0.00    +0.000 C 
ATOM     29  C25 UNL     1      78.304  67.611 102.808  0.00  0.00    +0.000 C 
ATOM     30  C26 UNL     1      78.458  69.053 102.285  0.00  0.00    +0.000 C 
ATOM     31  C27 UNL     1      77.396  67.570 104.093  0.00  0.00    +0.000 C 
ATOM     32  C30 UNL     1      77.532  66.239 104.907  0.00  0.00    +0.000 C 
ATOM     33  C31 UNL     1      78.945  66.087 105.528  0.00  0.00    +0.000 C 
ATOM     34  C32 UNL     1      76.126  58.776  99.698  0.00  0.00    +0.000 C 
ATOM     35  C33 UNL     1      73.131  59.204 103.448  0.00  0.00    +0.000 A 
ATOM     36  C34 UNL     1      72.707  59.879 104.618  0.00  0.00    +0.000 A 
ATOM     37  C35 UNL     1      71.726  60.911 104.591  0.00  0.00    +0.000 A 
ATOM     38  C36 UNL     1      71.691  61.871 105.627  0.00  0.00    +0.000 A 
ATOM     39  C37 UNL     1      70.776  63.062 105.572  0.00  0.00    +0.000 C 
ATOM     40  H11 UNL     1      74.244  57.637 101.486  0.00  0.00    +0.000 HD
ENDROOT
BRANCH   1  42
ATOM     41  C1  UNL     1      75.496  67.617 107.549  0.00  0.00    +0.000 C 
ATOM     42  O1  UNL     1      76.685  67.043 107.045  0.00  0.00    +0.000 OA
ENDBRANCH   1  42
BRANCH  13  43
ATOM     43  O5  UNL     1      74.583  57.993 107.217  0.00  0.00    +0.000 OA
ATOM     44  H10 UNL     1      74.071  58.144 108.075  0.00  0.00    +0.000 HD
ENDBRANCH  13  43
BRANCH  25  45
ATOM     45  O7  UNL     1      78.617  65.586  98.716  0.00  0.00    +0.000 OA
ATOM     46  H20 UNL     1      79.022  66.456  98.964  0.00  0.00    +0.000 HD
ENDBRANCH  25  45
BRANCH  28  47
ATOM     47  O8  UNL     1      76.648  65.997 101.953  0.00  0.00    +0.000 OA
ATOM     48  H26 UNL     1      75.985  66.196 101.240  0.00  0.00    +0.000 HD
ENDBRANCH  28  47
BRANCH  37  49
ATOM     49  O11 UNL     1      70.793  60.961 103.550  0.00  0.00    +0.000 OA
ATOM     50  H45 UNL     1      70.615  60.186 102.924  0.00  0.00    +0.000 HD
ENDBRANCH  37  49
BRANCH  35  51
ATOM     51  O12 UNL     1      72.773  59.625 102.163  0.00  0.00    +0.000 OA
ATOM     52  H46 UNL     1      72.921  59.075 101.332  0.00  0.00    +0.000 HD
ENDBRANCH  35  51
BRANCH  14  53
ATOM     53  C38 UNL     1      75.138  56.338 104.851  0.00  0.00    +0.000 C 
ATOM     54  N2  UNL     1      74.670  55.286 104.249  0.00  0.00    +0.000 NA
BRANCH  54  55
ATOM     55  N3  UNL     1      75.338  54.047 104.262  0.00  0.00    +0.000 N 
ATOM     56  C39 UNL     1      74.901  52.950 103.394  0.00  0.00    +0.000 C 
ATOM     57  C40 UNL     1      75.231  51.603 104.049  0.00  0.00    +0.000 C 
ATOM     58  N4  UNL     1      76.640  51.520 104.494  0.00  0.00    +0.000 NA
ATOM     59  C41 UNL     1      77.577  51.343 103.372  0.00  0.00    +0.000 C 
ATOM     60  C42 UNL     1      77.016  52.645 105.376  0.00  0.00    +0.000 C 
ATOM     61  C43 UNL     1      76.714  54.014 104.748  0.00  0.00    +0.000 C 
ENDBRANCH  54  55
ENDBRANCH  14  53
BRANCH  31  62
ATOM     62  O9  UNL     1      77.714  68.662 104.967  0.00  0.00    +0.000 OA
BRANCH  62  63
ATOM     63  C28 UNL     1      76.896  69.780 105.169  0.00  0.00    +0.000 C 
ATOM     64  C29 UNL     1      75.564  69.834 104.506  0.00  0.00    +0.000 C 
ATOM     65  O10 UNL     1      77.257  70.720 105.927  0.00  0.00    +0.000 OA
ENDBRANCH  62  63
ENDBRANCH  31  62
TORSDOF 10
ENDMDL
MODEL 10
REMARK VINA RESULT:      -6.8      1.784      2.238
REMARK  Name = ./S1764.pdb
REMARK  20 active torsions:
REMARK  status: ('A' for Active; 'I' for Inactive)
REMARK    1  A    between atoms: C1_1  and  O1_2
REMARK    2  A    between atoms: O1_2  and  C2_3
REMARK    3  A    between atoms: C5_7  and  C6_8
REMARK    4  A    between atoms: C11_15  and  O5_16
REMARK    5  A    between atoms: C12_17  and  C38_51
REMARK    6  A    between atoms: C15_22  and  C32_43
REMARK    7  A    between atoms: C19_26  and  C20_27
REMARK    8  A    between atoms: C21_28  and  O7_29
REMARK    9  A    between atoms: C22_30  and  C23_31
REMARK   10  A    between atoms: C24_32  and  O8_33
REMARK   11  A    between atoms: C25_34  and  C26_35
REMARK   12  A    between atoms: C27_36  and  O9_37
REMARK   13  A    between atoms: O9_37  and  C28_38
REMARK   14  A    between atoms: C28_38  and  C29_39
REMARK   15  A    between atoms: C30_41  and  C31_42
REMARK   16  A    between atoms: C33_44  and  O12_50
REMARK   17  A    between atoms: C35_46  and  O11_49
REMARK   18  A    between atoms: C36_47  and  C37_48
REMARK   19  A    between atoms: N2_52  and  N3_53
REMARK   20  A    between atoms: N4_56  and  C41_57
REMARK                            x       y       z     vdW  Elec       q    Type
REMARK                         _______ _______ _______ _____ _____    ______ ____
ROOT
ATOM      1  C2  UNL     1      77.368  68.534 105.470  0.00  0.00    +0.000 C 
ATOM      2  C3  UNL     1      76.813  67.921 104.203  0.00  0.00    +0.000 C 
ATOM      3  C4  UNL     1      77.586  67.611 103.161  0.00  0.00    +0.000 C 
ATOM      4  O2  UNL     1      76.998  67.033 102.037  0.00  0.00    +0.000 OA
ATOM      5  C5  UNL     1      77.739  66.408 100.987  0.00  0.00    +0.000 C 
ATOM      6  C6  UNL     1      78.172  67.421  99.930  0.00  0.00    +0.000 C 
ATOM      7  O3  UNL     1      78.855  65.692 101.513  0.00  0.00    +0.000 OA
ATOM      8  C7  UNL     1      78.567  64.335 101.568  0.00  0.00    +0.000 A 
ATOM      9  C8  UNL     1      77.387  64.025 100.936  0.00  0.00    +0.000 A 
ATOM     10  C9  UNL     1      76.882  65.311 100.443  0.00  0.00    +0.000 C 
ATOM     11  O4  UNL     1      75.822  65.501  99.793  0.00  0.00    +0.000 OA
ATOM     12  C10 UNL     1      76.746  62.785 101.170  0.00  0.00    +0.000 A 
ATOM     13  C11 UNL     1      75.523  62.416 100.562  0.00  0.00    +0.000 A 
ATOM     14  C12 UNL     1      74.768  61.350 101.107  0.00  0.00    +0.000 A 
ATOM     15  C13 UNL     1      75.197  60.758 102.311  0.00  0.00    +0.000 A 
ATOM     16  N1  UNL     1      74.250  60.139 103.196  0.00  0.00    +0.000 N 
ATOM     17  C14 UNL     1      73.328  61.005 103.881  0.00  0.00    +0.000 C 
ATOM     18  O6  UNL     1      72.653  61.846 103.222  0.00  0.00    +0.000 OA
ATOM     19  C15 UNL     1      73.288  61.060 105.356  0.00  0.00    +0.000 C 
ATOM     20  C16 UNL     1      73.311  62.274 105.943  0.00  0.00    +0.000 C 
ATOM     21  C17 UNL     1      73.220  62.501 107.401  0.00  0.00    +0.000 C 
ATOM     22  C18 UNL     1      73.473  63.709 107.910  0.00  0.00    +0.000 C 
ATOM     23  C19 UNL     1      73.187  64.041 109.358  0.00  0.00    +0.000 C 
ATOM     24  C20 UNL     1      71.781  64.653 109.460  0.00  0.00    +0.000 C 
ATOM     25  C21 UNL     1      74.333  64.904 109.983  0.00  0.00    +0.000 C 
ATOM     26  C22 UNL     1      74.408  66.416 109.541  0.00  0.00    +0.000 C 
ATOM     27  C23 UNL     1      73.527  67.313 110.446  0.00  0.00    +0.000 C 
ATOM     28  C24 UNL     1      75.900  66.901 109.540  0.00  0.00    +0.000 C 
ATOM     29  C25 UNL     1      76.097  68.443 109.247  0.00  0.00    +0.000 C 
ATOM     30  C26 UNL     1      76.614  69.143 110.521  0.00  0.00    +0.000 C 
ATOM     31  C27 UNL     1      77.007  68.780 108.009  0.00  0.00    +0.000 C 
ATOM     32  C30 UNL     1      76.329  68.460 106.634  0.00  0.00    +0.000 C 
ATOM     33  C31 UNL     1      75.105  69.375 106.370  0.00  0.00    +0.000 C 
ATOM     34  C32 UNL     1      73.279  59.784 106.158  0.00  0.00    +0.000 C 
ATOM     35  C33 UNL     1      76.502  60.970 102.780  0.00  0.00    +0.000 A 
ATOM     36  C34 UNL     1      77.333  61.926 102.148  0.00  0.00    +0.000 A 
ATOM     37  C35 UNL     1      78.685  62.143 102.543  0.00  0.00    +0.000 A 
ATOM     38  C36 UNL     1      79.305  63.382 102.267  0.00  0.00    +0.000 A 
ATOM     39  C37 UNL     1      80.674  63.714 102.790  0.00  0.00    +0.000 C 
ATOM     40  H11 UNL     1      74.547  59.263 103.677  0.00  0.00    +0.000 HD
ENDROOT
BRANCH   1  42
ATOM     41  C1  UNL     1      79.080  70.046 104.963  0.00  0.00    +0.000 C 
ATOM     42  O1  UNL     1      77.699  69.894 105.220  0.00  0.00    +0.000 OA
ENDBRANCH   1  42
BRANCH  13  43
ATOM     43  O5  UNL     1      75.082  63.108  99.434  0.00  0.00    +0.000 OA
ATOM     44  H10 UNL     1      74.140  63.060  99.072  0.00  0.00    +0.000 HD
ENDBRANCH  13  43
BRANCH  25  45
ATOM     45  O7  UNL     1      74.365  64.787 111.387  0.00  0.00    +0.000 OA
ATOM     46  H20 UNL     1      75.177  65.243 111.726  0.00  0.00    +0.000 HD
ENDBRANCH  25  45
BRANCH  28  47
ATOM     47  O8  UNL     1      76.636  66.117 108.630  0.00  0.00    +0.000 OA
ATOM     48  H26 UNL     1      76.371  65.169 108.770  0.00  0.00    +0.000 HD
ENDBRANCH  28  47
BRANCH  37  49
ATOM     49  O11 UNL     1      79.396  61.124 103.186  0.00  0.00    +0.000 OA
ATOM     50  H45 UNL     1      80.387  60.968 103.054  0.00  0.00    +0.000 HD
ENDBRANCH  37  49
BRANCH  35  51
ATOM     51  O12 UNL     1      76.871  60.308 103.955  0.00  0.00    +0.000 OA
ATOM     52  H46 UNL     1      76.261  59.691 104.466  0.00  0.00    +0.000 HD
ENDBRANCH  35  51
BRANCH  14  53
ATOM     53  C38 UNL     1      73.520  60.847 100.477  0.00  0.00    +0.000 C 
ATOM     54  N2  UNL     1      72.731  61.635  99.810  0.00  0.00    +0.000 NA
BRANCH  54  55
ATOM     55  N3  UNL     1      71.557  61.177  99.183  0.00  0.00    +0.000 N 
ATOM     56  C39 UNL     1      70.255  61.301  99.844  0.00  0.00    +0.000 C 
ATOM     57  C40 UNL     1      69.326  60.171  99.383  0.00  0.00    +0.000 C 
ATOM     58  N4  UNL     1      69.264  60.055  97.909  0.00  0.00    +0.000 NA
ATOM     59  C41 UNL     1      68.468  61.129  97.290  0.00  0.00    +0.000 C 
ATOM     60  C42 UNL     1      70.605  59.919  97.301  0.00  0.00    +0.000 C 
ATOM     61  C43 UNL     1      71.563  61.042  97.729  0.00  0.00    +0.000 C 
ENDBRANCH  54  55
ENDBRANCH  14  53
BRANCH  31  62
ATOM     62  O9  UNL     1      77.370  70.168 108.016  0.00  0.00    +0.000 OA
BRANCH  62  63
ATOM     63  C28 UNL     1      78.594  70.666 108.479  0.00  0.00    +0.000 C 
ATOM     64  C29 UNL     1      78.657  72.056 109.009  0.00  0.00    +0.000 C 
ATOM     65  O10 UNL     1      79.628  69.946 108.481  0.00  0.00    +0.000 OA
ENDBRANCH  62  63
ENDBRANCH  31  62
TORSDOF 10
ENDMDL
MODEL 11
REMARK VINA RESULT:      -6.8     10.906     14.967
REMARK  Name = ./S1764.pdb
REMARK  20 active torsions:
REMARK  status: ('A' for Active; 'I' for Inactive)
REMARK    1  A    between atoms: C1_1  and  O1_2
REMARK    2  A    between atoms: O1_2  and  C2_3
REMARK    3  A    between atoms: C5_7  and  C6_8
REMARK    4  A    between atoms: C11_15  and  O5_16
REMARK    5  A    between atoms: C12_17  and  C38_51
REMARK    6  A    between atoms: C15_22  and  C32_43
REMARK    7  A    between atoms: C19_26  and  C20_27
REMARK    8  A    between atoms: C21_28  and  O7_29
REMARK    9  A    between atoms: C22_30  and  C23_31
REMARK   10  A    between atoms: C24_32  and  O8_33
REMARK   11  A    between atoms: C25_34  and  C26_35
REMARK   12  A    between atoms: C27_36  and  O9_37
REMARK   13  A    between atoms: O9_37  and  C28_38
REMARK   14  A    between atoms: C28_38  and  C29_39
REMARK   15  A    between atoms: C30_41  and  C31_42
REMARK   16  A    between atoms: C33_44  and  O12_50
REMARK   17  A    between atoms: C35_46  and  O11_49
REMARK   18  A    between atoms: C36_47  and  C37_48
REMARK   19  A    between atoms: N2_52  and  N3_53
REMARK   20  A    between atoms: N4_56  and  C41_57
REMARK                            x       y       z     vdW  Elec       q    Type
REMARK                         _______ _______ _______ _____ _____    ______ ____
ROOT
ATOM      1  C2  UNL     1      90.433  72.450  96.602  0.00  0.00    +0.000 C 
ATOM      2  C3  UNL     1      89.239  71.847  95.896  0.00  0.00    +0.000 C 
ATOM      3  C4  UNL     1      89.350  70.813  95.060  0.00  0.00    +0.000 C 
ATOM      4  O2  UNL     1      88.197  70.305  94.463  0.00  0.00    +0.000 OA
ATOM      5  C5  UNL     1      88.143  69.050  93.783  0.00  0.00    +0.000 C 
ATOM      6  C6  UNL     1      88.539  69.192  92.316  0.00  0.00    +0.000 C 
ATOM      7  O3  UNL     1      88.948  68.079  94.450  0.00  0.00    +0.000 OA
ATOM      8  C7  UNL     1      88.148  67.240  95.214  0.00  0.00    +0.000 A 
ATOM      9  C8  UNL     1      86.808  67.439  94.980  0.00  0.00    +0.000 A 
ATOM     10  C9  UNL     1      86.763  68.509  93.977  0.00  0.00    +0.000 C 
ATOM     11  O4  UNL     1      85.732  69.010  93.460  0.00  0.00    +0.000 OA
ATOM     12  C10 UNL     1      85.836  66.948  95.882  0.00  0.00    +0.000 A 
ATOM     13  C11 UNL     1      84.445  67.135  95.703  0.00  0.00    +0.000 A 
ATOM     14  C12 UNL     1      83.570  66.949  96.800  0.00  0.00    +0.000 A 
ATOM     15  C13 UNL     1      84.119  66.695  98.073  0.00  0.00    +0.000 A 
ATOM     16  N1  UNL     1      83.406  67.073  99.261  0.00  0.00    +0.000 N 
ATOM     17  C14 UNL     1      83.279  68.480  99.532  0.00  0.00    +0.000 C 
ATOM     18  O6  UNL     1      82.840  69.252  98.632  0.00  0.00    +0.000 OA
ATOM     19  C15 UNL     1      83.823  69.070 100.771  0.00  0.00    +0.000 C 
ATOM     20  C16 UNL     1      84.584  70.177 100.662  0.00  0.00    +0.000 C 
ATOM     21  C17 UNL     1      85.153  70.918 101.808  0.00  0.00    +0.000 C 
ATOM     22  C18 UNL     1      86.072  71.866 101.606  0.00  0.00    +0.000 C 
ATOM     23  C19 UNL     1      86.522  72.790 102.715  0.00  0.00    +0.000 C 
ATOM     24  C20 UNL     1      85.670  74.068 102.676  0.00  0.00    +0.000 C 
ATOM     25  C21 UNL     1      88.070  73.023 102.672  0.00  0.00    +0.000 C 
ATOM     26  C22 UNL     1      88.617  73.958 101.525  0.00  0.00    +0.000 C 
ATOM     27  C23 UNL     1      88.618  75.445 101.963  0.00  0.00    +0.000 C 
ATOM     28  C24 UNL     1      90.050  73.492 101.092  0.00  0.00    +0.000 C 
ATOM     29  C25 UNL     1      90.767  74.435 100.043  0.00  0.00    +0.000 C 
ATOM     30  C26 UNL     1      91.969  75.127 100.716  0.00  0.00    +0.000 C 
ATOM     31  C27 UNL     1      91.195  73.740  98.698  0.00  0.00    +0.000 C 
ATOM     32  C30 UNL     1      89.985  73.388  97.768  0.00  0.00    +0.000 C 
ATOM     33  C31 UNL     1      89.275  74.662  97.240  0.00  0.00    +0.000 C 
ATOM     34  C32 UNL     1      83.566  68.403 102.099  0.00  0.00    +0.000 C 
ATOM     35  C33 UNL     1      85.457  66.296  98.201  0.00  0.00    +0.000 A 
ATOM     36  C34 UNL     1      86.315  66.326  97.075  0.00  0.00    +0.000 A 
ATOM     37  C35 UNL     1      87.666  65.877  97.132  0.00  0.00    +0.000 A 
ATOM     38  C36 UNL     1      88.605  66.363  96.196  0.00  0.00    +0.000 A 
ATOM     39  C37 UNL     1      90.068  66.038  96.302  0.00  0.00    +0.000 C 
ATOM     40  H11 UNL     1      83.453  66.422 100.075  0.00  0.00    +0.000 HD
ENDROOT
BRANCH   1  42
ATOM     41  C1  UNL     1      92.270  72.433  95.152  0.00  0.00    +0.000 C 
ATOM     42  O1  UNL     1      91.198  73.197  95.664  0.00  0.00    +0.000 OA
ENDBRANCH   1  42
BRANCH  13  43
ATOM     43  O5  UNL     1      83.959  67.498  94.447  0.00  0.00    +0.000 OA
ATOM     44  H10 UNL     1      83.001  67.367  94.151  0.00  0.00    +0.000 HD
ENDBRANCH  13  43
BRANCH  25  45
ATOM     45  O7  UNL     1      88.571  73.418 103.927  0.00  0.00    +0.000 OA
ATOM     46  H20 UNL     1      89.136  74.223 103.806  0.00  0.00    +0.000 HD
ENDBRANCH  25  45
BRANCH  28  47
ATOM     47  O8  UNL     1      89.976  72.170 100.611  0.00  0.00    +0.000 OA
ATOM     48  H26 UNL     1      89.253  72.140  99.929  0.00  0.00    +0.000 HD
ENDBRANCH  28  47
BRANCH  37  49
ATOM     49  O11 UNL     1      88.052  64.946  98.102  0.00  0.00    +0.000 OA
ATOM     50  H45 UNL     1      88.069  65.149  99.093  0.00  0.00    +0.000 HD
ENDBRANCH  37  49
BRANCH  35  51
ATOM     51  O12 UNL     1      85.916  66.012  99.492  0.00  0.00    +0.000 OA
ATOM     52  H46 UNL     1      86.862  65.740  99.703  0.00  0.00    +0.000 HD
ENDBRANCH  35  51
BRANCH  14  53
ATOM     53  C38 UNL     1      82.092  67.042  96.672  0.00  0.00    +0.000 C 
ATOM     54  N2  UNL     1      81.535  67.786  95.764  0.00  0.00    +0.000 NA
BRANCH  54  55
ATOM     55  N3  UNL     1      80.139  67.869  95.607  0.00  0.00    +0.000 N 
ATOM     56  C39 UNL     1      79.242  67.675  96.751  0.00  0.00    +0.000 C 
ATOM     57  C40 UNL     1      77.902  67.102  96.272  0.00  0.00    +0.000 C 
ATOM     58  N4  UNL     1      77.322  67.878  95.153  0.00  0.00    +0.000 NA
ATOM     59  C41 UNL     1      76.756  69.164  95.592  0.00  0.00    +0.000 C 
ATOM     60  C42 UNL     1      78.268  68.028  94.026  0.00  0.00    +0.000 C 
ATOM     61  C43 UNL     1      79.620  68.613  94.464  0.00  0.00    +0.000 C 
ENDBRANCH  54  55
ENDBRANCH  14  53
BRANCH  31  62
ATOM     62  O9  UNL     1      92.093  74.583  97.962  0.00  0.00    +0.000 OA
BRANCH  62  63
ATOM     63  C28 UNL     1      93.486  74.440  97.951  0.00  0.00    +0.000 C 
ATOM     64  C29 UNL     1      94.081  73.117  98.283  0.00  0.00    +0.000 C 
ATOM     65  O10 UNL     1      94.235  75.403  97.635  0.00  0.00    +0.000 OA
ENDBRANCH  62  63
ENDBRANCH  31  62
TORSDOF 10
ENDMDL
MODEL 12
REMARK VINA RESULT:      -6.8      8.597     12.371
REMARK  Name = ./S1764.pdb
REMARK  20 active torsions:
REMARK  status: ('A' for Active; 'I' for Inactive)
REMARK    1  A    between atoms: C1_1  and  O1_2
REMARK    2  A    between atoms: O1_2  and  C2_3
REMARK    3  A    between atoms: C5_7  and  C6_8
REMARK    4  A    between atoms: C11_15  and  O5_16
REMARK    5  A    between atoms: C12_17  and  C38_51
REMARK    6  A    between atoms: C15_22  and  C32_43
REMARK    7  A    between atoms: C19_26  and  C20_27
REMARK    8  A    between atoms: C21_28  and  O7_29
REMARK    9  A    between atoms: C22_30  and  C23_31
REMARK   10  A    between atoms: C24_32  and  O8_33
REMARK   11  A    between atoms: C25_34  and  C26_35
REMARK   12  A    between atoms: C27_36  and  O9_37
REMARK   13  A    between atoms: O9_37  and  C28_38
REMARK   14  A    between atoms: C28_38  and  C29_39
REMARK   15  A    between atoms: C30_41  and  C31_42
REMARK   16  A    between atoms: C33_44  and  O12_50
REMARK   17  A    between atoms: C35_46  and  O11_49
REMARK   18  A    between atoms: C36_47  and  C37_48
REMARK   19  A    between atoms: N2_52  and  N3_53
REMARK   20  A    between atoms: N4_56  and  C41_57
REMARK                            x       y       z     vdW  Elec       q    Type
REMARK                         _______ _______ _______ _____ _____    ______ ____
ROOT
ATOM      1  C2  UNL     1      74.856  57.107  99.042  0.00  0.00    +0.000 C 
ATOM      2  C3  UNL     1      73.734  58.045  99.433  0.00  0.00    +0.000 C 
ATOM      3  C4  UNL     1      73.290  59.005  98.621  0.00  0.00    +0.000 C 
ATOM      4  O2  UNL     1      72.241  59.816  99.051  0.00  0.00    +0.000 OA
ATOM      5  C5  UNL     1      71.500  60.680  98.187  0.00  0.00    +0.000 C 
ATOM      6  C6  UNL     1      72.169  62.045  98.053  0.00  0.00    +0.000 C 
ATOM      7  O3  UNL     1      71.300  60.068  96.913  0.00  0.00    +0.000 OA
ATOM      8  C7  UNL     1      70.015  59.550  96.830  0.00  0.00    +0.000 A 
ATOM      9  C8  UNL     1      69.230  59.923  97.895  0.00  0.00    +0.000 A 
ATOM     10  C9  UNL     1      70.109  60.749  98.730  0.00  0.00    +0.000 C 
ATOM     11  O4  UNL     1      69.803  61.314  99.812  0.00  0.00    +0.000 OA
ATOM     12  C10 UNL     1      68.026  59.238  98.180  0.00  0.00    +0.000 A 
ATOM     13  C11 UNL     1      67.185  59.565  99.271  0.00  0.00    +0.000 A 
ATOM     14  C12 UNL     1      66.216  58.631  99.708  0.00  0.00    +0.000 A 
ATOM     15  C13 UNL     1      66.190  57.351  99.119  0.00  0.00    +0.000 A 
ATOM     16  N1  UNL     1      65.695  56.222  99.856  0.00  0.00    +0.000 N 
ATOM     17  C14 UNL     1      66.487  55.761 100.963  0.00  0.00    +0.000 C 
ATOM     18  O6  UNL     1      66.864  56.582 101.847  0.00  0.00    +0.000 OA
ATOM     19  C15 UNL     1      67.026  54.387 100.995  0.00  0.00    +0.000 C 
ATOM     20  C16 UNL     1      68.333  54.228 101.286  0.00  0.00    +0.000 C 
ATOM     21  C17 UNL     1      69.010  52.919 101.413  0.00  0.00    +0.000 C 
ATOM     22  C18 UNL     1      70.342  52.856 101.482  0.00  0.00    +0.000 C 
ATOM     23  C19 UNL     1      71.062  51.570 101.824  0.00  0.00    +0.000 C 
ATOM     24  C20 UNL     1      71.309  51.526 103.340  0.00  0.00    +0.000 C 
ATOM     25  C21 UNL     1      72.339  51.378 100.939  0.00  0.00    +0.000 C 
ATOM     26  C22 UNL     1      73.582  52.289 101.274  0.00  0.00    +0.000 C 
ATOM     27  C23 UNL     1      74.487  51.635 102.348  0.00  0.00    +0.000 C 
ATOM     28  C24 UNL     1      74.388  52.599  99.964  0.00  0.00    +0.000 C 
ATOM     29  C25 UNL     1      75.738  53.392 100.187  0.00  0.00    +0.000 C 
ATOM     30  C26 UNL     1      76.931  52.472  99.856  0.00  0.00    +0.000 C 
ATOM     31  C27 UNL     1      75.849  54.760  99.417  0.00  0.00    +0.000 C 
ATOM     32  C30 UNL     1      74.928  55.881 100.007  0.00  0.00    +0.000 C 
ATOM     33  C31 UNL     1      75.371  56.298 101.434  0.00  0.00    +0.000 C 
ATOM     34  C32 UNL     1      66.135  53.219 100.654  0.00  0.00    +0.000 C 
ATOM     35  C33 UNL     1      66.860  57.113  97.911  0.00  0.00    +0.000 A 
ATOM     36  C34 UNL     1      67.720  58.101  97.372  0.00  0.00    +0.000 A 
ATOM     37  C35 UNL     1      68.381  57.938  96.121  0.00  0.00    +0.000 A 
ATOM     38  C36 UNL     1      69.565  58.661  95.856  0.00  0.00    +0.000 A 
ATOM     39  C37 UNL     1      70.380  58.417  94.616  0.00  0.00    +0.000 C 
ATOM     40  H11 UNL     1      65.134  55.517  99.330  0.00  0.00    +0.000 HD
ENDROOT
BRANCH   1  42
ATOM     41  C1  UNL     1      76.531  58.156  97.789  0.00  0.00    +0.000 C 
ATOM     42  O1  UNL     1      76.088  57.815  99.087  0.00  0.00    +0.000 OA
ENDBRANCH   1  42
BRANCH  13  43
ATOM     43  O5  UNL     1      67.326  60.804  99.896  0.00  0.00    +0.000 OA
ATOM     44  H10 UNL     1      66.559  61.438 100.076  0.00  0.00    +0.000 HD
ENDBRANCH  13  43
BRANCH  25  45
ATOM     45  O7  UNL     1      72.715  50.023 100.856  0.00  0.00    +0.000 OA
ATOM     46  H20 UNL     1      73.346  49.913 100.100  0.00  0.00    +0.000 HD
ENDBRANCH  25  45
BRANCH  28  47
ATOM     47  O8  UNL     1      73.548  53.280  99.060  0.00  0.00    +0.000 OA
ATOM     48  H26 UNL     1      72.641  52.881  99.137  0.00  0.00    +0.000 HD
ENDBRANCH  28  47
BRANCH  37  49
ATOM     49  O11 UNL     1      67.846  57.079  95.156  0.00  0.00    +0.000 OA
ATOM     50  H45 UNL     1      67.983  57.205  94.161  0.00  0.00    +0.000 HD
ENDBRANCH  37  49
BRANCH  35  51
ATOM     51  O12 UNL     1      66.747  55.831  97.362  0.00  0.00    +0.000 OA
ATOM     52  H46 UNL     1      67.000  54.988  97.851  0.00  0.00    +0.000 HD
ENDBRANCH  35  51
BRANCH  14  53
ATOM     53  C38 UNL     1      65.241  58.934 100.787  0.00  0.00    +0.000 C 
ATOM     54  N2  UNL     1      64.071  58.367 100.824  0.00  0.00    +0.000 NA
BRANCH  54  55
ATOM     55  N3  UNL     1      63.141  58.619 101.850  0.00  0.00    +0.000 N 
ATOM     56  C39 UNL     1      61.926  57.809 101.977  0.00  0.00    +0.000 C 
ATOM     57  C40 UNL     1      60.805  58.646 102.605  0.00  0.00    +0.000 C 
ATOM     58  N4  UNL     1      61.232  59.322 103.850  0.00  0.00    +0.000 NA
ATOM     59  C41 UNL     1      61.344  58.394 104.988  0.00  0.00    +0.000 C 
ATOM     60  C42 UNL     1      62.454  60.133 103.656  0.00  0.00    +0.000 C 
ATOM     61  C43 UNL     1      63.607  59.325 103.041  0.00  0.00    +0.000 C 
ENDBRANCH  54  55
ENDBRANCH  14  53
BRANCH  31  62
ATOM     62  O9  UNL     1      77.201  55.238  99.436  0.00  0.00    +0.000 OA
BRANCH  62  63
ATOM     63  C28 UNL     1      78.147  54.983  98.435  0.00  0.00    +0.000 C 
ATOM     64  C29 UNL     1      79.583  55.267  98.706  0.00  0.00    +0.000 C 
ATOM     65  O10 UNL     1      77.803  54.490  97.328  0.00  0.00    +0.000 OA
ENDBRANCH  62  63
ENDBRANCH  31  62
TORSDOF 10
ENDMDL
MODEL 13
REMARK VINA RESULT:      -6.8      5.794      9.104
REMARK  Name = ./S1764.pdb
REMARK  20 active torsions:
REMARK  status: ('A' for Active; 'I' for Inactive)
REMARK    1  A    between atoms: C1_1  and  O1_2
REMARK    2  A    between atoms: O1_2  and  C2_3
REMARK    3  A    between atoms: C5_7  and  C6_8
REMARK    4  A    between atoms: C11_15  and  O5_16
REMARK    5  A    between atoms: C12_17  and  C38_51
REMARK    6  A    between atoms: C15_22  and  C32_43
REMARK    7  A    between atoms: C19_26  and  C20_27
REMARK    8  A    between atoms: C21_28  and  O7_29
REMARK    9  A    between atoms: C22_30  and  C23_31
REMARK   10  A    between atoms: C24_32  and  O8_33
REMARK   11  A    between atoms: C25_34  and  C26_35
REMARK   12  A    between atoms: C27_36  and  O9_37
REMARK   13  A    between atoms: O9_37  and  C28_38
REMARK   14  A    between atoms: C28_38  and  C29_39
REMARK   15  A    between atoms: C30_41  and  C31_42
REMARK   16  A    between atoms: C33_44  and  O12_50
REMARK   17  A    between atoms: C35_46  and  O11_49
REMARK   18  A    between atoms: C36_47  and  C37_48
REMARK   19  A    between atoms: N2_52  and  N3_53
REMARK   20  A    between atoms: N4_56  and  C41_57
REMARK                            x       y       z     vdW  Elec       q    Type
REMARK                         _______ _______ _______ _____ _____    ______ ____
ROOT
ATOM      1  C2  UNL     1      75.923  67.595 106.459  0.00  0.00    +0.000 C 
ATOM      2  C3  UNL     1      76.799  68.278 105.432  0.00  0.00    +0.000 C 
ATOM      3  C4  UNL     1      77.729  67.622 104.736  0.00  0.00    +0.000 C 
ATOM      4  O2  UNL     1      78.482  68.322 103.795  0.00  0.00    +0.000 OA
ATOM      5  C5  UNL     1      79.298  67.693 102.805  0.00  0.00    +0.000 C 
ATOM      6  C6  UNL     1      80.698  67.400 103.338  0.00  0.00    +0.000 C 
ATOM      7  O3  UNL     1      78.670  66.512 102.309  0.00  0.00    +0.000 OA
ATOM      8  C7  UNL     1      78.080  66.767 101.078  0.00  0.00    +0.000 A 
ATOM      9  C8  UNL     1      78.415  68.006 100.585  0.00  0.00    +0.000 A 
ATOM     10  C9  UNL     1      79.293  68.586 101.606  0.00  0.00    +0.000 C 
ATOM     11  O4  UNL     1      79.845  69.715 101.567  0.00  0.00    +0.000 OA
ATOM     12  C10 UNL     1      77.665  68.593  99.539  0.00  0.00    +0.000 A 
ATOM     13  C11 UNL     1      77.951  69.871  99.000  0.00  0.00    +0.000 A 
ATOM     14  C12 UNL     1      76.967  70.540  98.234  0.00  0.00    +0.000 A 
ATOM     15  C13 UNL     1      75.684  69.967  98.124  0.00  0.00    +0.000 A 
ATOM     16  N1  UNL     1      74.533  70.797  97.905  0.00  0.00    +0.000 N 
ATOM     17  C14 UNL     1      74.123  71.651  98.987  0.00  0.00    +0.000 C 
ATOM     18  O6  UNL     1      74.969  72.411  99.538  0.00  0.00    +0.000 OA
ATOM     19  C15 UNL     1      72.781  71.526  99.590  0.00  0.00    +0.000 C 
ATOM     20  C16 UNL     1      72.697  71.459 100.933  0.00  0.00    +0.000 C 
ATOM     21  C17 UNL     1      71.428  71.389 101.691  0.00  0.00    +0.000 C 
ATOM     22  C18 UNL     1      71.440  71.103 102.995  0.00  0.00    +0.000 C 
ATOM     23  C19 UNL     1      70.199  71.230 103.850  0.00  0.00    +0.000 C 
ATOM     24  C20 UNL     1      70.177  72.626 104.492  0.00  0.00    +0.000 C 
ATOM     25  C21 UNL     1      70.073  70.036 104.855  0.00  0.00    +0.000 C 
ATOM     26  C22 UNL     1      71.054  70.038 106.090  0.00  0.00    +0.000 C 
ATOM     27  C23 UNL     1      70.457  70.828 107.282  0.00  0.00    +0.000 C 
ATOM     28  C24 UNL     1      71.401  68.565 106.502  0.00  0.00    +0.000 C 
ATOM     29  C25 UNL     1      72.269  68.430 107.817  0.00  0.00    +0.000 C 
ATOM     30  C26 UNL     1      71.416  67.786 108.929  0.00  0.00    +0.000 C 
ATOM     31  C27 UNL     1      73.637  67.672 107.644  0.00  0.00    +0.000 C 
ATOM     32  C30 UNL     1      74.708  68.495 106.852  0.00  0.00    +0.000 C 
ATOM     33  C31 UNL     1      75.157  69.757 107.633  0.00  0.00    +0.000 C 
ATOM     34  C32 UNL     1      71.564  71.422  98.706  0.00  0.00    +0.000 C 
ATOM     35  C33 UNL     1      75.477  68.622  98.462  0.00  0.00    +0.000 A 
ATOM     36  C34 UNL     1      76.508  67.884  99.092  0.00  0.00    +0.000 A 
ATOM     37  C35 UNL     1      76.376  66.501  99.406  0.00  0.00    +0.000 A 
ATOM     38  C36 UNL     1      77.162  65.939 100.436  0.00  0.00    +0.000 A 
ATOM     39  C37 UNL     1      76.957  64.525 100.905  0.00  0.00    +0.000 C 
ATOM     40  H11 UNL     1      73.795  70.432  97.264  0.00  0.00    +0.000 HD
ENDROOT
BRANCH   1  42
ATOM     41  C1  UNL     1      77.181  65.991 107.608  0.00  0.00    +0.000 C 
ATOM     42  O1  UNL     1      76.699  67.319 107.618  0.00  0.00    +0.000 OA
ENDBRANCH   1  42
BRANCH  13  43
ATOM     43  O5  UNL     1      79.199  70.448  99.233  0.00  0.00    +0.000 OA
ATOM     44  H10 UNL     1      79.619  70.539 100.147  0.00  0.00    +0.000 HD
ENDBRANCH  13  43
BRANCH  25  45
ATOM     45  O7  UNL     1      68.741  69.844 105.270  0.00  0.00    +0.000 OA
ATOM     46  H20 UNL     1      68.520  68.880 105.196  0.00  0.00    +0.000 HD
ENDBRANCH  25  45
BRANCH  28  47
ATOM     47  O8  UNL     1      72.029  67.922 105.416  0.00  0.00    +0.000 OA
ATOM     48  H26 UNL     1      72.970  68.239 105.385  0.00  0.00    +0.000 HD
ENDBRANCH  28  47
BRANCH  37  49
ATOM     49  O11 UNL     1      75.483  65.704  98.684  0.00  0.00    +0.000 OA
ATOM     50  H45 UNL     1      75.666  65.372  97.745  0.00  0.00    +0.000 HD
ENDBRANCH  37  49
BRANCH  35  51
ATOM     51  O12 UNL     1      74.188  68.110  98.278  0.00  0.00    +0.000 OA
ATOM     52  H46 UNL     1      73.430  68.257  98.925  0.00  0.00    +0.000 HD
ENDBRANCH  35  51
BRANCH  14  53
ATOM     53  C38 UNL     1      77.220  71.842  97.565  0.00  0.00    +0.000 C 
ATOM     54  N2  UNL     1      77.952  72.760  98.121  0.00  0.00    +0.000 NA
BRANCH  54  55
ATOM     55  N3  UNL     1      78.227  73.990  97.494  0.00  0.00    +0.000 N 
ATOM     56  C39 UNL     1      77.981  75.257  98.188  0.00  0.00    +0.000 C 
ATOM     57  C40 UNL     1      77.652  76.355  97.169  0.00  0.00    +0.000 C 
ATOM     58  N4  UNL     1      78.646  76.430  96.076  0.00  0.00    +0.000 NA
ATOM     59  C41 UNL     1      79.915  77.040  96.507  0.00  0.00    +0.000 C 
ATOM     60  C42 UNL     1      78.841  75.126  95.406  0.00  0.00    +0.000 C 
ATOM     61  C43 UNL     1      79.187  74.001  96.394  0.00  0.00    +0.000 C 
ENDBRANCH  54  55
ENDBRANCH  14  53
BRANCH  31  62
ATOM     62  O9  UNL     1      74.190  67.336 108.925  0.00  0.00    +0.000 OA
BRANCH  62  63
ATOM     63  C28 UNL     1      74.226  66.042 109.459  0.00  0.00    +0.000 C 
ATOM     64  C29 UNL     1      74.865  65.823 110.786  0.00  0.00    +0.000 C 
ATOM     65  O10 UNL     1      73.700  65.073 108.849  0.00  0.00    +0.000 OA
ENDBRANCH  62  63
ENDBRANCH  31  62
TORSDOF 10
ENDMDL
MODEL 14
REMARK VINA RESULT:      -6.7      2.667      3.329
REMARK  Name = ./S1764.pdb
REMARK  20 active torsions:
REMARK  status: ('A' for Active; 'I' for Inactive)
REMARK    1  A    between atoms: C1_1  and  O1_2
REMARK    2  A    between atoms: O1_2  and  C2_3
REMARK    3  A    between atoms: C5_7  and  C6_8
REMARK    4  A    between atoms: C11_15  and  O5_16
REMARK    5  A    between atoms: C12_17  and  C38_51
REMARK    6  A    between atoms: C15_22  and  C32_43
REMARK    7  A    between atoms: C19_26  and  C20_27
REMARK    8  A    between atoms: C21_28  and  O7_29
REMARK    9  A    between atoms: C22_30  and  C23_31
REMARK   10  A    between atoms: C24_32  and  O8_33
REMARK   11  A    between atoms: C25_34  and  C26_35
REMARK   12  A    between atoms: C27_36  and  O9_37
REMARK   13  A    between atoms: O9_37  and  C28_38
REMARK   14  A    between atoms: C28_38  and  C29_39
REMARK   15  A    between atoms: C30_41  and  C31_42
REMARK   16  A    between atoms: C33_44  and  O12_50
REMARK   17  A    between atoms: C35_46  and  O11_49
REMARK   18  A    between atoms: C36_47  and  C37_48
REMARK   19  A    between atoms: N2_52  and  N3_53
REMARK   20  A    between atoms: N4_56  and  C41_57
REMARK                            x       y       z     vdW  Elec       q    Type
REMARK                         _______ _______ _______ _____ _____    ______ ____
ROOT
ATOM      1  C2  UNL     1      77.456  66.443 104.611  0.00  0.00    +0.000 C 
ATOM      2  C3  UNL     1      77.386  65.541 103.398  0.00  0.00    +0.000 C 
ATOM      3  C4  UNL     1      78.466  64.955 102.879  0.00  0.00    +0.000 C 
ATOM      4  O2  UNL     1      78.313  64.125 101.770  0.00  0.00    +0.000 OA
ATOM      5  C5  UNL     1      79.325  63.233 101.300  0.00  0.00    +0.000 C 
ATOM      6  C6  UNL     1      80.280  63.930 100.334  0.00  0.00    +0.000 C 
ATOM      7  O3  UNL     1      80.027  62.645 102.395  0.00  0.00    +0.000 OA
ATOM      8  C7  UNL     1      79.565  61.355 102.619  0.00  0.00    +0.000 A 
ATOM      9  C8  UNL     1      78.711  60.926 101.631  0.00  0.00    +0.000 A 
ATOM     10  C9  UNL     1      78.625  62.057 100.700  0.00  0.00    +0.000 C 
ATOM     11  O4  UNL     1      77.954  62.104  99.637  0.00  0.00    +0.000 OA
ATOM     12  C10 UNL     1      77.873  59.805 101.837  0.00  0.00    +0.000 A 
ATOM     13  C11 UNL     1      76.963  59.326 100.864  0.00  0.00    +0.000 A 
ATOM     14  C12 UNL     1      75.918  58.456 101.256  0.00  0.00    +0.000 A 
ATOM     15  C13 UNL     1      75.741  58.180 102.626  0.00  0.00    +0.000 A 
ATOM     16  N1  UNL     1      74.444  57.833 103.137  0.00  0.00    +0.000 N 
ATOM     17  C14 UNL     1      73.447  58.870 103.157  0.00  0.00    +0.000 C 
ATOM     18  O6  UNL     1      73.215  59.533 102.106  0.00  0.00    +0.000 OA
ATOM     19  C15 UNL     1      72.822  59.302 104.422  0.00  0.00    +0.000 C 
ATOM     20  C16 UNL     1      72.766  60.624 104.680  0.00  0.00    +0.000 C 
ATOM     21  C17 UNL     1      72.123  61.218 105.872  0.00  0.00    +0.000 C 
ATOM     22  C18 UNL     1      72.306  62.509 106.160  0.00  0.00    +0.000 C 
ATOM     23  C19 UNL     1      71.505  63.207 107.237  0.00  0.00    +0.000 C 
ATOM     24  C20 UNL     1      70.273  63.863 106.594  0.00  0.00    +0.000 C 
ATOM     25  C21 UNL     1      72.403  64.170 108.083  0.00  0.00    +0.000 C 
ATOM     26  C22 UNL     1      72.851  65.516 107.394  0.00  0.00    +0.000 C 
ATOM     27  C23 UNL     1      71.806  66.638 107.617  0.00  0.00    +0.000 C 
ATOM     28  C24 UNL     1      74.265  65.944 107.921  0.00  0.00    +0.000 C 
ATOM     29  C25 UNL     1      74.766  67.354 107.408  0.00  0.00    +0.000 C 
ATOM     30  C26 UNL     1      74.811  68.342 108.592  0.00  0.00    +0.000 C 
ATOM     31  C27 UNL     1      76.136  67.338 106.633  0.00  0.00    +0.000 C 
ATOM     32  C30 UNL     1      76.036  66.697 105.208  0.00  0.00    +0.000 C 
ATOM     33  C31 UNL     1      75.156  67.547 104.255  0.00  0.00    +0.000 C 
ATOM     34  C32 UNL     1      72.319  58.273 105.403  0.00  0.00    +0.000 C 
ATOM     35  C33 UNL     1      76.760  58.469 103.546  0.00  0.00    +0.000 A 
ATOM     36  C34 UNL     1      77.894  59.209 103.134  0.00  0.00    +0.000 A 
ATOM     37  C35 UNL     1      78.986  59.482 104.008  0.00  0.00    +0.000 A 
ATOM     38  C36 UNL     1      79.823  60.592 103.756  0.00  0.00    +0.000 A 
ATOM     39  C37 UNL     1      80.894  61.010 104.724  0.00  0.00    +0.000 C 
ATOM     40  H11 UNL     1      74.402  57.101 103.879  0.00  0.00    +0.000 HD
ENDROOT
BRANCH   1  42
ATOM     41  C1  UNL     1      79.414  67.724 104.553  0.00  0.00    +0.000 C 
ATOM     42  O1  UNL     1      78.038  67.684 104.233  0.00  0.00    +0.000 OA
ENDBRANCH   1  42
BRANCH  13  43
ATOM     43  O5  UNL     1      77.113  59.719  99.534  0.00  0.00    +0.000 OA
ATOM     44  H10 UNL     1      76.760  60.588  99.158  0.00  0.00    +0.000 HD
ENDBRANCH  13  43
BRANCH  25  45
ATOM     45  O7  UNL     1      71.849  64.415 109.355  0.00  0.00    +0.000 OA
ATOM     46  H20 UNL     1      72.550  64.802 109.939  0.00  0.00    +0.000 HD
ENDBRANCH  25  45
BRANCH  28  47
ATOM     47  O8  UNL     1      75.195  64.934 107.607  0.00  0.00    +0.000 OA
ATOM     48  H26 UNL     1      74.725  64.061 107.680  0.00  0.00    +0.000 HD
ENDBRANCH  28  47
BRANCH  37  49
ATOM     49  O11 UNL     1      79.234  58.643 105.098  0.00  0.00    +0.000 OA
ATOM     50  H45 UNL     1      80.129  58.200 105.268  0.00  0.00    +0.000 HD
ENDBRANCH  37  49
BRANCH  35  51
ATOM     51  O12 UNL     1      76.531  58.119 104.881  0.00  0.00    +0.000 OA
ATOM     52  H46 UNL     1      77.019  58.532 105.659  0.00  0.00    +0.000 HD
ENDBRANCH  35  51
BRANCH  14  53
ATOM     53  C38 UNL     1      74.978  57.843 100.283  0.00  0.00    +0.000 C 
ATOM     54  N2  UNL     1      74.595  58.478  99.216  0.00  0.00    +0.000 NA
BRANCH  54  55
ATOM     55  N3  UNL     1      73.725  57.909  98.268  0.00  0.00    +0.000 N 
ATOM     56  C39 UNL     1      73.314  58.661  97.079  0.00  0.00    +0.000 C 
ATOM     57  C40 UNL     1      71.920  58.205  96.630  0.00  0.00    +0.000 C 
ATOM     58  N4  UNL     1      71.820  56.735  96.499  0.00  0.00    +0.000 NA
ATOM     59  C41 UNL     1      72.507  56.227  95.299  0.00  0.00    +0.000 C 
ATOM     60  C42 UNL     1      72.235  56.033  97.732  0.00  0.00    +0.000 C 
ATOM     61  C43 UNL     1      73.635  56.452  98.207  0.00  0.00    +0.000 C 
ENDBRANCH  54  55
ENDBRANCH  14  53
BRANCH  31  62
ATOM     62  O9  UNL     1      76.644  68.672 106.487  0.00  0.00    +0.000 OA
BRANCH  62  63
ATOM     63  C28 UNL     1      77.671  69.219 107.267  0.00  0.00    +0.000 C 
ATOM     64  C29 UNL     1      77.795  70.699 107.369  0.00  0.00    +0.000 C 
ATOM     65  O10 UNL     1      78.467  68.478 107.904  0.00  0.00    +0.000 OA
ENDBRANCH  62  63
ENDBRANCH  31  62
TORSDOF 10
ENDMDL
MODEL 15
REMARK VINA RESULT:      -6.7      3.549      7.305
REMARK  Name = ./S1764.pdb
REMARK  20 active torsions:
REMARK  status: ('A' for Active; 'I' for Inactive)
REMARK    1  A    between atoms: C1_1  and  O1_2
REMARK    2  A    between atoms: O1_2  and  C2_3
REMARK    3  A    between atoms: C5_7  and  C6_8
REMARK    4  A    between atoms: C11_15  and  O5_16
REMARK    5  A    between atoms: C12_17  and  C38_51
REMARK    6  A    between atoms: C15_22  and  C32_43
REMARK    7  A    between atoms: C19_26  and  C20_27
REMARK    8  A    between atoms: C21_28  and  O7_29
REMARK    9  A    between atoms: C22_30  and  C23_31
REMARK   10  A    between atoms: C24_32  and  O8_33
REMARK   11  A    between atoms: C25_34  and  C26_35
REMARK   12  A    between atoms: C27_36  and  O9_37
REMARK   13  A    between atoms: O9_37  and  C28_38
REMARK   14  A    between atoms: C28_38  and  C29_39
REMARK   15  A    between atoms: C30_41  and  C31_42
REMARK   16  A    between atoms: C33_44  and  O12_50
REMARK   17  A    between atoms: C35_46  and  O11_49
REMARK   18  A    between atoms: C36_47  and  C37_48
REMARK   19  A    between atoms: N2_52  and  N3_53
REMARK   20  A    between atoms: N4_56  and  C41_57
REMARK                            x       y       z     vdW  Elec       q    Type
REMARK                         _______ _______ _______ _____ _____    ______ ____
ROOT
ATOM      1  C2  UNL     1      74.637  64.044 109.343  0.00  0.00    +0.000 C 
ATOM      2  C3  UNL     1      74.792  62.711 108.644  0.00  0.00    +0.000 C 
ATOM      3  C4  UNL     1      73.809  61.811 108.594  0.00  0.00    +0.000 C 
ATOM      4  O2  UNL     1      74.028  60.614 107.914  0.00  0.00    +0.000 OA
ATOM      5  C5  UNL     1      72.987  59.704 107.553  0.00  0.00    +0.000 C 
ATOM      6  C6  UNL     1      72.690  58.719 108.681  0.00  0.00    +0.000 C 
ATOM      7  O3  UNL     1      71.813  60.412 107.156  0.00  0.00    +0.000 OA
ATOM      8  C7  UNL     1      71.718  60.437 105.771  0.00  0.00    +0.000 A 
ATOM      9  C8  UNL     1      72.651  59.627 105.168  0.00  0.00    +0.000 A 
ATOM     10  C9  UNL     1      73.408  59.043 106.281  0.00  0.00    +0.000 C 
ATOM     11  O4  UNL     1      74.363  58.229 106.193  0.00  0.00    +0.000 OA
ATOM     12  C10 UNL     1      72.950  59.769 103.793  0.00  0.00    +0.000 A 
ATOM     13  C11 UNL     1      73.911  58.977 103.120  0.00  0.00    +0.000 A 
ATOM     14  C12 UNL     1      74.416  59.406 101.870  0.00  0.00    +0.000 A 
ATOM     15  C13 UNL     1      74.035  60.671 101.380  0.00  0.00    +0.000 A 
ATOM     16  N1  UNL     1      74.900  61.399 100.495  0.00  0.00    +0.000 N 
ATOM     17  C14 UNL     1      76.122  61.917 101.049  0.00  0.00    +0.000 C 
ATOM     18  O6  UNL     1      76.891  61.148 101.692  0.00  0.00    +0.000 OA
ATOM     19  C15 UNL     1      76.408  63.365 101.043  0.00  0.00    +0.000 C 
ATOM     20  C16 UNL     1      76.816  63.933 102.195  0.00  0.00    +0.000 C 
ATOM     21  C17 UNL     1      77.196  65.355 102.339  0.00  0.00    +0.000 C 
ATOM     22  C18 UNL     1      77.372  65.883 103.553  0.00  0.00    +0.000 C 
ATOM     23  C19 UNL     1      77.964  67.262 103.744  0.00  0.00    +0.000 C 
ATOM     24  C20 UNL     1      79.482  67.130 103.940  0.00  0.00    +0.000 C 
ATOM     25  C21 UNL     1      77.216  68.054 104.869  0.00  0.00    +0.000 C 
ATOM     26  C22 UNL     1      77.495  67.611 106.357  0.00  0.00    +0.000 C 
ATOM     27  C23 UNL     1      78.722  68.352 106.945  0.00  0.00    +0.000 C 
ATOM     28  C24 UNL     1      76.216  67.844 107.234  0.00  0.00    +0.000 C 
ATOM     29  C25 UNL     1      76.411  67.569 108.780  0.00  0.00    +0.000 C 
ATOM     30  C26 UNL     1      76.317  68.900 109.552  0.00  0.00    +0.000 C 
ATOM     31  C27 UNL     1      75.447  66.489 109.396  0.00  0.00    +0.000 C 
ATOM     32  C30 UNL     1      75.784  65.027 108.947  0.00  0.00    +0.000 C 
ATOM     33  C31 UNL     1      77.157  64.558 109.497  0.00  0.00    +0.000 C 
ATOM     34  C32 UNL     1      76.189  64.171  99.787  0.00  0.00    +0.000 C 
ATOM     35  C33 UNL     1      72.931  61.341 101.928  0.00  0.00    +0.000 A 
ATOM     36  C34 UNL     1      72.309  60.840 103.097  0.00  0.00    +0.000 A 
ATOM     37  C35 UNL     1      71.151  61.444 103.665  0.00  0.00    +0.000 A 
ATOM     38  C36 UNL     1      70.864  61.256 105.036  0.00  0.00    +0.000 A 
ATOM     39  C37 UNL     1      69.742  61.989 105.716  0.00  0.00    +0.000 C 
ATOM     40  H11 UNL     1      74.451  61.933  99.719  0.00  0.00    +0.000 HD
ENDROOT
BRANCH   1  42
ATOM     41  C1  UNL     1      75.205  62.570 111.070  0.00  0.00    +0.000 C 
ATOM     42  O1  UNL     1      74.661  63.834 110.750  0.00  0.00    +0.000 OA
ENDBRANCH   1  42
BRANCH  13  43
ATOM     43  O5  UNL     1      74.343  57.785 103.702  0.00  0.00    +0.000 OA
ATOM     44  H10 UNL     1      75.145  57.259 103.386  0.00  0.00    +0.000 HD
ENDBRANCH  13  43
BRANCH  25  45
ATOM     45  O7  UNL     1      77.375  69.445 104.719  0.00  0.00    +0.000 OA
ATOM     46  H20 UNL     1      76.661  69.784 104.121  0.00  0.00    +0.000 HD
ENDBRANCH  25  45
BRANCH  28  47
ATOM     47  O8  UNL     1      75.157  67.074 106.715  0.00  0.00    +0.000 OA
ATOM     48  H26 UNL     1      74.673  67.638 106.055  0.00  0.00    +0.000 HD
ENDBRANCH  28  47
BRANCH  37  49
ATOM     49  O11 UNL     1      70.296  62.205 102.862  0.00  0.00    +0.000 OA
ATOM     50  H45 UNL     1      69.307  62.012 102.762  0.00  0.00    +0.000 HD
ENDBRANCH  37  49
BRANCH  35  51
ATOM     51  O12 UNL     1      72.583  62.568 101.355  0.00  0.00    +0.000 OA
ATOM     52  H46 UNL     1      72.681  63.454 101.826  0.00  0.00    +0.000 HD
ENDBRANCH  35  51
BRANCH  14  53
ATOM     53  C38 UNL     1      75.360  58.589 101.064  0.00  0.00    +0.000 C 
ATOM     54  N2  UNL     1      75.321  57.290 101.083  0.00  0.00    +0.000 NA
BRANCH  54  55
ATOM     55  N3  UNL     1      76.188  56.497 100.309  0.00  0.00    +0.000 N 
ATOM     56  C39 UNL     1      76.498  56.858  98.923  0.00  0.00    +0.000 C 
ATOM     57  C40 UNL     1      76.804  55.593  98.110  0.00  0.00    +0.000 C 
ATOM     58  N4  UNL     1      77.809  54.728  98.766  0.00  0.00    +0.000 NA
ATOM     59  C41 UNL     1      79.174  55.271  98.665  0.00  0.00    +0.000 C 
ATOM     60  C42 UNL     1      77.434  54.387 100.155  0.00  0.00    +0.000 C 
ATOM     61  C43 UNL     1      77.133  55.630 101.007  0.00  0.00    +0.000 C 
ENDBRANCH  54  55
ENDBRANCH  14  53
BRANCH  31  62
ATOM     62  O9  UNL     1      75.490  66.537 110.829  0.00  0.00    +0.000 OA
BRANCH  62  63
ATOM     63  C28 UNL     1      74.492  67.098 111.635  0.00  0.00    +0.000 C 
ATOM     64  C29 UNL     1      73.066  66.780 111.350  0.00  0.00    +0.000 C 
ATOM     65  O10 UNL     1      74.786  67.840 112.611  0.00  0.00    +0.000 OA
ENDBRANCH  62  63
ENDBRANCH  31  62
TORSDOF 10
ENDMDL
MODEL 16
REMARK VINA RESULT:      -6.7      6.320      9.438
REMARK  Name = ./S1764.pdb
REMARK  20 active torsions:
REMARK  status: ('A' for Active; 'I' for Inactive)
REMARK    1  A    between atoms: C1_1  and  O1_2
REMARK    2  A    between atoms: O1_2  and  C2_3
REMARK    3  A    between atoms: C5_7  and  C6_8
REMARK    4  A    between atoms: C11_15  and  O5_16
REMARK    5  A    between atoms: C12_17  and  C38_51
REMARK    6  A    between atoms: C15_22  and  C32_43
REMARK    7  A    between atoms: C19_26  and  C20_27
REMARK    8  A    between atoms: C21_28  and  O7_29
REMARK    9  A    between atoms: C22_30  and  C23_31
REMARK   10  A    between atoms: C24_32  and  O8_33
REMARK   11  A    between atoms: C25_34  and  C26_35
REMARK   12  A    between atoms: C27_36  and  O9_37
REMARK   13  A    between atoms: O9_37  and  C28_38
REMARK   14  A    between atoms: C28_38  and  C29_39
REMARK   15  A    between atoms: C30_41  and  C31_42
REMARK   16  A    between atoms: C33_44  and  O12_50
REMARK   17  A    between atoms: C35_46  and  O11_49
REMARK   18  A    between atoms: C36_47  and  C37_48
REMARK   19  A    between atoms: N2_52  and  N3_53
REMARK   20  A    between atoms: N4_56  and  C41_57
REMARK                            x       y       z     vdW  Elec       q    Type
REMARK                         _______ _______ _______ _____ _____    ______ ____
ROOT
ATOM      1  C2  UNL     1      78.285  68.069 105.406  0.00  0.00    +0.000 C 
ATOM      2  C3  UNL     1      78.139  69.384 104.672  0.00  0.00    +0.000 C 
ATOM      3  C4  UNL     1      78.735  69.620 103.502  0.00  0.00    +0.000 C 
ATOM      4  O2  UNL     1      78.535  70.853 102.883  0.00  0.00    +0.000 OA
ATOM      5  C5  UNL     1      78.880  71.123 101.523  0.00  0.00    +0.000 C 
ATOM      6  C6  UNL     1      80.332  71.576 101.394  0.00  0.00    +0.000 C 
ATOM      7  O3  UNL     1      78.611  69.989 100.699  0.00  0.00    +0.000 OA
ATOM      8  C7  UNL     1      77.421  70.172 100.009  0.00  0.00    +0.000 A 
ATOM      9  C8  UNL     1      76.926  71.447 100.150  0.00  0.00    +0.000 A 
ATOM     10  C9  UNL     1      77.896  72.127 101.015  0.00  0.00    +0.000 C 
ATOM     11  O4  UNL     1      77.847  73.323 101.403  0.00  0.00    +0.000 OA
ATOM     12  C10 UNL     1      75.581  71.740  99.826  0.00  0.00    +0.000 A 
ATOM     13  C11 UNL     1      75.010  73.028  99.964  0.00  0.00    +0.000 A 
ATOM     14  C12 UNL     1      73.602  73.169  99.977  0.00  0.00    +0.000 A 
ATOM     15  C13 UNL     1      72.803  72.010  99.968  0.00  0.00    +0.000 A 
ATOM     16  N1  UNL     1      71.491  72.026 100.554  0.00  0.00    +0.000 N 
ATOM     17  C14 UNL     1      71.411  72.141 101.985  0.00  0.00    +0.000 C 
ATOM     18  O6  UNL     1      72.039  73.066 102.573  0.00  0.00    +0.000 OA
ATOM     19  C15 UNL     1      70.764  71.093 102.799  0.00  0.00    +0.000 C 
ATOM     20  C16 UNL     1      71.431  70.626 103.873  0.00  0.00    +0.000 C 
ATOM     21  C17 UNL     1      70.898  69.621 104.819  0.00  0.00    +0.000 C 
ATOM     22  C18 UNL     1      71.703  69.054 105.721  0.00  0.00    +0.000 C 
ATOM     23  C19 UNL     1      71.164  68.189 106.838  0.00  0.00    +0.000 C 
ATOM     24  C20 UNL     1      70.933  69.065 108.079  0.00  0.00    +0.000 C 
ATOM     25  C21 UNL     1      72.066  66.931 107.073  0.00  0.00    +0.000 C 
ATOM     26  C22 UNL     1      73.453  67.172 107.784  0.00  0.00    +0.000 C 
ATOM     27  C23 UNL     1      73.316  67.099 109.326  0.00  0.00    +0.000 C 
ATOM     28  C24 UNL     1      74.512  66.142 107.258  0.00  0.00    +0.000 C 
ATOM     29  C25 UNL     1      75.909  66.190 107.997  0.00  0.00    +0.000 C 
ATOM     30  C26 UNL     1      76.101  64.895 108.812  0.00  0.00    +0.000 C 
ATOM     31  C27 UNL     1      77.150  66.462 107.069  0.00  0.00    +0.000 C 
ATOM     32  C30 UNL     1      77.219  67.934 106.540  0.00  0.00    +0.000 C 
ATOM     33  C31 UNL     1      77.470  68.947 107.687  0.00  0.00    +0.000 C 
ATOM     34  C32 UNL     1      69.423  70.540 102.387  0.00  0.00    +0.000 C 
ATOM     35  C33 UNL     1      73.354  70.770  99.611  0.00  0.00    +0.000 A 
ATOM     36  C34 UNL     1      74.753  70.642  99.440  0.00  0.00    +0.000 A 
ATOM     37  C35 UNL     1      75.363  69.425  99.021  0.00  0.00    +0.000 A 
ATOM     38  C36 UNL     1      76.718  69.177  99.334  0.00  0.00    +0.000 A 
ATOM     39  C37 UNL     1      77.366  67.852  99.046  0.00  0.00    +0.000 C 
ATOM     40  H11 UNL     1      70.742  71.489 100.065  0.00  0.00    +0.000 HD
ENDROOT
BRANCH   1  42
ATOM     41  C1  UNL     1      80.467  67.263 105.147  0.00  0.00    +0.000 C 
ATOM     42  O1  UNL     1      79.588  67.998 105.973  0.00  0.00    +0.000 OA
ENDBRANCH   1  42
BRANCH  13  43
ATOM     43  O5  UNL     1      75.847  74.138 100.084  0.00  0.00    +0.000 OA
ATOM     44  H10 UNL     1      76.711  74.253  99.573  0.00  0.00    +0.000 HD
ENDBRANCH  13  43
BRANCH  25  45
ATOM     45  O7  UNL     1      71.353  65.889 107.697  0.00  0.00    +0.000 OA
ATOM     46  H20 UNL     1      70.684  66.285 108.312  0.00  0.00    +0.000 HD
ENDBRANCH  25  45
BRANCH  28  47
ATOM     47  O8  UNL     1      74.670  66.316 105.869  0.00  0.00    +0.000 OA
ATOM     48  H26 UNL     1      74.674  67.294 105.689  0.00  0.00    +0.000 HD
ENDBRANCH  28  47
BRANCH  37  49
ATOM     49  O11 UNL     1      74.624  68.490  98.289  0.00  0.00    +0.000 OA
ATOM     50  H45 UNL     1      73.789  68.724  97.768  0.00  0.00    +0.000 HD
ENDBRANCH  37  49
BRANCH  35  51
ATOM     51  O12 UNL     1      72.486  69.674  99.576  0.00  0.00    +0.000 OA
ATOM     52  H46 UNL     1      72.019  69.356  98.741  0.00  0.00    +0.000 HD
ENDBRANCH  35  51
BRANCH  14  53
ATOM     53  C38 UNL     1      72.930  74.493 100.032  0.00  0.00    +0.000 C 
ATOM     54  N2  UNL     1      73.295  75.472  99.259  0.00  0.00    +0.000 NA
BRANCH  54  55
ATOM     55  N3  UNL     1      72.656  76.726  99.275  0.00  0.00    +0.000 N 
ATOM     56  C39 UNL     1      72.501  77.474 100.526  0.00  0.00    +0.000 C 
ATOM     57  C40 UNL     1      71.242  78.347 100.459  0.00  0.00    +0.000 C 
ATOM     58  N4  UNL     1      71.189  79.172  99.232  0.00  0.00    +0.000 NA
ATOM     59  C41 UNL     1      72.124  80.309  99.275  0.00  0.00    +0.000 C 
ATOM     60  C42 UNL     1      71.337  78.361  98.005  0.00  0.00    +0.000 C 
ATOM     61  C43 UNL     1      72.597  77.482  98.027  0.00  0.00    +0.000 C 
ENDBRANCH  54  55
ENDBRANCH  14  53
BRANCH  31  62
ATOM     62  O9  UNL     1      78.371  66.182 107.768  0.00  0.00    +0.000 OA
BRANCH  62  63
ATOM     63  C28 UNL     1      79.129  65.016 107.605  0.00  0.00    +0.000 C 
ATOM     64  C29 UNL     1      78.863  64.135 106.435  0.00  0.00    +0.000 C 
ATOM     65  O10 UNL     1      80.049  64.721 108.415  0.00  0.00    +0.000 OA
ENDBRANCH  62  63
ENDBRANCH  31  62
TORSDOF 10
ENDMDL
MODEL 17
REMARK VINA RESULT:      -6.7      7.726     11.287
REMARK  Name = ./S1764.pdb
REMARK  20 active torsions:
REMARK  status: ('A' for Active; 'I' for Inactive)
REMARK    1  A    between atoms: C1_1  and  O1_2
REMARK    2  A    between atoms: O1_2  and  C2_3
REMARK    3  A    between atoms: C5_7  and  C6_8
REMARK    4  A    between atoms: C11_15  and  O5_16
REMARK    5  A    between atoms: C12_17  and  C38_51
REMARK    6  A    between atoms: C15_22  and  C32_43
REMARK    7  A    between atoms: C19_26  and  C20_27
REMARK    8  A    between atoms: C21_28  and  O7_29
REMARK    9  A    between atoms: C22_30  and  C23_31
REMARK   10  A    between atoms: C24_32  and  O8_33
REMARK   11  A    between atoms: C25_34  and  C26_35
REMARK   12  A    between atoms: C27_36  and  O9_37
REMARK   13  A    between atoms: O9_37  and  C28_38
REMARK   14  A    between atoms: C28_38  and  C29_39
REMARK   15  A    between atoms: C30_41  and  C31_42
REMARK   16  A    between atoms: C33_44  and  O12_50
REMARK   17  A    between atoms: C35_46  and  O11_49
REMARK   18  A    between atoms: C36_47  and  C37_48
REMARK   19  A    between atoms: N2_52  and  N3_53
REMARK   20  A    between atoms: N4_56  and  C41_57
REMARK                            x       y       z     vdW  Elec       q    Type
REMARK                         _______ _______ _______ _____ _____    ______ ____
ROOT
ATOM      1  C2  UNL     1      78.612  72.148 101.618  0.00  0.00    +0.000 C 
ATOM      2  C3  UNL     1      78.646  71.279 102.857  0.00  0.00    +0.000 C 
ATOM      3  C4  UNL     1      79.439  71.547 103.896  0.00  0.00    +0.000 C 
ATOM      4  O2  UNL     1      79.397  70.706 105.007  0.00  0.00    +0.000 OA
ATOM      5  C5  UNL     1      79.976  71.032 106.272  0.00  0.00    +0.000 C 
ATOM      6  C6  UNL     1      81.447  70.628 106.334  0.00  0.00    +0.000 C 
ATOM      7  O3  UNL     1      79.802  72.418 106.564  0.00  0.00    +0.000 OA
ATOM      8  C7  UNL     1      78.752  72.589 107.456  0.00  0.00    +0.000 A 
ATOM      9  C8  UNL     1      78.295  71.394 107.960  0.00  0.00    +0.000 A 
ATOM     10  C9  UNL     1      79.134  70.376 107.318  0.00  0.00    +0.000 C 
ATOM     11  O4  UNL     1      79.071  69.133 107.493  0.00  0.00    +0.000 OA
ATOM     12  C10 UNL     1      77.036  71.315 108.600  0.00  0.00    +0.000 A 
ATOM     13  C11 UNL     1      76.505  70.112 109.125  0.00  0.00    +0.000 A 
ATOM     14  C12 UNL     1      75.122  70.028 109.411  0.00  0.00    +0.000 A 
ATOM     15  C13 UNL     1      74.287  71.106 109.059  0.00  0.00    +0.000 A 
ATOM     16  N1  UNL     1      72.897  70.886 108.768  0.00  0.00    +0.000 N 
ATOM     17  C14 UNL     1      72.584  70.173 107.559  0.00  0.00    +0.000 C 
ATOM     18  O6  UNL     1      73.143  69.063 107.326  0.00  0.00    +0.000 OA
ATOM     19  C15 UNL     1      71.767  70.793 106.498  0.00  0.00    +0.000 C 
ATOM     20  C16 UNL     1      72.224  70.732 105.231  0.00  0.00    +0.000 C 
ATOM     21  C17 UNL     1      71.499  71.252 104.053  0.00  0.00    +0.000 C 
ATOM     22  C18 UNL     1      72.117  71.351 102.873  0.00  0.00    +0.000 C 
ATOM     23  C19 UNL     1      71.363  71.672 101.602  0.00  0.00    +0.000 C 
ATOM     24  C20 UNL     1      70.964  70.358 100.914  0.00  0.00    +0.000 C 
ATOM     25  C21 UNL     1      72.160  72.677 100.703  0.00  0.00    +0.000 C 
ATOM     26  C22 UNL     1      73.417  72.106  99.940  0.00  0.00    +0.000 C 
ATOM     27  C23 UNL     1      73.021  71.517  98.563  0.00  0.00    +0.000 C 
ATOM     28  C24 UNL     1      74.505  73.226  99.788  0.00  0.00    +0.000 C 
ATOM     29  C25 UNL     1      75.760  72.818  98.916  0.00  0.00    +0.000 C 
ATOM     30  C26 UNL     1      75.758  73.632  97.606  0.00  0.00    +0.000 C 
ATOM     31  C27 UNL     1      77.149  72.927  99.647  0.00  0.00    +0.000 C 
ATOM     32  C30 UNL     1      77.367  71.822 100.734  0.00  0.00    +0.000 C 
ATOM     33  C31 UNL     1      77.464  70.407 100.105  0.00  0.00    +0.000 C 
ATOM     34  C32 UNL     1      70.492  71.514 106.854  0.00  0.00    +0.000 C 
ATOM     35  C33 UNL     1      74.838  72.360 108.753  0.00  0.00    +0.000 A 
ATOM     36  C34 UNL     1      76.240  72.500 108.614  0.00  0.00    +0.000 A 
ATOM     37  C35 UNL     1      76.860  73.758 108.363  0.00  0.00    +0.000 A 
ATOM     38  C36 UNL     1      78.131  73.801 107.750  0.00  0.00    +0.000 A 
ATOM     39  C37 UNL     1      78.763  75.099 107.329  0.00  0.00    +0.000 C 
ATOM     40  H11 UNL     1      72.219  71.607 109.099  0.00  0.00    +0.000 HD
ENDROOT
BRANCH   1  42
ATOM     41  C1  UNL     1      80.773  72.909 101.139  0.00  0.00    +0.000 C 
ATOM     42  O1  UNL     1      79.797  71.925 100.864  0.00  0.00    +0.000 OA
ENDBRANCH   1  42
BRANCH  13  43
ATOM     43  O5  UNL     1      77.355  69.030 109.351  0.00  0.00    +0.000 OA
ATOM     44  H10 UNL     1      77.039  68.103 109.599  0.00  0.00    +0.000 HD
ENDBRANCH  13  43
BRANCH  25  45
ATOM     45  O7  UNL     1      71.310  73.375  99.824  0.00  0.00    +0.000 OA
ATOM     46  H20 UNL     1      71.816  73.597  99.001  0.00  0.00    +0.000 HD
ENDBRANCH  25  45
BRANCH  28  47
ATOM     47  O8  UNL     1      74.900  73.657 101.069  0.00  0.00    +0.000 OA
ATOM     48  H26 UNL     1      75.597  73.028 101.394  0.00  0.00    +0.000 HD
ENDBRANCH  28  47
BRANCH  37  49
ATOM     49  O11 UNL     1      76.215  74.941 108.738  0.00  0.00    +0.000 OA
ATOM     50  H45 UNL     1      75.349  74.962 109.261  0.00  0.00    +0.000 HD
ENDBRANCH  37  49
BRANCH  35  51
ATOM     51  O12 UNL     1      73.943  73.395 108.463  0.00  0.00    +0.000 OA
ATOM     52  H46 UNL     1      73.690  73.671 107.527  0.00  0.00    +0.000 HD
ENDBRANCH  35  51
BRANCH  14  53
ATOM     53  C38 UNL     1      74.505  68.832 110.043  0.00  0.00    +0.000 C 
ATOM     54  N2  UNL     1      74.802  68.476 111.257  0.00  0.00    +0.000 NA
BRANCH  54  55
ATOM     55  N3  UNL     1      74.212  67.363 111.884  0.00  0.00    +0.000 N 
ATOM     56  C39 UNL     1      73.761  66.211 111.099  0.00  0.00    +0.000 C 
ATOM     57  C40 UNL     1      72.583  65.528 111.805  0.00  0.00    +0.000 C 
ATOM     58  N4  UNL     1      72.866  65.237 113.228  0.00  0.00    +0.000 NA
ATOM     59  C41 UNL     1      73.787  64.100 113.399  0.00  0.00    +0.000 C 
ATOM     60  C42 UNL     1      73.304  66.439 113.969  0.00  0.00    +0.000 C 
ATOM     61  C43 UNL     1      74.494  67.145 113.300  0.00  0.00    +0.000 C 
ENDBRANCH  54  55
ENDBRANCH  14  53
BRANCH  31  62
ATOM     62  O9  UNL     1      78.223  72.838  98.699  0.00  0.00    +0.000 OA
BRANCH  62  63
ATOM     63  C28 UNL     1      78.932  73.937  98.199  0.00  0.00    +0.000 C 
ATOM     64  C29 UNL     1      78.890  75.226  98.943  0.00  0.00    +0.000 C 
ATOM     65  O10 UNL     1      79.627  73.840  97.152  0.00  0.00    +0.000 OA
ENDBRANCH  62  63
ENDBRANCH  31  62
TORSDOF 10
ENDMDL
MODEL 18
REMARK VINA RESULT:      -6.7      5.194     10.014
REMARK  Name = ./S1764.pdb
REMARK  20 active torsions:
REMARK  status: ('A' for Active; 'I' for Inactive)
REMARK    1  A    between atoms: C1_1  and  O1_2
REMARK    2  A    between atoms: O1_2  and  C2_3
REMARK    3  A    between atoms: C5_7  and  C6_8
REMARK    4  A    between atoms: C11_15  and  O5_16
REMARK    5  A    between atoms: C12_17  and  C38_51
REMARK    6  A    between atoms: C15_22  and  C32_43
REMARK    7  A    between atoms: C19_26  and  C20_27
REMARK    8  A    between atoms: C21_28  and  O7_29
REMARK    9  A    between atoms: C22_30  and  C23_31
REMARK   10  A    between atoms: C24_32  and  O8_33
REMARK   11  A    between atoms: C25_34  and  C26_35
REMARK   12  A    between atoms: C27_36  and  O9_37
REMARK   13  A    between atoms: O9_37  and  C28_38
REMARK   14  A    between atoms: C28_38  and  C29_39
REMARK   15  A    between atoms: C30_41  and  C31_42
REMARK   16  A    between atoms: C33_44  and  O12_50
REMARK   17  A    between atoms: C35_46  and  O11_49
REMARK   18  A    between atoms: C36_47  and  C37_48
REMARK   19  A    between atoms: N2_52  and  N3_53
REMARK   20  A    between atoms: N4_56  and  C41_57
REMARK                            x       y       z     vdW  Elec       q    Type
REMARK                         _______ _______ _______ _____ _____    ______ ____
ROOT
ATOM      1  C2  UNL     1      78.487  66.390  97.963  0.00  0.00    +0.000 C 
ATOM      2  C3  UNL     1      78.110  65.831  99.318  0.00  0.00    +0.000 C 
ATOM      3  C4  UNL     1      79.023  65.449 100.212  0.00  0.00    +0.000 C 
ATOM      4  O2  UNL     1      78.592  64.961 101.445  0.00  0.00    +0.000 OA
ATOM      5  C5  UNL     1      79.451  64.786 102.573  0.00  0.00    +0.000 C 
ATOM      6  C6  UNL     1      80.131  63.419 102.551  0.00  0.00    +0.000 C 
ATOM      7  O3  UNL     1      80.407  65.843 102.649  0.00  0.00    +0.000 OA
ATOM      8  C7  UNL     1      80.014  66.772 103.603  0.00  0.00    +0.000 A 
ATOM      9  C8  UNL     1      78.938  66.341 104.341  0.00  0.00    +0.000 A 
ATOM     10  C9  UNL     1      78.620  65.018 103.793  0.00  0.00    +0.000 C 
ATOM     11  O4  UNL     1      77.702  64.248 104.177  0.00  0.00    +0.000 OA
ATOM     12  C10 UNL     1      78.177  67.253 105.110  0.00  0.00    +0.000 A 
ATOM     13  C11 UNL     1      77.050  66.872 105.877  0.00  0.00    +0.000 A 
ATOM     14  C12 UNL     1      76.137  67.862 106.313  0.00  0.00    +0.000 A 
ATOM     15  C13 UNL     1      76.313  69.189 105.874  0.00  0.00    +0.000 A 
ATOM     16  N1  UNL     1      75.186  70.075 105.766  0.00  0.00    +0.000 N 
ATOM     17  C14 UNL     1      74.229  69.796 104.730  0.00  0.00    +0.000 C 
ATOM     18  O6  UNL     1      73.739  68.636 104.627  0.00  0.00    +0.000 OA
ATOM     19  C15 UNL     1      73.945  70.783 103.670  0.00  0.00    +0.000 C 
ATOM     20  C16 UNL     1      73.958  70.358 102.391  0.00  0.00    +0.000 C 
ATOM     21  C17 UNL     1      73.639  71.207 101.222  0.00  0.00    +0.000 C 
ATOM     22  C18 UNL     1      73.891  70.769  99.986  0.00  0.00    +0.000 C 
ATOM     23  C19 UNL     1      73.390  71.504  98.763  0.00  0.00    +0.000 C 
ATOM     24  C20 UNL     1      72.036  70.910  98.344  0.00  0.00    +0.000 C 
ATOM     25  C21 UNL     1      74.475  71.542  97.634  0.00  0.00    +0.000 C 
ATOM     26  C22 UNL     1      74.735  70.197  96.852  0.00  0.00    +0.000 C 
ATOM     27  C23 UNL     1      73.782  70.058  95.638  0.00  0.00    +0.000 C 
ATOM     28  C24 UNL     1      76.237  70.118  96.407  0.00  0.00    +0.000 C 
ATOM     29  C25 UNL     1      76.594  68.879  95.491  0.00  0.00    +0.000 C 
ATOM     30  C26 UNL     1      76.938  69.375  94.072  0.00  0.00    +0.000 C 
ATOM     31  C27 UNL     1      77.722  67.935  96.049  0.00  0.00    +0.000 C 
ATOM     32  C30 UNL     1      77.264  67.077  97.276  0.00  0.00    +0.000 C 
ATOM     33  C31 UNL     1      76.173  66.047  96.882  0.00  0.00    +0.000 C 
ATOM     34  C32 UNL     1      73.706  72.228 104.029  0.00  0.00    +0.000 C 
ATOM     35  C33 UNL     1      77.532  69.596 105.312  0.00  0.00    +0.000 A 
ATOM     36  C34 UNL     1      78.526  68.634 105.009  0.00  0.00    +0.000 A 
ATOM     37  C35 UNL     1      79.804  68.994 104.492  0.00  0.00    +0.000 A 
ATOM     38  C36 UNL     1      80.551  68.049 103.754  0.00  0.00    +0.000 A 
ATOM     39  C37 UNL     1      81.833  68.421 103.063  0.00  0.00    +0.000 C 
ATOM     40  H11 UNL     1      75.333  71.070 106.041  0.00  0.00    +0.000 HD
ENDROOT
BRANCH   1  42
ATOM     41  C1  UNL     1      80.367  65.259  97.146  0.00  0.00    +0.000 C 
ATOM     42  O1  UNL     1      78.955  65.329  97.139  0.00  0.00    +0.000 OA
ENDBRANCH   1  42
BRANCH  13  43
ATOM     43  O5  UNL     1      76.859  65.527 106.191  0.00  0.00    +0.000 OA
ATOM     44  H10 UNL     1      77.111  64.762 105.580  0.00  0.00    +0.000 HD
ENDBRANCH  13  43
BRANCH  25  45
ATOM     45  O7  UNL     1      74.261  72.611  96.743  0.00  0.00    +0.000 OA
ATOM     46  H20 UNL     1      74.354  73.464  97.240  0.00  0.00    +0.000 HD
ENDBRANCH  25  45
BRANCH  28  47
ATOM     47  O8  UNL     1      77.056  70.150  97.553  0.00  0.00    +0.000 OA
ATOM     48  H26 UNL     1      77.715  70.884  97.428  0.00  0.00    +0.000 HD
ENDBRANCH  28  47
BRANCH  37  49
ATOM     49  O11 UNL     1      80.319  70.272 104.731  0.00  0.00    +0.000 OA
ATOM     50  H45 UNL     1      81.241  70.438 105.113  0.00  0.00    +0.000 HD
ENDBRANCH  37  49
BRANCH  35  51
ATOM     51  O12 UNL     1      77.647  70.941 104.947  0.00  0.00    +0.000 OA
ATOM     52  H46 UNL     1      76.882  71.595 104.970  0.00  0.00    +0.000 HD
ENDBRANCH  35  51
BRANCH  14  53
ATOM     53  C38 UNL     1      74.980  67.554 107.192  0.00  0.00    +0.000 C 
ATOM     54  N2  UNL     1      74.340  66.426 107.102  0.00  0.00    +0.000 NA
BRANCH  54  55
ATOM     55  N3  UNL     1      73.258  66.102 107.941  0.00  0.00    +0.000 N 
ATOM     56  C39 UNL     1      72.790  64.719 108.061  0.00  0.00    +0.000 C 
ATOM     57  C40 UNL     1      71.290  64.701 108.382  0.00  0.00    +0.000 C 
ATOM     58  N4  UNL     1      70.945  65.574 109.526  0.00  0.00    +0.000 NA
ATOM     59  C41 UNL     1      71.353  65.000 110.819  0.00  0.00    +0.000 C 
ATOM     60  C42 UNL     1      71.432  66.958 109.340  0.00  0.00    +0.000 C 
ATOM     61  C43 UNL     1      72.936  67.019 109.031  0.00  0.00    +0.000 C 
ENDBRANCH  54  55
ENDBRANCH  14  53
BRANCH  31  62
ATOM     62  O9  UNL     1      78.180  67.040  95.025  0.00  0.00    +0.000 OA
BRANCH  62  63
ATOM     63  C28 UNL     1      79.393  67.174  94.339  0.00  0.00    +0.000 C 
ATOM     64  C29 UNL     1      80.388  68.174  94.814  0.00  0.00    +0.000 C 
ATOM     65  O10 UNL     1      79.665  66.440  93.351  0.00  0.00    +0.000 OA
ENDBRANCH  62  63
ENDBRANCH  31  62
TORSDOF 10
ENDMDL
MODEL 19
REMARK VINA RESULT:      -6.7      3.248      7.325
REMARK  Name = ./S1764.pdb
REMARK  20 active torsions:
REMARK  status: ('A' for Active; 'I' for Inactive)
REMARK    1  A    between atoms: C1_1  and  O1_2
REMARK    2  A    between atoms: O1_2  and  C2_3
REMARK    3  A    between atoms: C5_7  and  C6_8
REMARK    4  A    between atoms: C11_15  and  O5_16
REMARK    5  A    between atoms: C12_17  and  C38_51
REMARK    6  A    between atoms: C15_22  and  C32_43
REMARK    7  A    between atoms: C19_26  and  C20_27
REMARK    8  A    between atoms: C21_28  and  O7_29
REMARK    9  A    between atoms: C22_30  and  C23_31
REMARK   10  A    between atoms: C24_32  and  O8_33
REMARK   11  A    between atoms: C25_34  and  C26_35
REMARK   12  A    between atoms: C27_36  and  O9_37
REMARK   13  A    between atoms: O9_37  and  C28_38
REMARK   14  A    between atoms: C28_38  and  C29_39
REMARK   15  A    between atoms: C30_41  and  C31_42
REMARK   16  A    between atoms: C33_44  and  O12_50
REMARK   17  A    between atoms: C35_46  and  O11_49
REMARK   18  A    between atoms: C36_47  and  C37_48
REMARK   19  A    between atoms: N2_52  and  N3_53
REMARK   20  A    between atoms: N4_56  and  C41_57
REMARK                            x       y       z     vdW  Elec       q    Type
REMARK                         _______ _______ _______ _____ _____    ______ ____
ROOT
ATOM      1  C2  UNL     1      76.895  67.100 106.998  0.00  0.00    +0.000 C 
ATOM      2  C3  UNL     1      76.665  65.648 107.356  0.00  0.00    +0.000 C 
ATOM      3  C4  UNL     1      75.763  65.269 108.262  0.00  0.00    +0.000 C 
ATOM      4  O2  UNL     1      75.600  63.909 108.521  0.00  0.00    +0.000 OA
ATOM      5  C5  UNL     1      74.496  63.366 109.247  0.00  0.00    +0.000 C 
ATOM      6  C6  UNL     1      74.762  63.365 110.750  0.00  0.00    +0.000 C 
ATOM      7  O3  UNL     1      73.292  64.061 108.929  0.00  0.00    +0.000 OA
ATOM      8  C7  UNL     1      72.539  63.323 108.026  0.00  0.00    +0.000 A 
ATOM      9  C8  UNL     1      73.048  62.061 107.831  0.00  0.00    +0.000 A 
ATOM     10  C9  UNL     1      74.236  62.004 108.688  0.00  0.00    +0.000 C 
ATOM     11  O4  UNL     1      75.013  61.025 108.831  0.00  0.00    +0.000 OA
ATOM     12  C10 UNL     1      72.648  61.286 106.717  0.00  0.00    +0.000 A 
ATOM     13  C11 UNL     1      73.147  59.988 106.454  0.00  0.00    +0.000 A 
ATOM     14  C12 UNL     1      72.994  59.431 105.162  0.00  0.00    +0.000 A 
ATOM     15  C13 UNL     1      72.449  60.229 104.137  0.00  0.00    +0.000 A 
ATOM     16  N1  UNL     1      72.793  59.985 102.764  0.00  0.00    +0.000 N 
ATOM     17  C14 UNL     1      74.141  60.285 102.362  0.00  0.00    +0.000 C 
ATOM     18  O6  UNL     1      75.110  59.817 103.025  0.00  0.00    +0.000 OA
ATOM     19  C15 UNL     1      74.418  61.275 101.303  0.00  0.00    +0.000 C 
ATOM     20  C16 UNL     1      75.344  62.223 101.551  0.00  0.00    +0.000 C 
ATOM     21  C17 UNL     1      75.775  63.248 100.576  0.00  0.00    +0.000 C 
ATOM     22  C18 UNL     1      76.527  64.278 100.973  0.00  0.00    +0.000 C 
ATOM     23  C19 UNL     1      77.166  65.227  99.984  0.00  0.00    +0.000 C 
ATOM     24  C20 UNL     1      78.586  64.735  99.667  0.00  0.00    +0.000 C 
ATOM     25  C21 UNL     1      77.072  66.711 100.473  0.00  0.00    +0.000 C 
ATOM     26  C22 UNL     1      78.026  67.133 101.657  0.00  0.00    +0.000 C 
ATOM     27  C23 UNL     1      79.399  67.617 101.127  0.00  0.00    +0.000 C 
ATOM     28  C24 UNL     1      77.336  68.233 102.536  0.00  0.00    +0.000 C 
ATOM     29  C25 UNL     1      78.247  68.840 103.677  0.00  0.00    +0.000 C 
ATOM     30  C26 UNL     1      78.566  70.313 103.346  0.00  0.00    +0.000 C 
ATOM     31  C27 UNL     1      77.679  68.699 105.137  0.00  0.00    +0.000 C 
ATOM     32  C30 UNL     1      77.728  67.232 105.683  0.00  0.00    +0.000 C 
ATOM     33  C31 UNL     1      79.185  66.738 105.875  0.00  0.00    +0.000 C 
ATOM     34  C32 UNL     1      73.636  61.239 100.014  0.00  0.00    +0.000 C 
ATOM     35  C33 UNL     1      71.762  61.412 104.449  0.00  0.00    +0.000 A 
ATOM     36  C34 UNL     1      71.773  61.907 105.775  0.00  0.00    +0.000 A 
ATOM     37  C35 UNL     1      71.046  63.070 106.162  0.00  0.00    +0.000 A 
ATOM     38  C36 UNL     1      71.454  63.804 107.297  0.00  0.00    +0.000 A 
ATOM     39  C37 UNL     1      70.815  65.115 107.662  0.00  0.00    +0.000 C 
ATOM     40  H11 UNL     1      72.036  60.094 102.055  0.00  0.00    +0.000 HD
ENDROOT
BRANCH   1  42
ATOM     41  C1  UNL     1      76.701  68.410 108.928  0.00  0.00    +0.000 C 
ATOM     42  O1  UNL     1      77.591  67.735 108.063  0.00  0.00    +0.000 OA
ENDBRANCH   1  42
BRANCH  13  43
ATOM     43  O5  UNL     1      73.782  59.279 107.474  0.00  0.00    +0.000 OA
ATOM     44  H10 UNL     1      74.555  59.638 108.017  0.00  0.00    +0.000 HD
ENDBRANCH  13  43
BRANCH  25  45
ATOM     45  O7  UNL     1      77.166  67.619  99.401  0.00  0.00    +0.000 OA
ATOM     46  H20 UNL     1      77.729  67.216  98.691  0.00  0.00    +0.000 HD
ENDBRANCH  25  45
BRANCH  28  47
ATOM     47  O8  UNL     1      76.142  67.709 103.071  0.00  0.00    +0.000 OA
ATOM     48  H26 UNL     1      75.888  66.921 102.520  0.00  0.00    +0.000 HD
ENDBRANCH  28  47
BRANCH  37  49
ATOM     49  O11 UNL     1      69.925  63.469 105.427  0.00  0.00    +0.000 OA
ATOM     50  H45 UNL     1      69.752  63.180 104.472  0.00  0.00    +0.000 HD
ENDBRANCH  37  49
BRANCH  35  51
ATOM     51  O12 UNL     1      71.205  62.124 103.381  0.00  0.00    +0.000 OA
ATOM     52  H46 UNL     1      70.311  61.910 102.970  0.00  0.00    +0.000 HD
ENDBRANCH  35  51
BRANCH  14  53
ATOM     53  C38 UNL     1      73.413  58.044 104.832  0.00  0.00    +0.000 C 
ATOM     54  N2  UNL     1      72.698  57.285 104.056  0.00  0.00    +0.000 NA
BRANCH  54  55
ATOM     55  N3  UNL     1      73.087  55.978 103.709  0.00  0.00    +0.000 N 
ATOM     56  C39 UNL     1      72.100  54.999 103.245  0.00  0.00    +0.000 C 
ATOM     57  C40 UNL     1      72.554  53.583 103.620  0.00  0.00    +0.000 C 
ATOM     58  N4  UNL     1      73.947  53.305 103.203  0.00  0.00    +0.000 NA
ATOM     59  C41 UNL     1      74.071  53.093 101.751  0.00  0.00    +0.000 C 
ATOM     60  C42 UNL     1      74.896  54.318 103.713  0.00  0.00    +0.000 C 
ATOM     61  C43 UNL     1      74.483  55.752 103.345  0.00  0.00    +0.000 C 
ENDBRANCH  54  55
ENDBRANCH  14  53
BRANCH  31  62
ATOM     62  O9  UNL     1      78.411  69.537 106.043  0.00  0.00    +0.000 OA
BRANCH  62  63
ATOM     63  C28 UNL     1      77.946  70.759 106.545  0.00  0.00    +0.000 C 
ATOM     64  C29 UNL     1      76.512  71.117 106.367  0.00  0.00    +0.000 C 
ATOM     65  O10 UNL     1      78.714  71.539 107.169  0.00  0.00    +0.000 OA
ENDBRANCH  62  63
ENDBRANCH  31  62
TORSDOF 10
ENDMDL
MODEL 20
REMARK VINA RESULT:      -6.7      4.457      6.353
REMARK  Name = ./S1764.pdb
REMARK  20 active torsions:
REMARK  status: ('A' for Active; 'I' for Inactive)
REMARK    1  A    between atoms: C1_1  and  O1_2
REMARK    2  A    between atoms: O1_2  and  C2_3
REMARK    3  A    between atoms: C5_7  and  C6_8
REMARK    4  A    between atoms: C11_15  and  O5_16
REMARK    5  A    between atoms: C12_17  and  C38_51
REMARK    6  A    between atoms: C15_22  and  C32_43
REMARK    7  A    between atoms: C19_26  and  C20_27
REMARK    8  A    between atoms: C21_28  and  O7_29
REMARK    9  A    between atoms: C22_30  and  C23_31
REMARK   10  A    between atoms: C24_32  and  O8_33
REMARK   11  A    between atoms: C25_34  and  C26_35
REMARK   12  A    between atoms: C27_36  and  O9_37
REMARK   13  A    between atoms: O9_37  and  C28_38
REMARK   14  A    between atoms: C28_38  and  C29_39
REMARK   15  A    between atoms: C30_41  and  C31_42
REMARK   16  A    between atoms: C33_44  and  O12_50
REMARK   17  A    between atoms: C35_46  and  O11_49
REMARK   18  A    between atoms: C36_47  and  C37_48
REMARK   19  A    between atoms: N2_52  and  N3_53
REMARK   20  A    between atoms: N4_56  and  C41_57
REMARK                            x       y       z     vdW  Elec       q    Type
REMARK                         _______ _______ _______ _____ _____    ______ ____
ROOT
ATOM      1  C2  UNL     1      71.868  71.954 101.458  0.00  0.00    +0.000 C 
ATOM      2  C3  UNL     1      72.163  70.755 100.583  0.00  0.00    +0.000 C 
ATOM      3  C4  UNL     1      72.992  70.818  99.540  0.00  0.00    +0.000 C 
ATOM      4  O2  UNL     1      73.223  69.663  98.795  0.00  0.00    +0.000 OA
ATOM      5  C5  UNL     1      74.283  69.529  97.846  0.00  0.00    +0.000 C 
ATOM      6  C6  UNL     1      73.865  70.035  96.467  0.00  0.00    +0.000 C 
ATOM      7  O3  UNL     1      75.461  70.187  98.309  0.00  0.00    +0.000 OA
ATOM      8  C7  UNL     1      76.352  69.258  98.828  0.00  0.00    +0.000 A 
ATOM      9  C8  UNL     1      75.958  67.963  98.588  0.00  0.00    +0.000 A 
ATOM     10  C9  UNL     1      74.694  68.092  97.853  0.00  0.00    +0.000 C 
ATOM     11  O4  UNL     1      73.979  67.153  97.420  0.00  0.00    +0.000 OA
ATOM     12  C10 UNL     1      76.523  66.889  99.314  0.00  0.00    +0.000 A 
ATOM     13  C11 UNL     1      76.147  65.538  99.122  0.00  0.00    +0.000 A 
ATOM     14  C12 UNL     1      76.470  64.578 100.110  0.00  0.00    +0.000 A 
ATOM     15  C13 UNL     1      77.059  65.012 101.314  0.00  0.00    +0.000 A 
ATOM     16  N1  UNL     1      76.875  64.263 102.526  0.00  0.00    +0.000 N 
ATOM     17  C14 UNL     1      75.558  64.259 103.102  0.00  0.00    +0.000 C 
ATOM     18  O6  UNL     1      74.562  63.960 102.384  0.00  0.00    +0.000 OA
ATOM     19  C15 UNL     1      75.321  64.775 104.465  0.00  0.00    +0.000 C 
ATOM     20  C16 UNL     1      74.311  65.648 104.643  0.00  0.00    +0.000 C 
ATOM     21  C17 UNL     1      73.909  66.211 105.951  0.00  0.00    +0.000 C 
ATOM     22  C18 UNL     1      73.049  67.231 106.008  0.00  0.00    +0.000 C 
ATOM     23  C19 UNL     1      72.450  67.696 107.316  0.00  0.00    +0.000 C 
ATOM     24  C20 UNL     1      71.108  66.980 107.531  0.00  0.00    +0.000 C 
ATOM     25  C21 UNL     1      72.388  69.259 107.393  0.00  0.00    +0.000 C 
ATOM     26  C22 UNL     1      71.290  69.972 106.513  0.00  0.00    +0.000 C 
ATOM     27  C23 UNL     1      69.947  70.093 107.276  0.00  0.00    +0.000 C 
ATOM     28  C24 UNL     1      71.807  71.377 106.046  0.00  0.00    +0.000 C 
ATOM     29  C25 UNL     1      70.743  72.253 105.270  0.00  0.00    +0.000 C 
ATOM     30  C26 UNL     1      70.356  73.471 106.134  0.00  0.00    +0.000 C 
ATOM     31  C27 UNL     1      71.167  72.698 103.822  0.00  0.00    +0.000 C 
ATOM     32  C30 UNL     1      71.167  71.524 102.786  0.00  0.00    +0.000 C 
ATOM     33  C31 UNL     1      69.736  70.982 102.531  0.00  0.00    +0.000 C 
ATOM     34  C32 UNL     1      76.232  64.364 105.595  0.00  0.00    +0.000 C 
ATOM     35  C33 UNL     1      77.625  66.292 101.405  0.00  0.00    +0.000 A 
ATOM     36  C34 UNL     1      77.444  67.222 100.354  0.00  0.00    +0.000 A 
ATOM     37  C35 UNL     1      78.043  68.514 100.365  0.00  0.00    +0.000 A 
ATOM     38  C36 UNL     1      77.470  69.558  99.604  0.00  0.00    +0.000 A 
ATOM     39  C37 UNL     1      77.973  70.971  99.696  0.00  0.00    +0.000 C 
ATOM     40  H11 UNL     1      77.691  64.190 103.171  0.00  0.00    +0.000 HD
ENDROOT
BRANCH   1  42
ATOM     41  C1  UNL     1      71.769  73.885 100.139  0.00  0.00    +0.000 C 
ATOM     42  O1  UNL     1      71.023  72.850 100.747  0.00  0.00    +0.000 OA
ENDBRANCH   1  42
BRANCH  13  43
ATOM     43  O5  UNL     1      75.463  65.176  97.962  0.00  0.00    +0.000 OA
ATOM     44  H10 UNL     1      74.736  65.734  97.535  0.00  0.00    +0.000 HD
ENDBRANCH  13  43
BRANCH  25  45
ATOM     45  O7  UNL     1      72.340  69.712 108.725  0.00  0.00    +0.000 OA
ATOM     46  H20 UNL     1      72.177  68.936 109.320  0.00  0.00    +0.000 HD
ENDBRANCH  25  45
BRANCH  28  47
ATOM     47  O8  UNL     1      72.974  71.203 105.276  0.00  0.00    +0.000 OA
ATOM     48  H26 UNL     1      72.841  70.397 104.711  0.00  0.00    +0.000 HD
ENDBRANCH  28  47
BRANCH  37  49
ATOM     49  O11 UNL     1      79.202  68.740 101.114  0.00  0.00    +0.000 OA
ATOM     50  H45 UNL     1      80.034  69.175 100.735  0.00  0.00    +0.000 HD
ENDBRANCH  37  49
BRANCH  35  51
ATOM     51  O12 UNL     1      78.236  66.633 102.617  0.00  0.00    +0.000 OA
ATOM     52  H46 UNL     1      78.056  66.159 103.487  0.00  0.00    +0.000 HD
ENDBRANCH  35  51
BRANCH  14  53
ATOM     53  C38 UNL     1      76.187  63.129  99.943  0.00  0.00    +0.000 C 
ATOM     54  N2  UNL     1      74.988  62.697  99.686  0.00  0.00    +0.000 NA
BRANCH  54  55
ATOM     55  N3  UNL     1      74.701  61.332  99.499  0.00  0.00    +0.000 N 
ATOM     56  C39 UNL     1      75.709  60.306  99.781  0.00  0.00    +0.000 C 
ATOM     57  C40 UNL     1      75.481  59.088  98.878  0.00  0.00    +0.000 C 
ATOM     58  N4  UNL     1      74.082  58.609  98.916  0.00  0.00    +0.000 NA
ATOM     59  C41 UNL     1      73.762  57.897 100.165  0.00  0.00    +0.000 C 
ATOM     60  C42 UNL     1      73.113  59.683  98.610  0.00  0.00    +0.000 C 
ATOM     61  C43 UNL     1      73.300  60.918  99.505  0.00  0.00    +0.000 C 
ENDBRANCH  54  55
ENDBRANCH  14  53
BRANCH  31  62
ATOM     62  O9  UNL     1      70.288  73.723 103.335  0.00  0.00    +0.000 OA
BRANCH  62  63
ATOM     63  C28 UNL     1      70.590  75.091 103.332  0.00  0.00    +0.000 C 
ATOM     64  C29 UNL     1      72.007  75.521 103.488  0.00  0.00    +0.000 C 
ATOM     65  O10 UNL     1      69.687  75.954 103.168  0.00  0.00    +0.000 OA
ENDBRANCH  62  63
ENDBRANCH  31  62
TORSDOF 10
ENDMDL
