MODEL 1
REMARK VINA RESULT:      -8.1      0.000      0.000
REMARK  Name = ./S1787.pdb
REMARK  11 active torsions:
REMARK  status: ('A' for Active; 'I' for Inactive)
REMARK    1  A    between atoms: C1_1  and  O1_2
REMARK    2  A    between atoms: O1_2  and  C2_3
REMARK    3  A    between atoms: C4_5  and  C9_12
REMARK    4  A    between atoms: C6_7  and  O3_10
REMARK    5  A    between atoms: C7_8  and  O2_9
REMARK    6  A    between atoms: O3_10  and  C8_11
REMARK    7  A    between atoms: C14_19  and  O6_20
REMARK    8  A    between atoms: O6_20  and  C15_21
REMARK    9  A    between atoms: C18_26  and  C22_33
REMARK   10  A    between atoms: C20_29  and  O10_30
REMARK   11  A    between atoms: C21_31  and  O11_32
REMARK                            x       y       z     vdW  Elec       q    Type
REMARK                         _______ _______ _______ _____ _____    ______ ____
ROOT
ATOM      1  C9  UNL     1      69.172  71.281 106.604  0.00  0.00    +0.000 C 
ATOM      2  C10 UNL     1      69.325  70.278 105.395  0.00  0.00    +0.000 C 
ATOM      3  C11 UNL     1      70.740  69.684 105.189  0.00  0.00    +0.000 C 
ATOM      4  C12 UNL     1      71.376  70.511 104.047  0.00  0.00    +0.000 C 
ATOM      5  O4  UNL     1      70.275  71.024 103.323  0.00  0.00    +0.000 OA
ATOM      6  C13 UNL     1      69.111  70.892 104.052  0.00  0.00    +0.000 C 
ATOM      7  O5  UNL     1      67.980  71.197 103.586  0.00  0.00    +0.000 OA
ATOM      8  C14 UNL     1      71.606  69.619 106.449  0.00  0.00    +0.000 C 
ATOM      9  C26 UNL     1      71.660  70.961 107.127  0.00  0.00    +0.000 A 
ATOM     10  C27 UNL     1      72.863  71.382 107.734  0.00  0.00    +0.000 A 
ATOM     11  C28 UNL     1      72.855  72.564 108.461  0.00  0.00    +0.000 A 
ATOM     12  C29 UNL     1      71.729  73.301 108.616  0.00  0.00    +0.000 A 
ATOM     13  O12 UNL     1      72.000  74.397 109.409  0.00  0.00    +0.000 OA
ATOM     14  C30 UNL     1      73.387  74.348 109.769  0.00  0.00    +0.000 C 
ATOM     15  O13 UNL     1      73.896  73.166 109.137  0.00  0.00    +0.000 OA
ATOM     16  C31 UNL     1      70.519  72.926 108.039  0.00  0.00    +0.000 A 
ATOM     17  C32 UNL     1      70.485  71.760 107.226  0.00  0.00    +0.000 A 
ENDROOT
BRANCH   1  20
ATOM     18  C2  UNL     1      67.869  74.636 105.260  0.00  0.00    +0.000 A 
ATOM     19  C3  UNL     1      68.691  73.516 105.491  0.00  0.00    +0.000 A 
ATOM     20  C4  UNL     1      68.230  72.433 106.259  0.00  0.00    +0.000 A 
ATOM     21  C5  UNL     1      66.934  72.487 106.803  0.00  0.00    +0.000 A 
ATOM     22  C6  UNL     1      66.098  73.595 106.573  0.00  0.00    +0.000 A 
ATOM     23  C7  UNL     1      66.574  74.670 105.802  0.00  0.00    +0.000 A 
BRANCH  18  25
ATOM     24  C1  UNL     1      69.638  75.954 104.068  0.00  0.00    +0.000 C 
ATOM     25  O1  UNL     1      68.298  75.742 104.507  0.00  0.00    +0.000 OA
ENDBRANCH  18  25
BRANCH  23  26
ATOM     26  O2  UNL     1      65.775  75.791 105.566  0.00  0.00    +0.000 OA
ATOM     27  H6  UNL     1      64.967  75.760 104.957  0.00  0.00    +0.000 HD
ENDBRANCH  23  26
BRANCH  22  28
ATOM     28  O3  UNL     1      64.802  73.667 107.109  0.00  0.00    +0.000 OA
ATOM     29  C8  UNL     1      64.102  72.567 107.687  0.00  0.00    +0.000 C 
ENDBRANCH  22  28
ENDBRANCH   1  20
BRANCH   8  30
ATOM     30  O6  UNL     1      71.047  68.670 107.345  0.00  0.00    +0.000 OA
BRANCH  30  31
ATOM     31  C15 UNL     1      71.264  67.331 106.918  0.00  0.00    +0.000 C 
ATOM     32  O7  UNL     1      72.630  66.986 107.080  0.00  0.00    +0.000 OA
ATOM     33  C16 UNL     1      73.070  66.815 108.424  0.00  0.00    +0.000 C 
ATOM     34  C17 UNL     1      73.491  68.123 109.110  0.00  0.00    +0.000 C 
ATOM     35  O8  UNL     1      74.099  67.919 110.384  0.00  0.00    +0.000 OA
ATOM     36  C18 UNL     1      73.771  66.658 110.964  0.00  0.00    +0.000 C 
ATOM     37  O9  UNL     1      72.412  66.308 110.753  0.00  0.00    +0.000 OA
ATOM     38  C19 UNL     1      72.143  66.015 109.385  0.00  0.00    +0.000 C 
ATOM     39  C20 UNL     1      70.650  66.284 109.142  0.00  0.00    +0.000 C 
ATOM     40  C21 UNL     1      70.325  66.347 107.645  0.00  0.00    +0.000 C 
BRANCH  36  41
ATOM     41  C22 UNL     1      74.018  66.731 112.438  0.00  0.00    +0.000 A 
ATOM     42  C23 UNL     1      75.047  67.427 113.058  0.00  0.00    +0.000 A 
ATOM     43  C24 UNL     1      75.040  67.298 114.454  0.00  0.00    +0.000 A 
ATOM     44  C25 UNL     1      74.011  66.498 114.936  0.00  0.00    +0.000 A 
ATOM     45  S1  UNL     1      73.114  65.947 113.624  0.00  0.00    +0.000 S 
ENDBRANCH  36  41
BRANCH  39  46
ATOM     46  O10 UNL     1      70.281  67.493 109.754  0.00  0.00    +0.000 OA
ATOM     47  H23 UNL     1      69.303  67.619 109.597  0.00  0.00    +0.000 HD
ENDBRANCH  39  46
BRANCH  40  48
ATOM     48  O11 UNL     1      70.363  65.069 107.059  0.00  0.00    +0.000 OA
ATOM     49  H25 UNL     1      70.564  65.178 106.094  0.00  0.00    +0.000 HD
ENDBRANCH  40  48
ENDBRANCH  30  31
ENDBRANCH   8  30
TORSDOF 9
ENDMDL
MODEL 2
REMARK VINA RESULT:      -8.1      6.387     11.602
REMARK  Name = ./S1787.pdb
REMARK  11 active torsions:
REMARK  status: ('A' for Active; 'I' for Inactive)
REMARK    1  A    between atoms: C1_1  and  O1_2
REMARK    2  A    between atoms: O1_2  and  C2_3
REMARK    3  A    between atoms: C4_5  and  C9_12
REMARK    4  A    between atoms: C6_7  and  O3_10
REMARK    5  A    between atoms: C7_8  and  O2_9
REMARK    6  A    between atoms: O3_10  and  C8_11
REMARK    7  A    between atoms: C14_19  and  O6_20
REMARK    8  A    between atoms: O6_20  and  C15_21
REMARK    9  A    between atoms: C18_26  and  C22_33
REMARK   10  A    between atoms: C20_29  and  O10_30
REMARK   11  A    between atoms: C21_31  and  O11_32
REMARK                            x       y       z     vdW  Elec       q    Type
REMARK                         _______ _______ _______ _____ _____    ______ ____
ROOT
ATOM      1  C9  UNL     1      73.588  64.831 114.221  0.00  0.00    +0.000 C 
ATOM      2  C10 UNL     1      73.365  66.370 113.949  0.00  0.00    +0.000 C 
ATOM      3  C11 UNL     1      74.217  66.982 112.810  0.00  0.00    +0.000 C 
ATOM      4  C12 UNL     1      75.396  67.698 113.510  0.00  0.00    +0.000 C 
ATOM      5  O4  UNL     1      74.918  67.983 114.809  0.00  0.00    +0.000 OA
ATOM      6  C13 UNL     1      73.772  67.262 115.074  0.00  0.00    +0.000 C 
ATOM      7  O5  UNL     1      73.108  67.408 116.136  0.00  0.00    +0.000 OA
ATOM      8  C14 UNL     1      74.660  65.993 111.729  0.00  0.00    +0.000 C 
ATOM      9  C26 UNL     1      75.333  64.798 112.345  0.00  0.00    +0.000 A 
ATOM     10  C27 UNL     1      76.437  64.210 111.688  0.00  0.00    +0.000 A 
ATOM     11  C28 UNL     1      76.962  63.035 112.208  0.00  0.00    +0.000 A 
ATOM     12  C29 UNL     1      76.433  62.438 113.303  0.00  0.00    +0.000 A 
ATOM     13  O12 UNL     1      77.125  61.275 113.573  0.00  0.00    +0.000 OA
ATOM     14  C30 UNL     1      78.158  61.138 112.589  0.00  0.00    +0.000 C 
ATOM     15  O13 UNL     1      78.022  62.287 111.741  0.00  0.00    +0.000 OA
ATOM     16  C31 UNL     1      75.345  62.978 113.983  0.00  0.00    +0.000 A 
ATOM     17  C32 UNL     1      74.810  64.217 113.536  0.00  0.00    +0.000 A 
ENDROOT
BRANCH   1  20
ATOM     18  C2  UNL     1      74.660  64.300 117.872  0.00  0.00    +0.000 A 
ATOM     19  C3  UNL     1      74.665  64.695 116.520  0.00  0.00    +0.000 A 
ATOM     20  C4  UNL     1      73.529  64.513 115.714  0.00  0.00    +0.000 A 
ATOM     21  C5  UNL     1      72.383  63.921 116.276  0.00  0.00    +0.000 A 
ATOM     22  C6  UNL     1      72.359  63.531 117.627  0.00  0.00    +0.000 A 
ATOM     23  C7  UNL     1      73.505  63.721 118.420  0.00  0.00    +0.000 A 
BRANCH  18  25
ATOM     24  C1  UNL     1      76.992  65.103 118.324  0.00  0.00    +0.000 C 
ATOM     25  O1  UNL     1      75.779  64.457 118.706  0.00  0.00    +0.000 OA
ENDBRANCH  18  25
BRANCH  23  26
ATOM     26  O2  UNL     1      73.519  63.332 119.761  0.00  0.00    +0.000 OA
ATOM     27  H6  UNL     1      72.674  63.076 120.259  0.00  0.00    +0.000 HD
ENDBRANCH  23  26
BRANCH  22  28
ATOM     28  O3  UNL     1      71.225  62.938 118.205  0.00  0.00    +0.000 OA
ATOM     29  C8  UNL     1      70.128  62.400 117.469  0.00  0.00    +0.000 C 
ENDBRANCH  22  28
ENDBRANCH   1  20
BRANCH   8  30
ATOM     30  O6  UNL     1      73.518  65.559 111.003  0.00  0.00    +0.000 OA
BRANCH  30  31
ATOM     31  C15 UNL     1      73.312  66.317 109.818  0.00  0.00    +0.000 C 
ATOM     32  O7  UNL     1      74.102  65.792 108.764  0.00  0.00    +0.000 OA
ATOM     33  C16 UNL     1      73.682  64.534 108.244  0.00  0.00    +0.000 C 
ATOM     34  C17 UNL     1      74.223  63.328 109.026  0.00  0.00    +0.000 C 
ATOM     35  O8  UNL     1      73.950  62.079 108.394  0.00  0.00    +0.000 OA
ATOM     36  C18 UNL     1      72.866  62.145 107.470  0.00  0.00    +0.000 C 
ATOM     37  O9  UNL     1      71.802  62.954 107.950  0.00  0.00    +0.000 OA
ATOM     38  C19 UNL     1      72.159  64.333 107.994  0.00  0.00    +0.000 C 
ATOM     39  C20 UNL     1      71.281  65.001 109.064  0.00  0.00    +0.000 C 
ATOM     40  C21 UNL     1      71.816  66.386 109.446  0.00  0.00    +0.000 C 
BRANCH  36  41
ATOM     41  C22 UNL     1      72.343  60.761 107.245  0.00  0.00    +0.000 A 
ATOM     42  C23 UNL     1      72.655  59.640 108.003  0.00  0.00    +0.000 A 
ATOM     43  C24 UNL     1      72.030  58.473 107.545  0.00  0.00    +0.000 A 
ATOM     44  C25 UNL     1      71.231  58.667 106.425  0.00  0.00    +0.000 A 
ATOM     45  S1  UNL     1      71.307  60.294 106.002  0.00  0.00    +0.000 S 
ENDBRANCH  36  41
BRANCH  39  46
ATOM     46  O10 UNL     1      71.226  64.187 110.207  0.00  0.00    +0.000 OA
ATOM     47  H23 UNL     1      71.303  63.240 109.900  0.00  0.00    +0.000 HD
ENDBRANCH  39  46
BRANCH  40  48
ATOM     48  O11 UNL     1      71.581  67.326 108.425  0.00  0.00    +0.000 OA
ATOM     49  H25 UNL     1      72.310  67.997 108.451  0.00  0.00    +0.000 HD
ENDBRANCH  40  48
ENDBRANCH  30  31
ENDBRANCH   8  30
TORSDOF 9
ENDMDL
MODEL 3
REMARK VINA RESULT:      -8.1      0.548      2.058
REMARK  Name = ./S1787.pdb
REMARK  11 active torsions:
REMARK  status: ('A' for Active; 'I' for Inactive)
REMARK    1  A    between atoms: C1_1  and  O1_2
REMARK    2  A    between atoms: O1_2  and  C2_3
REMARK    3  A    between atoms: C4_5  and  C9_12
REMARK    4  A    between atoms: C6_7  and  O3_10
REMARK    5  A    between atoms: C7_8  and  O2_9
REMARK    6  A    between atoms: O3_10  and  C8_11
REMARK    7  A    between atoms: C14_19  and  O6_20
REMARK    8  A    between atoms: O6_20  and  C15_21
REMARK    9  A    between atoms: C18_26  and  C22_33
REMARK   10  A    between atoms: C20_29  and  O10_30
REMARK   11  A    between atoms: C21_31  and  O11_32
REMARK                            x       y       z     vdW  Elec       q    Type
REMARK                         _______ _______ _______ _____ _____    ______ ____
ROOT
ATOM      1  C9  UNL     1      69.370  71.202 106.665  0.00  0.00    +0.000 C 
ATOM      2  C10 UNL     1      69.457  70.178 105.466  0.00  0.00    +0.000 C 
ATOM      3  C11 UNL     1      70.847  69.538 105.229  0.00  0.00    +0.000 C 
ATOM      4  C12 UNL     1      71.476  70.330 104.058  0.00  0.00    +0.000 C 
ATOM      5  O4  UNL     1      70.371  70.868 103.358  0.00  0.00    +0.000 OA
ATOM      6  C13 UNL     1      69.225  70.782 104.121  0.00  0.00    +0.000 C 
ATOM      7  O5  UNL     1      68.091  71.116 103.682  0.00  0.00    +0.000 OA
ATOM      8  C14 UNL     1      71.745  69.462 106.465  0.00  0.00    +0.000 C 
ATOM      9  C26 UNL     1      71.860  70.810 107.123  0.00  0.00    +0.000 A 
ATOM     10  C27 UNL     1      73.093  71.201 107.691  0.00  0.00    +0.000 A 
ATOM     11  C28 UNL     1      73.141  72.392 108.401  0.00  0.00    +0.000 A 
ATOM     12  C29 UNL     1      72.043  73.165 108.577  0.00  0.00    +0.000 A 
ATOM     13  O12 UNL     1      72.371  74.262 109.348  0.00  0.00    +0.000 OA
ATOM     14  C30 UNL     1      73.765  74.175 109.670  0.00  0.00    +0.000 C 
ATOM     15  O13 UNL     1      74.219  72.969 109.040  0.00  0.00    +0.000 OA
ATOM     16  C31 UNL     1      70.807  72.822 108.039  0.00  0.00    +0.000 A 
ATOM     17  C32 UNL     1      70.714  71.647 107.243  0.00  0.00    +0.000 A 
ENDROOT
BRANCH   1  20
ATOM     18  C2  UNL     1      66.248  73.428 106.426  0.00  0.00    +0.000 A 
ATOM     19  C3  UNL     1      67.138  72.409 106.818  0.00  0.00    +0.000 A 
ATOM     20  C4  UNL     1      68.455  72.378 106.330  0.00  0.00    +0.000 A 
ATOM     21  C5  UNL     1      68.873  73.379 105.434  0.00  0.00    +0.000 A 
ATOM     22  C6  UNL     1      67.999  74.408 105.041  0.00  0.00    +0.000 A 
ATOM     23  C7  UNL     1      66.684  74.426 105.539  0.00  0.00    +0.000 A 
BRANCH  18  25
ATOM     24  C1  UNL     1      64.351  72.590 107.835  0.00  0.00    +0.000 C 
ATOM     25  O1  UNL     1      64.922  73.487 106.884  0.00  0.00    +0.000 OA
ENDBRANCH  18  25
BRANCH  23  26
ATOM     26  O2  UNL     1      65.788  75.426 105.157  0.00  0.00    +0.000 OA
ATOM     27  H6  UNL     1      65.556  75.603 104.187  0.00  0.00    +0.000 HD
ENDBRANCH  23  26
BRANCH  22  28
ATOM     28  O3  UNL     1      68.398  75.416 104.147  0.00  0.00    +0.000 OA
ATOM     29  C8  UNL     1      69.117  76.590 104.519  0.00  0.00    +0.000 C 
ENDBRANCH  22  28
ENDBRANCH   1  20
BRANCH   8  30
ATOM     30  O6  UNL     1      71.183  68.542 107.390  0.00  0.00    +0.000 OA
BRANCH  30  31
ATOM     31  C15 UNL     1      71.373  67.191 106.990  0.00  0.00    +0.000 C 
ATOM     32  O7  UNL     1      72.719  66.804 107.213  0.00  0.00    +0.000 OA
ATOM     33  C16 UNL     1      73.097  66.639 108.576  0.00  0.00    +0.000 C 
ATOM     34  C17 UNL     1      73.534  67.942 109.260  0.00  0.00    +0.000 C 
ATOM     35  O8  UNL     1      74.082  67.738 110.561  0.00  0.00    +0.000 OA
ATOM     36  C18 UNL     1      73.690  66.497 111.145  0.00  0.00    +0.000 C 
ATOM     37  O9  UNL     1      72.329  66.189 110.883  0.00  0.00    +0.000 OA
ATOM     38  C19 UNL     1      72.107  65.884 109.509  0.00  0.00    +0.000 C 
ATOM     39  C20 UNL     1      70.634  66.198 109.201  0.00  0.00    +0.000 C 
ATOM     40  C21 UNL     1      70.372  66.249 107.692  0.00  0.00    +0.000 C 
BRANCH  36  41
ATOM     41  C22 UNL     1      73.879  66.584 112.626  0.00  0.00    +0.000 A 
ATOM     42  C23 UNL     1      73.043  66.033 113.588  0.00  0.00    +0.000 A 
ATOM     43  C24 UNL     1      73.462  66.292 114.900  0.00  0.00    +0.000 A 
ATOM     44  C25 UNL     1      74.623  67.052 114.976  0.00  0.00    +0.000 A 
ATOM     45  S1  UNL     1      75.125  67.405 113.409  0.00  0.00    +0.000 S 
ENDBRANCH  36  41
BRANCH  39  46
ATOM     46  O10 UNL     1      70.281  67.428 109.781  0.00  0.00    +0.000 OA
ATOM     47  H23 UNL     1      70.335  67.315 110.771  0.00  0.00    +0.000 HD
ENDBRANCH  39  46
BRANCH  40  48
ATOM     48  O11 UNL     1      70.392  64.961 107.125  0.00  0.00    +0.000 OA
ATOM     49  H25 UNL     1      71.063  64.956 106.395  0.00  0.00    +0.000 HD
ENDBRANCH  40  48
ENDBRANCH  30  31
ENDBRANCH   8  30
TORSDOF 9
ENDMDL
MODEL 4
REMARK VINA RESULT:      -8.0      5.129      9.871
REMARK  Name = ./S1787.pdb
REMARK  11 active torsions:
REMARK  status: ('A' for Active; 'I' for Inactive)
REMARK    1  A    between atoms: C1_1  and  O1_2
REMARK    2  A    between atoms: O1_2  and  C2_3
REMARK    3  A    between atoms: C4_5  and  C9_12
REMARK    4  A    between atoms: C6_7  and  O3_10
REMARK    5  A    between atoms: C7_8  and  O2_9
REMARK    6  A    between atoms: O3_10  and  C8_11
REMARK    7  A    between atoms: C14_19  and  O6_20
REMARK    8  A    between atoms: O6_20  and  C15_21
REMARK    9  A    between atoms: C18_26  and  C22_33
REMARK   10  A    between atoms: C20_29  and  O10_30
REMARK   11  A    between atoms: C21_31  and  O11_32
REMARK                            x       y       z     vdW  Elec       q    Type
REMARK                         _______ _______ _______ _____ _____    ______ ____
ROOT
ATOM      1  C9  UNL     1      71.717  63.269 104.761  0.00  0.00    +0.000 C 
ATOM      2  C10 UNL     1      71.446  62.349 106.015  0.00  0.00    +0.000 C 
ATOM      3  C11 UNL     1      72.420  62.530 107.205  0.00  0.00    +0.000 C 
ATOM      4  C12 UNL     1      73.437  61.370 107.090  0.00  0.00    +0.000 C 
ATOM      5  O4  UNL     1      72.755  60.369 106.361  0.00  0.00    +0.000 OA
ATOM      6  C13 UNL     1      71.627  60.889 105.760  0.00  0.00    +0.000 C 
ATOM      7  O5  UNL     1      70.805  60.175 105.125  0.00  0.00    +0.000 OA
ATOM      8  C14 UNL     1      73.077  63.909 107.301  0.00  0.00    +0.000 C 
ATOM      9  C26 UNL     1      73.720  64.284 105.994  0.00  0.00    +0.000 A 
ATOM     10  C27 UNL     1      74.942  64.993 106.002  0.00  0.00    +0.000 A 
ATOM     11  C28 UNL     1      75.453  65.437 104.791  0.00  0.00    +0.000 A 
ATOM     12  C29 UNL     1      74.803  65.228 103.621  0.00  0.00    +0.000 A 
ATOM     13  O12 UNL     1      75.515  65.806 102.589  0.00  0.00    +0.000 OA
ATOM     14  C30 UNL     1      76.689  66.409 103.147  0.00  0.00    +0.000 C 
ATOM     15  O13 UNL     1      76.612  66.145 104.554  0.00  0.00    +0.000 OA
ATOM     16  C31 UNL     1      73.596  64.537 103.562  0.00  0.00    +0.000 A 
ATOM     17  C32 UNL     1      73.061  63.999 104.764  0.00  0.00    +0.000 A 
ENDROOT
BRANCH   1  20
ATOM     18  C2  UNL     1      72.305  61.271 101.533  0.00  0.00    +0.000 A 
ATOM     19  C3  UNL     1      72.506  61.865 102.794  0.00  0.00    +0.000 A 
ATOM     20  C4  UNL     1      71.455  62.524 103.453  0.00  0.00    +0.000 A 
ATOM     21  C5  UNL     1      70.195  62.589 102.831  0.00  0.00    +0.000 A 
ATOM     22  C6  UNL     1      69.976  61.992 101.576  0.00  0.00    +0.000 A 
ATOM     23  C7  UNL     1      71.039  61.335 100.930  0.00  0.00    +0.000 A 
BRANCH  18  25
ATOM     24  C1  UNL     1      74.311  61.262 100.028  0.00  0.00    +0.000 C 
ATOM     25  O1  UNL     1      73.333  60.612 100.839  0.00  0.00    +0.000 OA
ENDBRANCH  18  25
BRANCH  23  26
ATOM     26  O2  UNL     1      70.859  60.744  99.678  0.00  0.00    +0.000 OA
ATOM     27  H6  UNL     1      70.281  59.923  99.546  0.00  0.00    +0.000 HD
ENDBRANCH  23  26
BRANCH  22  28
ATOM     28  O3  UNL     1      68.726  62.047 100.939  0.00  0.00    +0.000 OA
ATOM     29  C8  UNL     1      67.968  60.906 100.543  0.00  0.00    +0.000 C 
ENDBRANCH  22  28
ENDBRANCH   1  20
BRANCH   8  30
ATOM     30  O6  UNL     1      72.084  64.873 107.621  0.00  0.00    +0.000 OA
BRANCH  30  31
ATOM     31  C15 UNL     1      72.437  65.656 108.754  0.00  0.00    +0.000 C 
ATOM     32  O7  UNL     1      73.174  66.796 108.343  0.00  0.00    +0.000 OA
ATOM     33  C16 UNL     1      72.430  67.800 107.660  0.00  0.00    +0.000 C 
ATOM     34  C17 UNL     1      72.293  67.552 106.151  0.00  0.00    +0.000 C 
ATOM     35  O8  UNL     1      71.708  68.648 105.451  0.00  0.00    +0.000 OA
ATOM     36  C18 UNL     1      70.953  69.513 106.297  0.00  0.00    +0.000 C 
ATOM     37  O9  UNL     1      70.201  68.794 107.262  0.00  0.00    +0.000 OA
ATOM     38  C19 UNL     1      71.036  68.178 108.238  0.00  0.00    +0.000 C 
ATOM     39  C20 UNL     1      70.271  66.970 108.801  0.00  0.00    +0.000 C 
ATOM     40  C21 UNL     1      71.196  66.034 109.588  0.00  0.00    +0.000 C 
BRANCH  36  41
ATOM     41  C22 UNL     1      70.006  70.303 105.450  0.00  0.00    +0.000 A 
ATOM     42  C23 UNL     1      70.021  70.378 104.064  0.00  0.00    +0.000 A 
ATOM     43  C24 UNL     1      69.022  71.213 103.545  0.00  0.00    +0.000 A 
ATOM     44  C25 UNL     1      68.223  71.801 104.517  0.00  0.00    +0.000 A 
ATOM     45  S1  UNL     1      68.763  71.286 106.025  0.00  0.00    +0.000 S 
ENDBRANCH  36  41
BRANCH  39  46
ATOM     46  O10 UNL     1      69.669  66.259 107.750  0.00  0.00    +0.000 OA
ATOM     47  H23 UNL     1      69.751  65.288 107.964  0.00  0.00    +0.000 HD
ENDBRANCH  39  46
BRANCH  40  48
ATOM     48  O11 UNL     1      71.558  66.595 110.827  0.00  0.00    +0.000 OA
ATOM     49  H25 UNL     1      72.220  67.314 110.657  0.00  0.00    +0.000 HD
ENDBRANCH  40  48
ENDBRANCH  30  31
ENDBRANCH   8  30
TORSDOF 9
ENDMDL
MODEL 5
REMARK VINA RESULT:      -7.9      6.732     11.334
REMARK  Name = ./S1787.pdb
REMARK  11 active torsions:
REMARK  status: ('A' for Active; 'I' for Inactive)
REMARK    1  A    between atoms: C1_1  and  O1_2
REMARK    2  A    between atoms: O1_2  and  C2_3
REMARK    3  A    between atoms: C4_5  and  C9_12
REMARK    4  A    between atoms: C6_7  and  O3_10
REMARK    5  A    between atoms: C7_8  and  O2_9
REMARK    6  A    between atoms: O3_10  and  C8_11
REMARK    7  A    between atoms: C14_19  and  O6_20
REMARK    8  A    between atoms: O6_20  and  C15_21
REMARK    9  A    between atoms: C18_26  and  C22_33
REMARK   10  A    between atoms: C20_29  and  O10_30
REMARK   11  A    between atoms: C21_31  and  O11_32
REMARK                            x       y       z     vdW  Elec       q    Type
REMARK                         _______ _______ _______ _____ _____    ______ ____
ROOT
ATOM      1  C9  UNL     1      73.357  63.687 106.278  0.00  0.00    +0.000 C 
ATOM      2  C10 UNL     1      74.722  64.454 106.074  0.00  0.00    +0.000 C 
ATOM      3  C11 UNL     1      75.975  63.560 105.900  0.00  0.00    +0.000 C 
ATOM      4  C12 UNL     1      76.667  63.541 107.283  0.00  0.00    +0.000 C 
ATOM      5  O4  UNL     1      76.235  64.730 107.915  0.00  0.00    +0.000 OA
ATOM      6  C13 UNL     1      75.154  65.268 107.248  0.00  0.00    +0.000 C 
ATOM      7  O5  UNL     1      74.642  66.375 107.567  0.00  0.00    +0.000 OA
ATOM      8  C14 UNL     1      75.702  62.164 105.335  0.00  0.00    +0.000 C 
ATOM      9  C26 UNL     1      74.630  61.469 106.129  0.00  0.00    +0.000 A 
ATOM     10  C27 UNL     1      74.733  60.080 106.362  0.00  0.00    +0.000 A 
ATOM     11  C28 UNL     1      73.673  59.438 106.987  0.00  0.00    +0.000 A 
ATOM     12  C29 UNL     1      72.550  60.102 107.353  0.00  0.00    +0.000 A 
ATOM     13  O12 UNL     1      71.653  59.215 107.914  0.00  0.00    +0.000 OA
ATOM     14  C30 UNL     1      72.254  57.914 107.906  0.00  0.00    +0.000 C 
ATOM     15  O13 UNL     1      73.546  58.103 107.311  0.00  0.00    +0.000 OA
ATOM     16  C31 UNL     1      72.402  61.469 107.143  0.00  0.00    +0.000 A 
ATOM     17  C32 UNL     1      73.484  62.191 106.569  0.00  0.00    +0.000 A 
ENDROOT
BRANCH   1  20
ATOM     18  C2  UNL     1      70.967  66.270 107.820  0.00  0.00    +0.000 A 
ATOM     19  C3  UNL     1      71.712  65.530 106.882  0.00  0.00    +0.000 A 
ATOM     20  C4  UNL     1      72.456  64.407 107.280  0.00  0.00    +0.000 A 
ATOM     21  C5  UNL     1      72.452  64.034 108.637  0.00  0.00    +0.000 A 
ATOM     22  C6  UNL     1      71.705  64.757 109.584  0.00  0.00    +0.000 A 
ATOM     23  C7  UNL     1      70.965  65.879 109.168  0.00  0.00    +0.000 A 
BRANCH  18  25
ATOM     24  C1  UNL     1      70.736  68.521 106.737  0.00  0.00    +0.000 C 
ATOM     25  O1  UNL     1      70.221  67.405 107.461  0.00  0.00    +0.000 OA
ENDBRANCH  18  25
BRANCH  23  26
ATOM     26  O2  UNL     1      70.224  66.628 110.085  0.00  0.00    +0.000 OA
ATOM     27  H6  UNL     1      70.630  66.993 110.938  0.00  0.00    +0.000 HD
ENDBRANCH  23  26
BRANCH  22  28
ATOM     28  O3  UNL     1      71.689  64.401 110.942  0.00  0.00    +0.000 OA
ATOM     29  C8  UNL     1      72.624  64.867 111.912  0.00  0.00    +0.000 C 
ENDBRANCH  22  28
ENDBRANCH   1  20
BRANCH   8  30
ATOM     30  O6  UNL     1      75.274  62.287 103.987  0.00  0.00    +0.000 OA
BRANCH  30  31
ATOM     31  C15 UNL     1      76.061  61.505 103.097  0.00  0.00    +0.000 C 
ATOM     32  O7  UNL     1      75.474  60.225 102.928  0.00  0.00    +0.000 OA
ATOM     33  C16 UNL     1      74.268  60.193 102.170  0.00  0.00    +0.000 C 
ATOM     34  C17 UNL     1      73.007  60.478 102.999  0.00  0.00    +0.000 C 
ATOM     35  O8  UNL     1      71.797  60.265 102.274  0.00  0.00    +0.000 OA
ATOM     36  C18 UNL     1      71.978  60.305 100.860  0.00  0.00    +0.000 C 
ATOM     37  O9  UNL     1      72.881  61.326 100.465  0.00  0.00    +0.000 OA
ATOM     38  C19 UNL     1      74.218  61.041 100.866  0.00  0.00    +0.000 C 
ATOM     39  C20 UNL     1      74.956  62.383 100.992  0.00  0.00    +0.000 C 
ATOM     40  C21 UNL     1      76.279  62.229 101.752  0.00  0.00    +0.000 C 
BRANCH  36  41
ATOM     41  C22 UNL     1      70.654  60.568 100.216  0.00  0.00    +0.000 A 
ATOM     42  C23 UNL     1      69.482  60.914 100.874  0.00  0.00    +0.000 A 
ATOM     43  C24 UNL     1      68.391  61.080 100.011  0.00  0.00    +0.000 A 
ATOM     44  C25 UNL     1      68.696  60.860  98.674  0.00  0.00    +0.000 A 
ATOM     45  S1  UNL     1      70.326  60.454  98.567  0.00  0.00    +0.000 S 
ENDBRANCH  36  41
BRANCH  39  46
ATOM     46  O10 UNL     1      74.139  63.312 101.656  0.00  0.00    +0.000 OA
ATOM     47  H23 UNL     1      74.068  64.116 101.070  0.00  0.00    +0.000 HD
ENDBRANCH  39  46
BRANCH  40  48
ATOM     48  O11 UNL     1      77.248  61.577 100.967  0.00  0.00    +0.000 OA
ATOM     49  H25 UNL     1      76.887  60.691 100.706  0.00  0.00    +0.000 HD
ENDBRANCH  40  48
ENDBRANCH  30  31
ENDBRANCH   8  30
TORSDOF 9
ENDMDL
MODEL 6
REMARK VINA RESULT:      -7.8      6.754     11.419
REMARK  Name = ./S1787.pdb
REMARK  11 active torsions:
REMARK  status: ('A' for Active; 'I' for Inactive)
REMARK    1  A    between atoms: C1_1  and  O1_2
REMARK    2  A    between atoms: O1_2  and  C2_3
REMARK    3  A    between atoms: C4_5  and  C9_12
REMARK    4  A    between atoms: C6_7  and  O3_10
REMARK    5  A    between atoms: C7_8  and  O2_9
REMARK    6  A    between atoms: O3_10  and  C8_11
REMARK    7  A    between atoms: C14_19  and  O6_20
REMARK    8  A    between atoms: O6_20  and  C15_21
REMARK    9  A    between atoms: C18_26  and  C22_33
REMARK   10  A    between atoms: C20_29  and  O10_30
REMARK   11  A    between atoms: C21_31  and  O11_32
REMARK                            x       y       z     vdW  Elec       q    Type
REMARK                         _______ _______ _______ _____ _____    ______ ____
ROOT
ATOM      1  C9  UNL     1      73.584  63.741 106.261  0.00  0.00    +0.000 C 
ATOM      2  C10 UNL     1      74.957  64.465 105.974  0.00  0.00    +0.000 C 
ATOM      3  C11 UNL     1      76.177  63.535 105.766  0.00  0.00    +0.000 C 
ATOM      4  C12 UNL     1      76.933  63.530 107.116  0.00  0.00    +0.000 C 
ATOM      5  O4  UNL     1      76.562  64.746 107.735  0.00  0.00    +0.000 OA
ATOM      6  C13 UNL     1      75.465  65.296 107.105  0.00  0.00    +0.000 C 
ATOM      7  O5  UNL     1      74.997  66.425 107.419  0.00  0.00    +0.000 OA
ATOM      8  C14 UNL     1      75.843  62.133 105.251  0.00  0.00    +0.000 C 
ATOM      9  C26 UNL     1      74.792  61.487 106.112  0.00  0.00    +0.000 A 
ATOM     10  C27 UNL     1      74.870  60.101 106.375  0.00  0.00    +0.000 A 
ATOM     11  C28 UNL     1      73.824  59.503 107.065  0.00  0.00    +0.000 A 
ATOM     12  C29 UNL     1      72.737  60.206 107.465  0.00  0.00    +0.000 A 
ATOM     13  O12 UNL     1      71.845  59.358 108.090  0.00  0.00    +0.000 OA
ATOM     14  C30 UNL     1      72.412  58.042 108.088  0.00  0.00    +0.000 C 
ATOM     15  O13 UNL     1      73.678  58.181 107.429  0.00  0.00    +0.000 OA
ATOM     16  C31 UNL     1      72.614  61.572 107.227  0.00  0.00    +0.000 A 
ATOM     17  C32 UNL     1      73.687  62.250 106.585  0.00  0.00    +0.000 A 
ENDROOT
BRANCH   1  20
ATOM     18  C2  UNL     1      71.866  64.719 109.556  0.00  0.00    +0.000 A 
ATOM     19  C3  UNL     1      72.717  64.090 108.626  0.00  0.00    +0.000 A 
ATOM     20  C4  UNL     1      72.750  64.509 107.285  0.00  0.00    +0.000 A 
ATOM     21  C5  UNL     1      71.912  65.565 106.881  0.00  0.00    +0.000 A 
ATOM     22  C6  UNL     1      71.065  66.208 107.800  0.00  0.00    +0.000 A 
ATOM     23  C7  UNL     1      71.044  65.777 109.138  0.00  0.00    +0.000 A 
BRANCH  18  25
ATOM     24  C1  UNL     1      72.622  64.839 111.944  0.00  0.00    +0.000 C 
ATOM     25  O1  UNL     1      71.798  64.321 110.901  0.00  0.00    +0.000 OA
ENDBRANCH  18  25
BRANCH  23  26
ATOM     26  O2  UNL     1      70.204  66.386 110.073  0.00  0.00    +0.000 OA
ATOM     27  H6  UNL     1      70.382  66.344 111.069  0.00  0.00    +0.000 HD
ENDBRANCH  23  26
BRANCH  22  28
ATOM     28  O3  UNL     1      70.221  67.263 107.414  0.00  0.00    +0.000 OA
ATOM     29  C8  UNL     1      70.599  68.638 107.399  0.00  0.00    +0.000 C 
ENDBRANCH  22  28
ENDBRANCH   1  20
BRANCH   8  30
ATOM     30  O6  UNL     1      75.355  62.233 103.921  0.00  0.00    +0.000 OA
BRANCH  30  31
ATOM     31  C15 UNL     1      76.110  61.447 103.008  0.00  0.00    +0.000 C 
ATOM     32  O7  UNL     1      75.504  60.174 102.850  0.00  0.00    +0.000 OA
ATOM     33  C16 UNL     1      74.279  60.157 102.125  0.00  0.00    +0.000 C 
ATOM     34  C17 UNL     1      73.043  60.452 102.988  0.00  0.00    +0.000 C 
ATOM     35  O8  UNL     1      71.813  60.254 102.295  0.00  0.00    +0.000 OA
ATOM     36  C18 UNL     1      71.956  60.298 100.877  0.00  0.00    +0.000 C 
ATOM     37  O9  UNL     1      72.859  61.311 100.461  0.00  0.00    +0.000 OA
ATOM     38  C19 UNL     1      74.203  61.010 100.825  0.00  0.00    +0.000 C 
ATOM     39  C20 UNL     1      74.959  62.344 100.936  0.00  0.00    +0.000 C 
ATOM     40  C21 UNL     1      76.299  62.173 101.660  0.00  0.00    +0.000 C 
BRANCH  36  41
ATOM     41  C22 UNL     1      70.618  60.577 100.269  0.00  0.00    +0.000 A 
ATOM     42  C23 UNL     1      69.469  60.937 100.960  0.00  0.00    +0.000 A 
ATOM     43  C24 UNL     1      68.356  61.116 100.127  0.00  0.00    +0.000 A 
ATOM     44  C25 UNL     1      68.622  60.892  98.782  0.00  0.00    +0.000 A 
ATOM     45  S1  UNL     1      70.243  60.466  98.630  0.00  0.00    +0.000 S 
ENDBRANCH  36  41
BRANCH  39  46
ATOM     46  O10 UNL     1      74.169  63.279 101.625  0.00  0.00    +0.000 OA
ATOM     47  H23 UNL     1      73.281  62.854 101.788  0.00  0.00    +0.000 HD
ENDBRANCH  39  46
BRANCH  40  48
ATOM     48  O11 UNL     1      77.240  61.513 100.847  0.00  0.00    +0.000 OA
ATOM     49  H25 UNL     1      77.686  60.818 101.395  0.00  0.00    +0.000 HD
ENDBRANCH  40  48
ENDBRANCH  30  31
ENDBRANCH   8  30
TORSDOF 9
ENDMDL
MODEL 7
REMARK VINA RESULT:      -7.8      6.241     11.760
REMARK  Name = ./S1787.pdb
REMARK  11 active torsions:
REMARK  status: ('A' for Active; 'I' for Inactive)
REMARK    1  A    between atoms: C1_1  and  O1_2
REMARK    2  A    between atoms: O1_2  and  C2_3
REMARK    3  A    between atoms: C4_5  and  C9_12
REMARK    4  A    between atoms: C6_7  and  O3_10
REMARK    5  A    between atoms: C7_8  and  O2_9
REMARK    6  A    between atoms: O3_10  and  C8_11
REMARK    7  A    between atoms: C14_19  and  O6_20
REMARK    8  A    between atoms: O6_20  and  C15_21
REMARK    9  A    between atoms: C18_26  and  C22_33
REMARK   10  A    between atoms: C20_29  and  O10_30
REMARK   11  A    between atoms: C21_31  and  O11_32
REMARK                            x       y       z     vdW  Elec       q    Type
REMARK                         _______ _______ _______ _____ _____    ______ ____
ROOT
ATOM      1  C9  UNL     1      73.807  64.898 114.286  0.00  0.00    +0.000 C 
ATOM      2  C10 UNL     1      73.546  66.446 114.119  0.00  0.00    +0.000 C 
ATOM      3  C11 UNL     1      74.261  67.124 112.924  0.00  0.00    +0.000 C 
ATOM      4  C12 UNL     1      75.507  67.817 113.522  0.00  0.00    +0.000 C 
ATOM      5  O4  UNL     1      75.178  68.032 114.880  0.00  0.00    +0.000 OA
ATOM      6  C13 UNL     1      74.073  67.285 115.235  0.00  0.00    +0.000 C 
ATOM      7  O5  UNL     1      73.532  67.371 116.371  0.00  0.00    +0.000 OA
ATOM      8  C14 UNL     1      74.584  66.195 111.751  0.00  0.00    +0.000 C 
ATOM      9  C26 UNL     1      75.329  64.978 112.226  0.00  0.00    +0.000 A 
ATOM     10  C27 UNL     1      76.354  64.435 111.420  0.00  0.00    +0.000 A 
ATOM     11  C28 UNL     1      76.941  63.242 111.817  0.00  0.00    +0.000 A 
ATOM     12  C29 UNL     1      76.542  62.585 112.933  0.00  0.00    +0.000 A 
ATOM     13  O12 UNL     1      77.267  61.418 113.064  0.00  0.00    +0.000 OA
ATOM     14  C30 UNL     1      78.183  61.341 111.964  0.00  0.00    +0.000 C 
ATOM     15  O13 UNL     1      77.945  62.529 111.197  0.00  0.00    +0.000 OA
ATOM     16  C31 UNL     1      75.536  63.079 113.758  0.00  0.00    +0.000 A 
ATOM     17  C32 UNL     1      74.947  64.333 113.437  0.00  0.00    +0.000 A 
ENDROOT
BRANCH   1  20
ATOM     18  C2  UNL     1      72.843  63.861 117.857  0.00  0.00    +0.000 A 
ATOM     19  C3  UNL     1      72.775  64.116 116.474  0.00  0.00    +0.000 A 
ATOM     20  C4  UNL     1      73.919  64.506 115.758  0.00  0.00    +0.000 A 
ATOM     21  C5  UNL     1      75.138  64.646 116.446  0.00  0.00    +0.000 A 
ATOM     22  C6  UNL     1      75.224  64.385 117.826  0.00  0.00    +0.000 A 
ATOM     23  C7  UNL     1      74.069  63.995 118.527  0.00  0.00    +0.000 A 
BRANCH  18  25
ATOM     24  C1  UNL     1      70.779  64.388 119.181  0.00  0.00    +0.000 C 
ATOM     25  O1  UNL     1      71.718  63.480 118.608  0.00  0.00    +0.000 OA
ENDBRANCH  18  25
BRANCH  23  26
ATOM     26  O2  UNL     1      74.117  63.742 119.900  0.00  0.00    +0.000 OA
ATOM     27  H6  UNL     1      74.977  63.496 120.374  0.00  0.00    +0.000 HD
ENDBRANCH  23  26
BRANCH  22  28
ATOM     28  O3  UNL     1      76.432  64.520 118.530  0.00  0.00    +0.000 OA
ATOM     29  C8  UNL     1      77.590  63.716 118.313  0.00  0.00    +0.000 C 
ENDBRANCH  22  28
ENDBRANCH   1  20
BRANCH   8  30
ATOM     30  O6  UNL     1      73.370  65.785 111.138  0.00  0.00    +0.000 OA
BRANCH  30  31
ATOM     31  C15 UNL     1      72.998  66.631 110.058  0.00  0.00    +0.000 C 
ATOM     32  O7  UNL     1      73.723  66.276 108.892  0.00  0.00    +0.000 OA
ATOM     33  C16 UNL     1      73.351  65.043 108.284  0.00  0.00    +0.000 C 
ATOM     34  C17 UNL     1      74.050  63.817 108.891  0.00  0.00    +0.000 C 
ATOM     35  O8  UNL     1      73.813  62.615 108.161  0.00  0.00    +0.000 OA
ATOM     36  C18 UNL     1      72.644  62.678 107.345  0.00  0.00    +0.000 C 
ATOM     37  O9  UNL     1      71.574  63.347 107.994  0.00  0.00    +0.000 OA
ATOM     38  C19 UNL     1      71.830  64.740 108.147  0.00  0.00    +0.000 C 
ATOM     39  C20 UNL     1      71.009  65.229 109.350  0.00  0.00    +0.000 C 
ATOM     40  C21 UNL     1      71.473  66.611 109.825  0.00  0.00    +0.000 C 
BRANCH  36  41
ATOM     41  C22 UNL     1      72.207  61.283 107.026  0.00  0.00    +0.000 A 
ATOM     42  C23 UNL     1      71.258  60.923 106.079  0.00  0.00    +0.000 A 
ATOM     43  C24 UNL     1      71.040  59.541 106.013  0.00  0.00    +0.000 A 
ATOM     44  C25 UNL     1      71.808  58.809 106.909  0.00  0.00    +0.000 A 
ATOM     45  S1  UNL     1      72.759  59.885 107.788  0.00  0.00    +0.000 S 
ENDBRANCH  36  41
BRANCH  39  46
ATOM     46  O10 UNL     1      71.121  64.309 110.405  0.00  0.00    +0.000 OA
ATOM     47  H23 UNL     1      70.743  64.745 111.220  0.00  0.00    +0.000 HD
ENDBRANCH  39  46
BRANCH  40  48
ATOM     48  O11 UNL     1      71.075  67.621 108.928  0.00  0.00    +0.000 OA
ATOM     49  H25 UNL     1      71.879  68.145 108.679  0.00  0.00    +0.000 HD
ENDBRANCH  40  48
ENDBRANCH  30  31
ENDBRANCH   8  30
TORSDOF 9
ENDMDL
MODEL 8
REMARK VINA RESULT:      -7.7     13.506     17.127
REMARK  Name = ./S1787.pdb
REMARK  11 active torsions:
REMARK  status: ('A' for Active; 'I' for Inactive)
REMARK    1  A    between atoms: C1_1  and  O1_2
REMARK    2  A    between atoms: O1_2  and  C2_3
REMARK    3  A    between atoms: C4_5  and  C9_12
REMARK    4  A    between atoms: C6_7  and  O3_10
REMARK    5  A    between atoms: C7_8  and  O2_9
REMARK    6  A    between atoms: O3_10  and  C8_11
REMARK    7  A    between atoms: C14_19  and  O6_20
REMARK    8  A    between atoms: O6_20  and  C15_21
REMARK    9  A    between atoms: C18_26  and  C22_33
REMARK   10  A    between atoms: C20_29  and  O10_30
REMARK   11  A    between atoms: C21_31  and  O11_32
REMARK                            x       y       z     vdW  Elec       q    Type
REMARK                         _______ _______ _______ _____ _____    ______ ____
ROOT
ATOM      1  C9  UNL     1      63.332  56.466 104.192  0.00  0.00    +0.000 C 
ATOM      2  C10 UNL     1      63.472  58.039 104.152  0.00  0.00    +0.000 C 
ATOM      3  C11 UNL     1      62.455  58.826 105.014  0.00  0.00    +0.000 C 
ATOM      4  C12 UNL     1      61.362  59.310 104.032  0.00  0.00    +0.000 C 
ATOM      5  O4  UNL     1      62.005  59.343 102.773  0.00  0.00    +0.000 OA
ATOM      6  C13 UNL     1      63.197  58.649 102.818  0.00  0.00    +0.000 C 
ATOM      7  O5  UNL     1      63.995  58.607 101.843  0.00  0.00    +0.000 OA
ATOM      8  C14 UNL     1      61.897  58.063 106.218  0.00  0.00    +0.000 C 
ATOM      9  C26 UNL     1      61.349  56.728 105.793  0.00  0.00    +0.000 A 
ATOM     10  C27 UNL     1      60.184  56.228 106.416  0.00  0.00    +0.000 A 
ATOM     11  C28 UNL     1      59.769  54.942 106.099  0.00  0.00    +0.000 A 
ATOM     12  C29 UNL     1      60.460  54.160 105.235  0.00  0.00    +0.000 A 
ATOM     13  O12 UNL     1      59.845  52.928 105.136  0.00  0.00    +0.000 OA
ATOM     14  C30 UNL     1      58.692  52.941 105.987  0.00  0.00    +0.000 C 
ATOM     15  O13 UNL     1      58.677  54.248 106.577  0.00  0.00    +0.000 OA
ATOM     16  C31 UNL     1      61.614  54.607 104.599  0.00  0.00    +0.000 A 
ATOM     17  C32 UNL     1      62.047  55.941 104.833  0.00  0.00    +0.000 A 
ENDROOT
BRANCH   1  20
ATOM     18  C2  UNL     1      65.196  55.040 101.151  0.00  0.00    +0.000 A 
ATOM     19  C3  UNL     1      64.915  55.507 102.449  0.00  0.00    +0.000 A 
ATOM     20  C4  UNL     1      63.604  55.846 102.823  0.00  0.00    +0.000 A 
ATOM     21  C5  UNL     1      62.572  55.720 101.875  0.00  0.00    +0.000 A 
ATOM     22  C6  UNL     1      62.835  55.246 100.578  0.00  0.00    +0.000 A 
ATOM     23  C7  UNL     1      64.153  54.910 100.220  0.00  0.00    +0.000 A 
BRANCH  18  25
ATOM     24  C1  UNL     1      67.625  55.567 100.820  0.00  0.00    +0.000 C 
ATOM     25  O1  UNL     1      66.495  54.701 100.737  0.00  0.00    +0.000 OA
ENDBRANCH  18  25
BRANCH  23  26
ATOM     26  O2  UNL     1      64.450  54.450  98.936  0.00  0.00    +0.000 OA
ATOM     27  H6  UNL     1      65.356  54.066  98.695  0.00  0.00    +0.000 HD
ENDBRANCH  23  26
BRANCH  22  28
ATOM     28  O3  UNL     1      61.817  55.114  99.618  0.00  0.00    +0.000 OA
ATOM     29  C8  UNL     1      60.924  54.006  99.534  0.00  0.00    +0.000 C 
ENDBRANCH  22  28
ENDBRANCH   1  20
BRANCH   8  30
ATOM     30  O6  UNL     1      62.941  57.857 107.159  0.00  0.00    +0.000 OA
BRANCH  30  31
ATOM     31  C15 UNL     1      63.776  58.999 107.297  0.00  0.00    +0.000 C 
ATOM     32  O7  UNL     1      63.069  60.040 107.950  0.00  0.00    +0.000 OA
ATOM     33  C16 UNL     1      62.815  59.840 109.337  0.00  0.00    +0.000 C 
ATOM     34  C17 UNL     1      61.545  59.025 109.623  0.00  0.00    +0.000 C 
ATOM     35  O8  UNL     1      61.202  58.986 111.007  0.00  0.00    +0.000 OA
ATOM     36  C18 UNL     1      62.304  59.275 111.865  0.00  0.00    +0.000 C 
ATOM     37  O9  UNL     1      63.509  58.680 111.408  0.00  0.00    +0.000 OA
ATOM     38  C19 UNL     1      63.980  59.284 110.207  0.00  0.00    +0.000 C 
ATOM     39  C20 UNL     1      64.834  58.240 109.471  0.00  0.00    +0.000 C 
ATOM     40  C21 UNL     1      65.095  58.650 108.017  0.00  0.00    +0.000 C 
BRANCH  36  41
ATOM     41  C22 UNL     1      62.001  58.741 113.230  0.00  0.00    +0.000 A 
ATOM     42  C23 UNL     1      61.015  57.815 113.542  0.00  0.00    +0.000 A 
ATOM     43  C24 UNL     1      60.949  57.516 114.909  0.00  0.00    +0.000 A 
ATOM     44  C25 UNL     1      61.877  58.209 115.678  0.00  0.00    +0.000 A 
ATOM     45  S1  UNL     1      62.776  59.197 114.655  0.00  0.00    +0.000 S 
ENDBRANCH  36  41
BRANCH  39  46
ATOM     46  O10 UNL     1      64.187  56.995 109.498  0.00  0.00    +0.000 OA
ATOM     47  H23 UNL     1      64.298  56.623 110.418  0.00  0.00    +0.000 HD
ENDBRANCH  39  46
BRANCH  40  48
ATOM     48  O11 UNL     1      66.020  59.708 107.940  0.00  0.00    +0.000 OA
ATOM     49  H25 UNL     1      66.663  59.503 107.214  0.00  0.00    +0.000 HD
ENDBRANCH  40  48
ENDBRANCH  30  31
ENDBRANCH   8  30
TORSDOF 9
ENDMDL
MODEL 9
REMARK VINA RESULT:      -7.7      5.536     11.410
REMARK  Name = ./S1787.pdb
REMARK  11 active torsions:
REMARK  status: ('A' for Active; 'I' for Inactive)
REMARK    1  A    between atoms: C1_1  and  O1_2
REMARK    2  A    between atoms: O1_2  and  C2_3
REMARK    3  A    between atoms: C4_5  and  C9_12
REMARK    4  A    between atoms: C6_7  and  O3_10
REMARK    5  A    between atoms: C7_8  and  O2_9
REMARK    6  A    between atoms: O3_10  and  C8_11
REMARK    7  A    between atoms: C14_19  and  O6_20
REMARK    8  A    between atoms: O6_20  and  C15_21
REMARK    9  A    between atoms: C18_26  and  C22_33
REMARK   10  A    between atoms: C20_29  and  O10_30
REMARK   11  A    between atoms: C21_31  and  O11_32
REMARK                            x       y       z     vdW  Elec       q    Type
REMARK                         _______ _______ _______ _____ _____    ______ ____
ROOT
ATOM      1  C9  UNL     1      73.488  61.940 107.017  0.00  0.00    +0.000 C 
ATOM      2  C10 UNL     1      73.542  62.091 108.587  0.00  0.00    +0.000 C 
ATOM      3  C11 UNL     1      74.297  63.335 109.117  0.00  0.00    +0.000 C 
ATOM      4  C12 UNL     1      75.699  62.829 109.530  0.00  0.00    +0.000 C 
ATOM      5  O4  UNL     1      75.516  61.451 109.791  0.00  0.00    +0.000 OA
ATOM      6  C13 UNL     1      74.309  61.017 109.285  0.00  0.00    +0.000 C 
ATOM      7  O5  UNL     1      73.878  59.846 109.467  0.00  0.00    +0.000 OA
ATOM      8  C14 UNL     1      74.338  64.526 108.156  0.00  0.00    +0.000 C 
ATOM      9  C26 UNL     1      74.846  64.102 106.805  0.00  0.00    +0.000 A 
ATOM     10  C27 UNL     1      75.677  64.978 106.073  0.00  0.00    +0.000 A 
ATOM     11  C28 UNL     1      76.031  64.620 104.779  0.00  0.00    +0.000 A 
ATOM     12  C29 UNL     1      75.584  63.477 104.205  0.00  0.00    +0.000 A 
ATOM     13  O12 UNL     1      76.058  63.395 102.912  0.00  0.00    +0.000 OA
ATOM     14  C30 UNL     1      76.859  64.557 102.661  0.00  0.00    +0.000 C 
ATOM     15  O13 UNL     1      76.820  65.309 103.882  0.00  0.00    +0.000 OA
ATOM     16  C31 UNL     1      74.761  62.585 104.886  0.00  0.00    +0.000 A 
ATOM     17  C32 UNL     1      74.424  62.866 106.238  0.00  0.00    +0.000 A 
ENDROOT
BRANCH   1  20
ATOM     18  C2  UNL     1      75.003  58.633 105.778  0.00  0.00    +0.000 A 
ATOM     19  C3  UNL     1      74.880  59.944 106.280  0.00  0.00    +0.000 A 
ATOM     20  C4  UNL     1      73.619  60.478 106.591  0.00  0.00    +0.000 A 
ATOM     21  C5  UNL     1      72.474  59.686 106.387  0.00  0.00    +0.000 A 
ATOM     22  C6  UNL     1      72.582  58.373 105.896  0.00  0.00    +0.000 A 
ATOM     23  C7  UNL     1      73.851  57.852 105.590  0.00  0.00    +0.000 A 
BRANCH  18  25
ATOM     24  C1  UNL     1      77.194  58.658 104.560  0.00  0.00    +0.000 C 
ATOM     25  O1  UNL     1      76.245  58.068 105.446  0.00  0.00    +0.000 OA
ENDBRANCH  18  25
BRANCH  23  26
ATOM     26  O2  UNL     1      73.992  56.557 105.088  0.00  0.00    +0.000 OA
ATOM     27  H6  UNL     1      73.382  56.187 104.369  0.00  0.00    +0.000 HD
ENDBRANCH  23  26
BRANCH  22  28
ATOM     28  O3  UNL     1      71.450  57.567 105.685  0.00  0.00    +0.000 OA
ATOM     29  C8  UNL     1      70.929  56.639 106.634  0.00  0.00    +0.000 C 
ENDBRANCH  22  28
ENDBRANCH   1  20
BRANCH   8  30
ATOM     30  O6  UNL     1      73.025  65.051 108.014  0.00  0.00    +0.000 OA
BRANCH  30  31
ATOM     31  C15 UNL     1      72.546  65.639 109.216  0.00  0.00    +0.000 C 
ATOM     32  O7  UNL     1      72.938  67.001 109.278  0.00  0.00    +0.000 OA
ATOM     33  C16 UNL     1      72.272  67.878 108.375  0.00  0.00    +0.000 C 
ATOM     34  C17 UNL     1      72.910  67.932 106.979  0.00  0.00    +0.000 C 
ATOM     35  O8  UNL     1      72.351  68.944 106.143  0.00  0.00    +0.000 OA
ATOM     36  C18 UNL     1      71.052  69.359 106.561  0.00  0.00    +0.000 C 
ATOM     37  O9  UNL     1      70.256  68.268 106.997  0.00  0.00    +0.000 OA
ATOM     38  C19 UNL     1      70.732  67.716 108.221  0.00  0.00    +0.000 C 
ATOM     39  C20 UNL     1      70.274  66.250 108.274  0.00  0.00    +0.000 C 
ATOM     40  C21 UNL     1      71.020  65.465 109.360  0.00  0.00    +0.000 C 
BRANCH  36  41
ATOM     41  C22 UNL     1      70.364  70.014 105.405  0.00  0.00    +0.000 A 
ATOM     42  C23 UNL     1      69.019  70.353 105.342  0.00  0.00    +0.000 A 
ATOM     43  C24 UNL     1      68.653  70.939 104.123  0.00  0.00    +0.000 A 
ATOM     44  C25 UNL     1      69.703  71.058 103.222  0.00  0.00    +0.000 A 
ATOM     45  S1  UNL     1      71.088  70.429 103.941  0.00  0.00    +0.000 S 
ENDBRANCH  36  41
BRANCH  39  46
ATOM     46  O10 UNL     1      70.487  65.643 107.026  0.00  0.00    +0.000 OA
ATOM     47  H23 UNL     1      71.412  65.267 107.034  0.00  0.00    +0.000 HD
ENDBRANCH  39  46
BRANCH  40  48
ATOM     48  O11 UNL     1      70.579  65.826 110.647  0.00  0.00    +0.000 OA
ATOM     49  H25 UNL     1      70.991  65.204 111.299  0.00  0.00    +0.000 HD
ENDBRANCH  40  48
ENDBRANCH  30  31
ENDBRANCH   8  30
TORSDOF 9
ENDMDL
MODEL 10
REMARK VINA RESULT:      -7.7      3.720      8.841
REMARK  Name = ./S1787.pdb
REMARK  11 active torsions:
REMARK  status: ('A' for Active; 'I' for Inactive)
REMARK    1  A    between atoms: C1_1  and  O1_2
REMARK    2  A    between atoms: O1_2  and  C2_3
REMARK    3  A    between atoms: C4_5  and  C9_12
REMARK    4  A    between atoms: C6_7  and  O3_10
REMARK    5  A    between atoms: C7_8  and  O2_9
REMARK    6  A    between atoms: O3_10  and  C8_11
REMARK    7  A    between atoms: C14_19  and  O6_20
REMARK    8  A    between atoms: O6_20  and  C15_21
REMARK    9  A    between atoms: C18_26  and  C22_33
REMARK   10  A    between atoms: C20_29  and  O10_30
REMARK   11  A    between atoms: C21_31  and  O11_32
REMARK                            x       y       z     vdW  Elec       q    Type
REMARK                         _______ _______ _______ _____ _____    ______ ____
ROOT
ATOM      1  C9  UNL     1      76.111  68.569 108.591  0.00  0.00    +0.000 C 
ATOM      2  C10 UNL     1      76.646  67.741 107.359  0.00  0.00    +0.000 C 
ATOM      3  C11 UNL     1      76.524  66.202 107.479  0.00  0.00    +0.000 C 
ATOM      4  C12 UNL     1      77.926  65.703 107.898  0.00  0.00    +0.000 C 
ATOM      5  O4  UNL     1      78.811  66.711 107.449  0.00  0.00    +0.000 OA
ATOM      6  C13 UNL     1      78.116  67.859 107.128  0.00  0.00    +0.000 C 
ATOM      7  O5  UNL     1      78.673  68.870 106.621  0.00  0.00    +0.000 OA
ATOM      8  C14 UNL     1      75.403  65.711 108.398  0.00  0.00    +0.000 C 
ATOM      9  C26 UNL     1      75.496  66.367 109.748  0.00  0.00    +0.000 A 
ATOM     10  C27 UNL     1      75.184  65.619 110.904  0.00  0.00    +0.000 A 
ATOM     11  C28 UNL     1      75.154  66.278 112.126  0.00  0.00    +0.000 A 
ATOM     12  C29 UNL     1      75.394  67.607 112.227  0.00  0.00    +0.000 A 
ATOM     13  O12 UNL     1      75.262  67.999 113.544  0.00  0.00    +0.000 OA
ATOM     14  C30 UNL     1      74.926  66.841 114.318  0.00  0.00    +0.000 C 
ATOM     15  O13 UNL     1      74.874  65.763 113.374  0.00  0.00    +0.000 OA
ATOM     16  C31 UNL     1      75.703  68.386 111.117  0.00  0.00    +0.000 A 
ATOM     17  C32 UNL     1      75.815  67.752 109.849  0.00  0.00    +0.000 A 
ENDROOT
BRANCH   1  20
ATOM     18  C2  UNL     1      77.495  72.152 108.523  0.00  0.00    +0.000 A 
ATOM     19  C3  UNL     1      76.636  71.047 108.368  0.00  0.00    +0.000 A 
ATOM     20  C4  UNL     1      76.992  69.785 108.873  0.00  0.00    +0.000 A 
ATOM     21  C5  UNL     1      78.226  69.638 109.532  0.00  0.00    +0.000 A 
ATOM     22  C6  UNL     1      79.089  70.735 109.703  0.00  0.00    +0.000 A 
ATOM     23  C7  UNL     1      78.718  71.992 109.193  0.00  0.00    +0.000 A 
BRANCH  18  25
ATOM     24  C1  UNL     1      76.013  74.170 108.374  0.00  0.00    +0.000 C 
ATOM     25  O1  UNL     1      77.178  73.426 108.023  0.00  0.00    +0.000 OA
ENDBRANCH  18  25
BRANCH  23  26
ATOM     26  O2  UNL     1      79.559  73.098 109.333  0.00  0.00    +0.000 OA
ATOM     27  H6  UNL     1      79.717  73.756 108.580  0.00  0.00    +0.000 HD
ENDBRANCH  23  26
BRANCH  22  28
ATOM     28  O3  UNL     1      80.326  70.608 110.358  0.00  0.00    +0.000 OA
ATOM     29  C8  UNL     1      80.482  70.293 111.740  0.00  0.00    +0.000 C 
ENDBRANCH  22  28
ENDBRANCH   1  20
BRANCH   8  30
ATOM     30  O6  UNL     1      74.149  66.033 107.811  0.00  0.00    +0.000 OA
BRANCH  30  31
ATOM     31  C15 UNL     1      73.068  65.363 108.447  0.00  0.00    +0.000 C 
ATOM     32  O7  UNL     1      72.355  66.270 109.273  0.00  0.00    +0.000 OA
ATOM     33  C16 UNL     1      71.579  67.249 108.589  0.00  0.00    +0.000 C 
ATOM     34  C17 UNL     1      72.373  68.500 108.187  0.00  0.00    +0.000 C 
ATOM     35  O8  UNL     1      71.552  69.546 107.669  0.00  0.00    +0.000 OA
ATOM     36  C18 UNL     1      70.292  69.081 107.190  0.00  0.00    +0.000 C 
ATOM     37  O9  UNL     1      70.404  67.848 106.497  0.00  0.00    +0.000 OA
ATOM     38  C19 UNL     1      70.734  66.773 107.372  0.00  0.00    +0.000 C 
ATOM     39  C20 UNL     1      71.442  65.698 106.532  0.00  0.00    +0.000 C 
ATOM     40  C21 UNL     1      72.152  64.668 107.419  0.00  0.00    +0.000 C 
BRANCH  36  41
ATOM     41  C22 UNL     1      69.731  70.103 106.251  0.00  0.00    +0.000 A 
ATOM     42  C23 UNL     1      68.670  70.958 106.517  0.00  0.00    +0.000 A 
ATOM     43  C24 UNL     1      68.352  71.796 105.439  0.00  0.00    +0.000 A 
ATOM     44  C25 UNL     1      69.155  71.601 104.323  0.00  0.00    +0.000 A 
ATOM     45  S1  UNL     1      70.260  70.381 104.675  0.00  0.00    +0.000 S 
ENDBRANCH  36  41
BRANCH  39  46
ATOM     46  O10 UNL     1      72.377  66.305 105.678  0.00  0.00    +0.000 OA
ATOM     47  H23 UNL     1      72.587  67.203 106.059  0.00  0.00    +0.000 HD
ENDBRANCH  39  46
BRANCH  40  48
ATOM     48  O11 UNL     1      71.230  63.811 108.047  0.00  0.00    +0.000 OA
ATOM     49  H25 UNL     1      70.747  64.331 108.739  0.00  0.00    +0.000 HD
ENDBRANCH  40  48
ENDBRANCH  30  31
ENDBRANCH   8  30
TORSDOF 9
ENDMDL
MODEL 11
REMARK VINA RESULT:      -7.6      5.571     11.534
REMARK  Name = ./S1787.pdb
REMARK  11 active torsions:
REMARK  status: ('A' for Active; 'I' for Inactive)
REMARK    1  A    between atoms: C1_1  and  O1_2
REMARK    2  A    between atoms: O1_2  and  C2_3
REMARK    3  A    between atoms: C4_5  and  C9_12
REMARK    4  A    between atoms: C6_7  and  O3_10
REMARK    5  A    between atoms: C7_8  and  O2_9
REMARK    6  A    between atoms: O3_10  and  C8_11
REMARK    7  A    between atoms: C14_19  and  O6_20
REMARK    8  A    between atoms: O6_20  and  C15_21
REMARK    9  A    between atoms: C18_26  and  C22_33
REMARK   10  A    between atoms: C20_29  and  O10_30
REMARK   11  A    between atoms: C21_31  and  O11_32
REMARK                            x       y       z     vdW  Elec       q    Type
REMARK                         _______ _______ _______ _____ _____    ______ ____
ROOT
ATOM      1  C9  UNL     1      73.559  61.945 106.818  0.00  0.00    +0.000 C 
ATOM      2  C10 UNL     1      73.571  61.944 108.397  0.00  0.00    +0.000 C 
ATOM      3  C11 UNL     1      74.294  63.140 109.064  0.00  0.00    +0.000 C 
ATOM      4  C12 UNL     1      75.692  62.613 109.462  0.00  0.00    +0.000 C 
ATOM      5  O4  UNL     1      75.524  61.215 109.585  0.00  0.00    +0.000 OA
ATOM      6  C13 UNL     1      74.336  60.817 109.008  0.00  0.00    +0.000 C 
ATOM      7  O5  UNL     1      73.918  59.628 109.064  0.00  0.00    +0.000 OA
ATOM      8  C14 UNL     1      74.341  64.419 108.224  0.00  0.00    +0.000 C 
ATOM      9  C26 UNL     1      74.889  64.134 106.852  0.00  0.00    +0.000 A 
ATOM     10  C27 UNL     1      75.726  65.086 106.229  0.00  0.00    +0.000 A 
ATOM     11  C28 UNL     1      76.116  64.860 104.917  0.00  0.00    +0.000 A 
ATOM     12  C29 UNL     1      75.701  63.773 104.224  0.00  0.00    +0.000 A 
ATOM     13  O12 UNL     1      76.208  63.822 102.942  0.00  0.00    +0.000 OA
ATOM     14  C30 UNL     1      76.998  65.013 102.825  0.00  0.00    +0.000 C 
ATOM     15  O13 UNL     1      76.917  65.642 104.111  0.00  0.00    +0.000 OA
ATOM     16  C31 UNL     1      74.875  62.809 104.794  0.00  0.00    +0.000 A 
ATOM     17  C32 UNL     1      74.499  62.953 106.158  0.00  0.00    +0.000 A 
ENDROOT
BRANCH   1  20
ATOM     18  C2  UNL     1      72.744  58.367 105.679  0.00  0.00    +0.000 A 
ATOM     19  C3  UNL     1      72.598  59.707 106.087  0.00  0.00    +0.000 A 
ATOM     20  C4  UNL     1      73.721  60.533 106.257  0.00  0.00    +0.000 A 
ATOM     21  C5  UNL     1      75.001  59.999 106.021  0.00  0.00    +0.000 A 
ATOM     22  C6  UNL     1      75.163  58.666 105.603  0.00  0.00    +0.000 A 
ATOM     23  C7  UNL     1      74.028  57.853 105.437  0.00  0.00    +0.000 A 
BRANCH  18  25
ATOM     24  C1  UNL     1      71.019  56.773 106.557  0.00  0.00    +0.000 C 
ATOM     25  O1  UNL     1      71.646  57.509 105.508  0.00  0.00    +0.000 OA
ENDBRANCH  18  25
BRANCH  23  26
ATOM     26  O2  UNL     1      74.154  56.521 105.037  0.00  0.00    +0.000 OA
ATOM     27  H6  UNL     1      74.512  55.802 105.655  0.00  0.00    +0.000 HD
ENDBRANCH  23  26
BRANCH  22  28
ATOM     28  O3  UNL     1      76.432  58.115 105.363  0.00  0.00    +0.000 OA
ATOM     29  C8  UNL     1      77.298  58.509 104.300  0.00  0.00    +0.000 C 
ENDBRANCH  22  28
ENDBRANCH   1  20
BRANCH   8  30
ATOM     30  O6  UNL     1      73.025  64.939 108.098  0.00  0.00    +0.000 OA
BRANCH  30  31
ATOM     31  C15 UNL     1      72.565  65.538 109.302  0.00  0.00    +0.000 C 
ATOM     32  O7  UNL     1      72.974  66.895 109.356  0.00  0.00    +0.000 OA
ATOM     33  C16 UNL     1      72.311  67.777 108.456  0.00  0.00    +0.000 C 
ATOM     34  C17 UNL     1      72.937  67.817 107.053  0.00  0.00    +0.000 C 
ATOM     35  O8  UNL     1      72.383  68.833 106.219  0.00  0.00    +0.000 OA
ATOM     36  C18 UNL     1      71.093  69.266 106.647  0.00  0.00    +0.000 C 
ATOM     37  O9  UNL     1      70.287  68.187 107.095  0.00  0.00    +0.000 OA
ATOM     38  C19 UNL     1      70.768  67.634 108.317  0.00  0.00    +0.000 C 
ATOM     39  C20 UNL     1      70.292  66.174 108.379  0.00  0.00    +0.000 C 
ATOM     40  C21 UNL     1      71.038  65.384 109.461  0.00  0.00    +0.000 C 
BRANCH  36  41
ATOM     41  C22 UNL     1      70.403  69.926 105.495  0.00  0.00    +0.000 A 
ATOM     42  C23 UNL     1      69.068  70.305 105.453  0.00  0.00    +0.000 A 
ATOM     43  C24 UNL     1      68.696  70.884 104.233  0.00  0.00    +0.000 A 
ATOM     44  C25 UNL     1      69.731  70.958 103.309  0.00  0.00    +0.000 A 
ATOM     45  S1  UNL     1      71.110  70.298 104.011  0.00  0.00    +0.000 S 
ENDBRANCH  36  41
BRANCH  39  46
ATOM     46  O10 UNL     1      70.485  65.559 107.132  0.00  0.00    +0.000 OA
ATOM     47  H23 UNL     1      71.451  65.660 106.898  0.00  0.00    +0.000 HD
ENDBRANCH  39  46
BRANCH  40  48
ATOM     48  O11 UNL     1      70.613  65.755 110.751  0.00  0.00    +0.000 OA
ATOM     49  H25 UNL     1      71.111  65.206 111.408  0.00  0.00    +0.000 HD
ENDBRANCH  40  48
ENDBRANCH  30  31
ENDBRANCH   8  30
TORSDOF 9
ENDMDL
MODEL 12
REMARK VINA RESULT:      -7.6      5.493     10.706
REMARK  Name = ./S1787.pdb
REMARK  11 active torsions:
REMARK  status: ('A' for Active; 'I' for Inactive)
REMARK    1  A    between atoms: C1_1  and  O1_2
REMARK    2  A    between atoms: O1_2  and  C2_3
REMARK    3  A    between atoms: C4_5  and  C9_12
REMARK    4  A    between atoms: C6_7  and  O3_10
REMARK    5  A    between atoms: C7_8  and  O2_9
REMARK    6  A    between atoms: O3_10  and  C8_11
REMARK    7  A    between atoms: C14_19  and  O6_20
REMARK    8  A    between atoms: O6_20  and  C15_21
REMARK    9  A    between atoms: C18_26  and  C22_33
REMARK   10  A    between atoms: C20_29  and  O10_30
REMARK   11  A    between atoms: C21_31  and  O11_32
REMARK                            x       y       z     vdW  Elec       q    Type
REMARK                         _______ _______ _______ _____ _____    ______ ____
ROOT
ATOM      1  C9  UNL     1      75.195  63.524 105.326  0.00  0.00    +0.000 C 
ATOM      2  C10 UNL     1      74.458  64.373 104.216  0.00  0.00    +0.000 C 
ATOM      3  C11 UNL     1      72.914  64.264 104.202  0.00  0.00    +0.000 C 
ATOM      4  C12 UNL     1      72.577  63.260 103.075  0.00  0.00    +0.000 C 
ATOM      5  O4  UNL     1      73.690  63.316 102.205  0.00  0.00    +0.000 OA
ATOM      6  C13 UNL     1      74.754  63.947 102.816  0.00  0.00    +0.000 C 
ATOM      7  O5  UNL     1      75.833  64.197 102.214  0.00  0.00    +0.000 OA
ATOM      8  C14 UNL     1      72.277  63.905 105.547  0.00  0.00    +0.000 C 
ATOM      9  C26 UNL     1      72.916  62.673 106.126  0.00  0.00    +0.000 A 
ATOM     10  C27 UNL     1      72.115  61.740 106.823  0.00  0.00    +0.000 A 
ATOM     11  C28 UNL     1      72.743  60.677 107.455  0.00  0.00    +0.000 A 
ATOM     12  C29 UNL     1      74.090  60.528 107.437  0.00  0.00    +0.000 A 
ATOM     13  O12 UNL     1      74.440  59.414 108.172  0.00  0.00    +0.000 OA
ATOM     14  C30 UNL     1      73.236  58.821 108.677  0.00  0.00    +0.000 C 
ATOM     15  O13 UNL     1      72.176  59.656 108.190  0.00  0.00    +0.000 OA
ATOM     16  C31 UNL     1      74.920  61.421 106.767  0.00  0.00    +0.000 A 
ATOM     17  C32 UNL     1      74.326  62.491 106.043  0.00  0.00    +0.000 A 
ENDROOT
BRANCH   1  20
ATOM     18  C2  UNL     1      77.712  61.068 103.779  0.00  0.00    +0.000 A 
ATOM     19  C3  UNL     1      76.503  61.678 104.166  0.00  0.00    +0.000 A 
ATOM     20  C4  UNL     1      76.501  62.931 104.800  0.00  0.00    +0.000 A 
ATOM     21  C5  UNL     1      77.731  63.569 105.050  0.00  0.00    +0.000 A 
ATOM     22  C6  UNL     1      78.945  62.978 104.660  0.00  0.00    +0.000 A 
ATOM     23  C7  UNL     1      78.929  61.723 104.026  0.00  0.00    +0.000 A 
BRANCH  18  25
ATOM     24  C1  UNL     1      77.401  59.570 101.792  0.00  0.00    +0.000 C 
ATOM     25  O1  UNL     1      77.754  59.812 103.152  0.00  0.00    +0.000 OA
ENDBRANCH  18  25
BRANCH  23  26
ATOM     26  O2  UNL     1      80.118  61.102 103.639  0.00  0.00    +0.000 OA
ATOM     27  H6  UNL     1      81.026  61.442 103.932  0.00  0.00    +0.000 HD
ENDBRANCH  23  26
BRANCH  22  28
ATOM     28  O3  UNL     1      80.181  63.599 104.902  0.00  0.00    +0.000 OA
ATOM     29  C8  UNL     1      80.339  64.881 105.507  0.00  0.00    +0.000 C 
ENDBRANCH  22  28
ENDBRANCH   1  20
BRANCH   8  30
ATOM     30  O6  UNL     1      72.459  64.988 106.448  0.00  0.00    +0.000 OA
BRANCH  30  31
ATOM     31  C15 UNL     1      71.249  65.689 106.702  0.00  0.00    +0.000 C 
ATOM     32  O7  UNL     1      70.586  65.122 107.821  0.00  0.00    +0.000 OA
ATOM     33  C16 UNL     1      71.195  65.359 109.086  0.00  0.00    +0.000 C 
ATOM     34  C17 UNL     1      72.300  64.353 109.441  0.00  0.00    +0.000 C 
ATOM     35  O8  UNL     1      72.775  64.487 110.779  0.00  0.00    +0.000 OA
ATOM     36  C18 UNL     1      72.504  65.769 111.342  0.00  0.00    +0.000 C 
ATOM     37  O9  UNL     1      72.696  66.817 110.404  0.00  0.00    +0.000 OA
ATOM     38  C19 UNL     1      71.711  66.799 109.375  0.00  0.00    +0.000 C 
ATOM     39  C20 UNL     1      72.324  67.477 108.140  0.00  0.00    +0.000 C 
ATOM     40  C21 UNL     1      71.498  67.201 106.878  0.00  0.00    +0.000 C 
BRANCH  36  41
ATOM     41  C22 UNL     1      73.431  65.991 112.496  0.00  0.00    +0.000 A 
ATOM     42  C23 UNL     1      74.309  67.056 112.643  0.00  0.00    +0.000 A 
ATOM     43  C24 UNL     1      75.068  66.990 113.819  0.00  0.00    +0.000 A 
ATOM     44  C25 UNL     1      74.796  65.872 114.598  0.00  0.00    +0.000 A 
ATOM     45  S1  UNL     1      73.613  64.963 113.819  0.00  0.00    +0.000 S 
ENDBRANCH  36  41
BRANCH  39  46
ATOM     46  O10 UNL     1      73.637  67.019 107.951  0.00  0.00    +0.000 OA
ATOM     47  H23 UNL     1      73.974  67.424 107.103  0.00  0.00    +0.000 HD
ENDBRANCH  39  46
BRANCH  40  48
ATOM     48  O11 UNL     1      70.292  67.925 106.887  0.00  0.00    +0.000 OA
ATOM     49  H25 UNL     1      70.512  68.891 106.867  0.00  0.00    +0.000 HD
ENDBRANCH  40  48
ENDBRANCH  30  31
ENDBRANCH   8  30
TORSDOF 9
ENDMDL
MODEL 13
REMARK VINA RESULT:      -7.6      5.840      9.752
REMARK  Name = ./S1787.pdb
REMARK  11 active torsions:
REMARK  status: ('A' for Active; 'I' for Inactive)
REMARK    1  A    between atoms: C1_1  and  O1_2
REMARK    2  A    between atoms: O1_2  and  C2_3
REMARK    3  A    between atoms: C4_5  and  C9_12
REMARK    4  A    between atoms: C6_7  and  O3_10
REMARK    5  A    between atoms: C7_8  and  O2_9
REMARK    6  A    between atoms: O3_10  and  C8_11
REMARK    7  A    between atoms: C14_19  and  O6_20
REMARK    8  A    between atoms: O6_20  and  C15_21
REMARK    9  A    between atoms: C18_26  and  C22_33
REMARK   10  A    between atoms: C20_29  and  O10_30
REMARK   11  A    between atoms: C21_31  and  O11_32
REMARK                            x       y       z     vdW  Elec       q    Type
REMARK                         _______ _______ _______ _____ _____    ______ ____
ROOT
ATOM      1  C9  UNL     1      73.307  65.185 108.388  0.00  0.00    +0.000 C 
ATOM      2  C10 UNL     1      71.778  64.829 108.551  0.00  0.00    +0.000 C 
ATOM      3  C11 UNL     1      70.921  64.937 107.266  0.00  0.00    +0.000 C 
ATOM      4  C12 UNL     1      70.191  66.298 107.364  0.00  0.00    +0.000 C 
ATOM      5  O4  UNL     1      70.148  66.579 108.749  0.00  0.00    +0.000 OA
ATOM      6  C13 UNL     1      71.019  65.759 109.438  0.00  0.00    +0.000 C 
ATOM      7  O5  UNL     1      71.098  65.758 110.697  0.00  0.00    +0.000 OA
ATOM      8  C14 UNL     1      71.691  64.753 105.956  0.00  0.00    +0.000 C 
ATOM      9  C26 UNL     1      72.884  65.668 105.907  0.00  0.00    +0.000 A 
ATOM     10  C27 UNL     1      73.251  66.262 104.680  0.00  0.00    +0.000 A 
ATOM     11  C28 UNL     1      74.425  67.001 104.631  0.00  0.00    +0.000 A 
ATOM     12  C29 UNL     1      75.226  67.143 105.714  0.00  0.00    +0.000 A 
ATOM     13  O12 UNL     1      76.335  67.889 105.372  0.00  0.00    +0.000 OA
ATOM     14  C30 UNL     1      76.219  68.244 103.989  0.00  0.00    +0.000 C 
ATOM     15  O13 UNL     1      74.982  67.662 103.556  0.00  0.00    +0.000 OA
ATOM     16  C31 UNL     1      74.909  66.574 106.944  0.00  0.00    +0.000 A 
ATOM     17  C32 UNL     1      73.682  65.865 107.070  0.00  0.00    +0.000 A 
ENDROOT
BRANCH   1  20
ATOM     18  C2  UNL     1      74.495  68.033 110.677  0.00  0.00    +0.000 A 
ATOM     19  C3  UNL     1      73.902  67.336 109.606  0.00  0.00    +0.000 A 
ATOM     20  C4  UNL     1      73.841  65.932 109.608  0.00  0.00    +0.000 A 
ATOM     21  C5  UNL     1      74.389  65.229 110.697  0.00  0.00    +0.000 A 
ATOM     22  C6  UNL     1      74.976  65.911 111.777  0.00  0.00    +0.000 A 
ATOM     23  C7  UNL     1      75.028  67.316 111.760  0.00  0.00    +0.000 A 
BRANCH  18  25
ATOM     24  C1  UNL     1      75.232  70.227 109.712  0.00  0.00    +0.000 C 
ATOM     25  O1  UNL     1      74.584  69.434 110.705  0.00  0.00    +0.000 OA
ENDBRANCH  18  25
BRANCH  23  26
ATOM     26  O2  UNL     1      75.616  68.024 112.810  0.00  0.00    +0.000 OA
ATOM     27  H6  UNL     1      76.617  68.166 112.873  0.00  0.00    +0.000 HD
ENDBRANCH  23  26
BRANCH  22  28
ATOM     28  O3  UNL     1      75.529  65.226 112.872  0.00  0.00    +0.000 OA
ATOM     29  C8  UNL     1      74.791  64.792 114.012  0.00  0.00    +0.000 C 
ENDBRANCH  22  28
ENDBRANCH   1  20
BRANCH   8  30
ATOM     30  O6  UNL     1      72.136  63.407 105.867  0.00  0.00    +0.000 OA
BRANCH  30  31
ATOM     31  C15 UNL     1      71.076  62.506 105.576  0.00  0.00    +0.000 C 
ATOM     32  O7  UNL     1      70.688  62.636 104.218  0.00  0.00    +0.000 OA
ATOM     33  C16 UNL     1      71.614  62.133 103.260  0.00  0.00    +0.000 C 
ATOM     34  C17 UNL     1      72.709  63.137 102.869  0.00  0.00    +0.000 C 
ATOM     35  O8  UNL     1      73.517  62.692 101.782  0.00  0.00    +0.000 OA
ATOM     36  C18 UNL     1      73.478  61.279 101.597  0.00  0.00    +0.000 C 
ATOM     37  O9  UNL     1      73.487  60.577 102.830  0.00  0.00    +0.000 OA
ATOM     38  C19 UNL     1      72.272  60.754 103.553  0.00  0.00    +0.000 C 
ATOM     39  C20 UNL     1      72.589  60.544 105.043  0.00  0.00    +0.000 C 
ATOM     40  C21 UNL     1      71.453  61.054 105.937  0.00  0.00    +0.000 C 
BRANCH  36  41
ATOM     41  C22 UNL     1      74.681  60.866 100.808  0.00  0.00    +0.000 A 
ATOM     42  C23 UNL     1      75.984  61.291 101.028  0.00  0.00    +0.000 A 
ATOM     43  C24 UNL     1      76.902  60.751 100.117  0.00  0.00    +0.000 A 
ATOM     44  C25 UNL     1      76.327  59.906  99.177  0.00  0.00    +0.000 A 
ATOM     45  S1  UNL     1      74.673  59.835  99.476  0.00  0.00    +0.000 S 
ENDBRANCH  36  41
BRANCH  39  46
ATOM     46  O10 UNL     1      73.781  61.211 105.371  0.00  0.00    +0.000 OA
ATOM     47  H23 UNL     1      73.946  61.059 106.344  0.00  0.00    +0.000 HD
ENDBRANCH  39  46
BRANCH  40  48
ATOM     48  O11 UNL     1      70.335  60.202 105.881  0.00  0.00    +0.000 OA
ATOM     49  H25 UNL     1      69.834  60.295 106.732  0.00  0.00    +0.000 HD
ENDBRANCH  40  48
ENDBRANCH  30  31
ENDBRANCH   8  30
TORSDOF 9
ENDMDL
MODEL 14
REMARK VINA RESULT:      -7.5     12.785     18.216
REMARK  Name = ./S1787.pdb
REMARK  11 active torsions:
REMARK  status: ('A' for Active; 'I' for Inactive)
REMARK    1  A    between atoms: C1_1  and  O1_2
REMARK    2  A    between atoms: O1_2  and  C2_3
REMARK    3  A    between atoms: C4_5  and  C9_12
REMARK    4  A    between atoms: C6_7  and  O3_10
REMARK    5  A    between atoms: C7_8  and  O2_9
REMARK    6  A    between atoms: O3_10  and  C8_11
REMARK    7  A    between atoms: C14_19  and  O6_20
REMARK    8  A    between atoms: O6_20  and  C15_21
REMARK    9  A    between atoms: C18_26  and  C22_33
REMARK   10  A    between atoms: C20_29  and  O10_30
REMARK   11  A    between atoms: C21_31  and  O11_32
REMARK                            x       y       z     vdW  Elec       q    Type
REMARK                         _______ _______ _______ _____ _____    ______ ____
ROOT
ATOM      1  C9  UNL     1      65.969  79.454  91.829  0.00  0.00    +0.000 C 
ATOM      2  C10 UNL     1      66.737  80.685  91.206  0.00  0.00    +0.000 C 
ATOM      3  C11 UNL     1      66.971  81.883  92.158  0.00  0.00    +0.000 C 
ATOM      4  C12 UNL     1      65.874  82.915  91.805  0.00  0.00    +0.000 C 
ATOM      5  O4  UNL     1      65.519  82.616  90.470  0.00  0.00    +0.000 OA
ATOM      6  C13 UNL     1      66.004  81.376  90.105  0.00  0.00    +0.000 C 
ATOM      7  O5  UNL     1      65.893  80.922  88.934  0.00  0.00    +0.000 OA
ATOM      8  C14 UNL     1      67.018  81.529  93.646  0.00  0.00    +0.000 C 
ATOM      9  C26 UNL     1      65.805  80.733  94.042  0.00  0.00    +0.000 A 
ATOM     10  C27 UNL     1      65.219  80.950  95.309  0.00  0.00    +0.000 A 
ATOM     11  C28 UNL     1      64.180  80.119  95.704  0.00  0.00    +0.000 A 
ATOM     12  C29 UNL     1      63.738  79.105  94.921  0.00  0.00    +0.000 A 
ATOM     13  O12 UNL     1      62.731  78.425  95.574  0.00  0.00    +0.000 OA
ATOM     14  C30 UNL     1      62.523  79.055  96.844  0.00  0.00    +0.000 C 
ATOM     15  O13 UNL     1      63.465  80.136  96.883  0.00  0.00    +0.000 OA
ATOM     16  C31 UNL     1      64.285  78.851  93.667  0.00  0.00    +0.000 A 
ATOM     17  C32 UNL     1      65.305  79.715  93.182  0.00  0.00    +0.000 A 
ENDROOT
BRANCH   1  20
ATOM     18  C2  UNL     1      62.761  78.595  89.898  0.00  0.00    +0.000 A 
ATOM     19  C3  UNL     1      63.680  79.247  90.744  0.00  0.00    +0.000 A 
ATOM     20  C4  UNL     1      65.016  78.820  90.818  0.00  0.00    +0.000 A 
ATOM     21  C5  UNL     1      65.424  77.722  90.038  0.00  0.00    +0.000 A 
ATOM     22  C6  UNL     1      64.521  77.068  89.181  0.00  0.00    +0.000 A 
ATOM     23  C7  UNL     1      63.188  77.509  89.117  0.00  0.00    +0.000 A 
BRANCH  18  25
ATOM     24  C1  UNL     1      60.973  80.323  89.572  0.00  0.00    +0.000 C 
ATOM     25  O1  UNL     1      61.416  78.987  89.804  0.00  0.00    +0.000 OA
ENDBRANCH  18  25
BRANCH  23  26
ATOM     26  O2  UNL     1      62.262  76.872  88.287  0.00  0.00    +0.000 OA
ATOM     27  H6  UNL     1      62.518  76.494  87.383  0.00  0.00    +0.000 HD
ENDBRANCH  23  26
BRANCH  22  28
ATOM     28  O3  UNL     1      64.911  75.971  88.395  0.00  0.00    +0.000 OA
ATOM     29  C8  UNL     1      65.635  74.843  88.882  0.00  0.00    +0.000 C 
ENDBRANCH  22  28
ENDBRANCH   1  20
BRANCH   8  30
ATOM     30  O6  UNL     1      68.183  80.757  93.900  0.00  0.00    +0.000 OA
BRANCH  30  31
ATOM     31  C15 UNL     1      69.378  81.478  93.633  0.00  0.00    +0.000 C 
ATOM     32  O7  UNL     1      69.604  82.437  94.654  0.00  0.00    +0.000 OA
ATOM     33  C16 UNL     1      69.994  81.913  95.919  0.00  0.00    +0.000 C 
ATOM     34  C17 UNL     1      68.813  81.493  96.807  0.00  0.00    +0.000 C 
ATOM     35  O8  UNL     1      69.203  81.143  98.133  0.00  0.00    +0.000 OA
ATOM     36  C18 UNL     1      70.581  80.794  98.237  0.00  0.00    +0.000 C 
ATOM     37  O9  UNL     1      71.022  80.020  97.133  0.00  0.00    +0.000 OA
ATOM     38  C19 UNL     1      71.062  80.782  95.929  0.00  0.00    +0.000 C 
ATOM     39  C20 UNL     1      70.908  79.799  94.758  0.00  0.00    +0.000 C 
ATOM     40  C21 UNL     1      70.581  80.529  93.450  0.00  0.00    +0.000 C 
BRANCH  36  41
ATOM     41  C22 UNL     1      70.779  79.993  99.486  0.00  0.00    +0.000 A 
ATOM     42  C23 UNL     1      71.464  78.789  99.581  0.00  0.00    +0.000 A 
ATOM     43  C24 UNL     1      71.471  78.259 100.878  0.00  0.00    +0.000 A 
ATOM     44  C25 UNL     1      70.788  79.036 101.805  0.00  0.00    +0.000 A 
ATOM     45  S1  UNL     1      70.172  80.385 101.008  0.00  0.00    +0.000 S 
ENDBRANCH  36  41
BRANCH  39  46
ATOM     46  O10 UNL     1      69.891  78.875  95.046  0.00  0.00    +0.000 OA
ATOM     47  H23 UNL     1      69.512  78.569  94.174  0.00  0.00    +0.000 HD
ENDBRANCH  39  46
BRANCH  40  48
ATOM     48  O11 UNL     1      71.705  81.212  92.950  0.00  0.00    +0.000 OA
ATOM     49  H25 UNL     1      71.750  82.098  93.393  0.00  0.00    +0.000 HD
ENDBRANCH  40  48
ENDBRANCH  30  31
ENDBRANCH   8  30
TORSDOF 9
ENDMDL
MODEL 15
REMARK VINA RESULT:      -7.5      5.369     10.412
REMARK  Name = ./S1787.pdb
REMARK  11 active torsions:
REMARK  status: ('A' for Active; 'I' for Inactive)
REMARK    1  A    between atoms: C1_1  and  O1_2
REMARK    2  A    between atoms: O1_2  and  C2_3
REMARK    3  A    between atoms: C4_5  and  C9_12
REMARK    4  A    between atoms: C6_7  and  O3_10
REMARK    5  A    between atoms: C7_8  and  O2_9
REMARK    6  A    between atoms: O3_10  and  C8_11
REMARK    7  A    between atoms: C14_19  and  O6_20
REMARK    8  A    between atoms: O6_20  and  C15_21
REMARK    9  A    between atoms: C18_26  and  C22_33
REMARK   10  A    between atoms: C20_29  and  O10_30
REMARK   11  A    between atoms: C21_31  and  O11_32
REMARK                            x       y       z     vdW  Elec       q    Type
REMARK                         _______ _______ _______ _____ _____    ______ ____
ROOT
ATOM      1  C9  UNL     1      72.840  63.115 104.854  0.00  0.00    +0.000 C 
ATOM      2  C10 UNL     1      71.810  62.401 105.813  0.00  0.00    +0.000 C 
ATOM      3  C11 UNL     1      72.186  62.390 107.315  0.00  0.00    +0.000 C 
ATOM      4  C12 UNL     1      72.781  60.988 107.585  0.00  0.00    +0.000 C 
ATOM      5  O4  UNL     1      72.226  60.165 106.578  0.00  0.00    +0.000 OA
ATOM      6  C13 UNL     1      71.663  60.934 105.580  0.00  0.00    +0.000 C 
ATOM      7  O5  UNL     1      71.028  60.432 104.613  0.00  0.00    +0.000 OA
ATOM      8  C14 UNL     1      73.098  63.535 107.764  0.00  0.00    +0.000 C 
ATOM      9  C26 UNL     1      74.316  63.619 106.886  0.00  0.00    +0.000 A 
ATOM     10  C27 UNL     1      75.561  63.959 107.461  0.00  0.00    +0.000 A 
ATOM     11  C28 UNL     1      76.645  64.154 106.616  0.00  0.00    +0.000 A 
ATOM     12  C29 UNL     1      76.530  64.049 105.270  0.00  0.00    +0.000 A 
ATOM     13  O12 UNL     1      77.746  64.328 104.681  0.00  0.00    +0.000 OA
ATOM     14  C30 UNL     1      78.685  64.620 105.724  0.00  0.00    +0.000 C 
ATOM     15  O13 UNL     1      77.941  64.491 106.944  0.00  0.00    +0.000 OA
ATOM     16  C31 UNL     1      75.325  63.719 104.657  0.00  0.00    +0.000 A 
ATOM     17  C32 UNL     1      74.198  63.440 105.478  0.00  0.00    +0.000 A 
ENDROOT
BRANCH   1  20
ATOM     18  C2  UNL     1      74.178  60.819 102.080  0.00  0.00    +0.000 A 
ATOM     19  C3  UNL     1      73.979  61.422 103.336  0.00  0.00    +0.000 A 
ATOM     20  C4  UNL     1      72.966  62.379 103.521  0.00  0.00    +0.000 A 
ATOM     21  C5  UNL     1      72.155  62.732 102.427  0.00  0.00    +0.000 A 
ATOM     22  C6  UNL     1      72.336  62.131 101.169  0.00  0.00    +0.000 A 
ATOM     23  C7  UNL     1      73.353  61.175 101.001  0.00  0.00    +0.000 A 
BRANCH  18  25
ATOM     24  C1  UNL     1      76.585  60.130 101.938  0.00  0.00    +0.000 C 
ATOM     25  O1  UNL     1      75.186  59.866 101.854  0.00  0.00    +0.000 OA
ENDBRANCH  18  25
BRANCH  23  26
ATOM     26  O2  UNL     1      73.568  60.569  99.761  0.00  0.00    +0.000 OA
ATOM     27  H6  UNL     1      73.573  59.563  99.645  0.00  0.00    +0.000 HD
ENDBRANCH  23  26
BRANCH  22  28
ATOM     28  O3  UNL     1      71.537  62.471 100.065  0.00  0.00    +0.000 OA
ATOM     29  C8  UNL     1      70.365  61.764  99.665  0.00  0.00    +0.000 C 
ENDBRANCH  22  28
ENDBRANCH   1  20
BRANCH   8  30
ATOM     30  O6  UNL     1      72.380  64.758 107.678  0.00  0.00    +0.000 OA
BRANCH  30  31
ATOM     31  C15 UNL     1      72.616  65.601 108.798  0.00  0.00    +0.000 C 
ATOM     32  O7  UNL     1      73.344  66.750 108.393  0.00  0.00    +0.000 OA
ATOM     33  C16 UNL     1      72.622  67.695 107.610  0.00  0.00    +0.000 C 
ATOM     34  C17 UNL     1      72.613  67.377 106.107  0.00  0.00    +0.000 C 
ATOM     35  O8  UNL     1      72.048  68.419 105.315  0.00  0.00    +0.000 OA
ATOM     36  C18 UNL     1      71.200  69.291 106.060  0.00  0.00    +0.000 C 
ATOM     37  O9  UNL     1      70.398  68.586 106.996  0.00  0.00    +0.000 OA
ATOM     38  C19 UNL     1      71.175  68.045 108.061  0.00  0.00    +0.000 C 
ATOM     39  C20 UNL     1      70.409  66.834 108.618  0.00  0.00    +0.000 C 
ATOM     40  C21 UNL     1      71.301  65.968 109.516  0.00  0.00    +0.000 C 
BRANCH  36  41
ATOM     41  C22 UNL     1      70.295  70.008 105.108  0.00  0.00    +0.000 A 
ATOM     42  C23 UNL     1      70.566  70.277 103.773  0.00  0.00    +0.000 A 
ATOM     43  C24 UNL     1      69.540  70.982 103.131  0.00  0.00    +0.000 A 
ATOM     44  C25 UNL     1      68.462  71.276 103.957  0.00  0.00    +0.000 A 
ATOM     45  S1  UNL     1      68.790  70.661 105.489  0.00  0.00    +0.000 S 
ENDBRANCH  36  41
BRANCH  39  46
ATOM     46  O10 UNL     1      69.917  66.057 107.557  0.00  0.00    +0.000 OA
ATOM     47  H23 UNL     1      70.658  65.955 106.896  0.00  0.00    +0.000 HD
ENDBRANCH  39  46
BRANCH  40  48
ATOM     48  O11 UNL     1      71.546  66.596 110.752  0.00  0.00    +0.000 OA
ATOM     49  H25 UNL     1      70.680  66.692 111.225  0.00  0.00    +0.000 HD
ENDBRANCH  40  48
ENDBRANCH  30  31
ENDBRANCH   8  30
TORSDOF 9
ENDMDL
MODEL 16
REMARK VINA RESULT:      -7.5      5.757      9.831
REMARK  Name = ./S1787.pdb
REMARK  11 active torsions:
REMARK  status: ('A' for Active; 'I' for Inactive)
REMARK    1  A    between atoms: C1_1  and  O1_2
REMARK    2  A    between atoms: O1_2  and  C2_3
REMARK    3  A    between atoms: C4_5  and  C9_12
REMARK    4  A    between atoms: C6_7  and  O3_10
REMARK    5  A    between atoms: C7_8  and  O2_9
REMARK    6  A    between atoms: O3_10  and  C8_11
REMARK    7  A    between atoms: C14_19  and  O6_20
REMARK    8  A    between atoms: O6_20  and  C15_21
REMARK    9  A    between atoms: C18_26  and  C22_33
REMARK   10  A    between atoms: C20_29  and  O10_30
REMARK   11  A    between atoms: C21_31  and  O11_32
REMARK                            x       y       z     vdW  Elec       q    Type
REMARK                         _______ _______ _______ _____ _____    ______ ____
ROOT
ATOM      1  C9  UNL     1      73.421  65.248 108.380  0.00  0.00    +0.000 C 
ATOM      2  C10 UNL     1      71.894  64.933 108.632  0.00  0.00    +0.000 C 
ATOM      3  C11 UNL     1      70.969  65.060 107.397  0.00  0.00    +0.000 C 
ATOM      4  C12 UNL     1      70.282  66.439 107.530  0.00  0.00    +0.000 C 
ATOM      5  O4  UNL     1      70.325  66.726 108.914  0.00  0.00    +0.000 OA
ATOM      6  C13 UNL     1      71.212  65.886 109.556  0.00  0.00    +0.000 C 
ATOM      7  O5  UNL     1      71.363  65.887 110.808  0.00  0.00    +0.000 OA
ATOM      8  C14 UNL     1      71.658  64.850 106.046  0.00  0.00    +0.000 C 
ATOM      9  C26 UNL     1      72.870  65.733 105.926  0.00  0.00    +0.000 A 
ATOM     10  C27 UNL     1      73.182  66.313 104.676  0.00  0.00    +0.000 A 
ATOM     11  C28 UNL     1      74.370  67.020 104.557  0.00  0.00    +0.000 A 
ATOM     12  C29 UNL     1      75.235  67.144 105.592  0.00  0.00    +0.000 A 
ATOM     13  O12 UNL     1      76.342  67.860 105.184  0.00  0.00    +0.000 OA
ATOM     14  C30 UNL     1      76.157  68.213 103.807  0.00  0.00    +0.000 C 
ATOM     15  O13 UNL     1      74.882  67.662 103.449  0.00  0.00    +0.000 OA
ATOM     16  C31 UNL     1      74.973  66.589 106.841  0.00  0.00    +0.000 A 
ATOM     17  C32 UNL     1      73.738  65.913 107.040  0.00  0.00    +0.000 A 
ENDROOT
BRANCH   1  20
ATOM     18  C2  UNL     1      74.919  65.949 111.847  0.00  0.00    +0.000 A 
ATOM     19  C3  UNL     1      74.450  65.272 110.705  0.00  0.00    +0.000 A 
ATOM     20  C4  UNL     1      74.042  65.985 109.565  0.00  0.00    +0.000 A 
ATOM     21  C5  UNL     1      74.102  67.391 109.583  0.00  0.00    +0.000 A 
ATOM     22  C6  UNL     1      74.578  68.080 110.713  0.00  0.00    +0.000 A 
ATOM     23  C7  UNL     1      74.983  67.351 111.846  0.00  0.00    +0.000 A 
BRANCH  18  25
ATOM     24  C1  UNL     1      75.645  63.883 113.069  0.00  0.00    +0.000 C 
ATOM     25  O1  UNL     1      75.325  65.271 113.009  0.00  0.00    +0.000 OA
ENDBRANCH  18  25
BRANCH  23  26
ATOM     26  O2  UNL     1      75.446  68.005 112.989  0.00  0.00    +0.000 OA
ATOM     27  H6  UNL     1      76.355  68.451 113.026  0.00  0.00    +0.000 HD
ENDBRANCH  23  26
BRANCH  22  28
ATOM     28  O3  UNL     1      74.645  69.482 110.750  0.00  0.00    +0.000 OA
ATOM     29  C8  UNL     1      74.726  70.319 109.598  0.00  0.00    +0.000 C 
ENDBRANCH  22  28
ENDBRANCH   1  20
BRANCH   8  30
ATOM     30  O6  UNL     1      72.062  63.493 105.939  0.00  0.00    +0.000 OA
BRANCH  30  31
ATOM     31  C15 UNL     1      70.981  62.634 105.596  0.00  0.00    +0.000 C 
ATOM     32  O7  UNL     1      70.639  62.808 104.231  0.00  0.00    +0.000 OA
ATOM     33  C16 UNL     1      71.576  62.296 103.288  0.00  0.00    +0.000 C 
ATOM     34  C17 UNL     1      72.715  63.271 102.954  0.00  0.00    +0.000 C 
ATOM     35  O8  UNL     1      73.540  62.825 101.880  0.00  0.00    +0.000 OA
ATOM     36  C18 UNL     1      73.461  61.418 101.661  0.00  0.00    +0.000 C 
ATOM     37  O9  UNL     1      73.410  60.689 102.877  0.00  0.00    +0.000 OA
ATOM     38  C19 UNL     1      72.180  60.890 103.569  0.00  0.00    +0.000 C 
ATOM     39  C20 UNL     1      72.446  60.636 105.061  0.00  0.00    +0.000 C 
ATOM     40  C21 UNL     1      71.301  61.163 105.934  0.00  0.00    +0.000 C 
BRANCH  36  41
ATOM     41  C22 UNL     1      74.672  60.983 100.898  0.00  0.00    +0.000 A 
ATOM     42  C23 UNL     1      75.951  61.507 101.033  0.00  0.00    +0.000 A 
ATOM     43  C24 UNL     1      76.885  60.915 100.172  0.00  0.00    +0.000 A 
ATOM     44  C25 UNL     1      76.346  59.931  99.353  0.00  0.00    +0.000 A 
ATOM     45  S1  UNL     1      74.704  59.800  99.699  0.00  0.00    +0.000 S 
ENDBRANCH  36  41
BRANCH  39  46
ATOM     46  O10 UNL     1      73.648  61.255 105.440  0.00  0.00    +0.000 OA
ATOM     47  H23 UNL     1      74.141  61.481 104.602  0.00  0.00    +0.000 HD
ENDBRANCH  39  46
BRANCH  40  48
ATOM     48  O11 UNL     1      70.157  60.349 105.825  0.00  0.00    +0.000 OA
ATOM     49  H25 UNL     1      69.516  60.799 105.218  0.00  0.00    +0.000 HD
ENDBRANCH  40  48
ENDBRANCH  30  31
ENDBRANCH   8  30
TORSDOF 9
ENDMDL
MODEL 17
REMARK VINA RESULT:      -7.5      5.217     10.155
REMARK  Name = ./S1787.pdb
REMARK  11 active torsions:
REMARK  status: ('A' for Active; 'I' for Inactive)
REMARK    1  A    between atoms: C1_1  and  O1_2
REMARK    2  A    between atoms: O1_2  and  C2_3
REMARK    3  A    between atoms: C4_5  and  C9_12
REMARK    4  A    between atoms: C6_7  and  O3_10
REMARK    5  A    between atoms: C7_8  and  O2_9
REMARK    6  A    between atoms: O3_10  and  C8_11
REMARK    7  A    between atoms: C14_19  and  O6_20
REMARK    8  A    between atoms: O6_20  and  C15_21
REMARK    9  A    between atoms: C18_26  and  C22_33
REMARK   10  A    between atoms: C20_29  and  O10_30
REMARK   11  A    between atoms: C21_31  and  O11_32
REMARK                            x       y       z     vdW  Elec       q    Type
REMARK                         _______ _______ _______ _____ _____    ______ ____
ROOT
ATOM      1  C9  UNL     1      72.312  63.310 104.703  0.00  0.00    +0.000 C 
ATOM      2  C10 UNL     1      71.658  62.370 105.790  0.00  0.00    +0.000 C 
ATOM      3  C11 UNL     1      72.352  62.360 107.174  0.00  0.00    +0.000 C 
ATOM      4  C12 UNL     1      73.227  61.085 107.193  0.00  0.00    +0.000 C 
ATOM      5  O4  UNL     1      72.616  60.220 106.255  0.00  0.00    +0.000 OA
ATOM      6  C13 UNL     1      71.722  60.914 105.466  0.00  0.00    +0.000 C 
ATOM      7  O5  UNL     1      70.987  60.347 104.613  0.00  0.00    +0.000 OA
ATOM      8  C14 UNL     1      73.126  63.634 107.521  0.00  0.00    +0.000 C 
ATOM      9  C26 UNL     1      74.088  63.988 106.419  0.00  0.00    +0.000 A 
ATOM     10  C27 UNL     1      75.350  64.529 106.750  0.00  0.00    +0.000 A 
ATOM     11  C28 UNL     1      76.170  64.965 105.719  0.00  0.00    +0.000 A 
ATOM     12  C29 UNL     1      75.782  64.903 104.422  0.00  0.00    +0.000 A 
ATOM     13  O12 UNL     1      76.771  65.434 103.620  0.00  0.00    +0.000 OA
ATOM     14  C30 UNL     1      77.851  65.849 104.466  0.00  0.00    +0.000 C 
ATOM     15  O13 UNL     1      77.428  65.525 105.798  0.00  0.00    +0.000 OA
ATOM     16  C31 UNL     1      74.548  64.380 104.047  0.00  0.00    +0.000 A 
ATOM     17  C32 UNL     1      73.696  63.856 105.057  0.00  0.00    +0.000 A 
ENDROOT
BRANCH   1  20
ATOM     18  C2  UNL     1      71.011  62.092 101.299  0.00  0.00    +0.000 A 
ATOM     19  C3  UNL     1      71.106  62.768 102.530  0.00  0.00    +0.000 A 
ATOM     20  C4  UNL     1      72.268  62.673 103.315  0.00  0.00    +0.000 A 
ATOM     21  C5  UNL     1      73.337  61.883 102.854  0.00  0.00    +0.000 A 
ATOM     22  C6  UNL     1      73.261  61.210 101.622  0.00  0.00    +0.000 A 
ATOM     23  C7  UNL     1      72.091  61.316 100.849  0.00  0.00    +0.000 A 
BRANCH  18  25
ATOM     24  C1  UNL     1      68.746  61.273 100.600  0.00  0.00    +0.000 C 
ATOM     25  O1  UNL     1      69.862  62.154 100.493  0.00  0.00    +0.000 OA
ENDBRANCH  18  25
BRANCH  23  26
ATOM     26  O2  UNL     1      71.977  60.649  99.627  0.00  0.00    +0.000 OA
ATOM     27  H6  UNL     1      72.303  61.053  98.758  0.00  0.00    +0.000 HD
ENDBRANCH  23  26
BRANCH  22  28
ATOM     28  O3  UNL     1      74.318  60.416 101.146  0.00  0.00    +0.000 OA
ATOM     29  C8  UNL     1      75.444  60.914 100.428  0.00  0.00    +0.000 C 
ENDBRANCH  22  28
ENDBRANCH   1  20
BRANCH   8  30
ATOM     30  O6  UNL     1      72.205  64.702 107.692  0.00  0.00    +0.000 OA
BRANCH  30  31
ATOM     31  C15 UNL     1      72.534  65.525 108.804  0.00  0.00    +0.000 C 
ATOM     32  O7  UNL     1      73.285  66.647 108.371  0.00  0.00    +0.000 OA
ATOM     33  C16 UNL     1      72.563  67.628 107.634  0.00  0.00    +0.000 C 
ATOM     34  C17 UNL     1      72.463  67.326 106.132  0.00  0.00    +0.000 C 
ATOM     35  O8  UNL     1      71.900  68.398 105.378  0.00  0.00    +0.000 OA
ATOM     36  C18 UNL     1      71.127  69.295 106.174  0.00  0.00    +0.000 C 
ATOM     37  O9  UNL     1      70.348  68.614 107.145  0.00  0.00    +0.000 OA
ATOM     38  C19 UNL     1      71.156  68.031 108.163  0.00  0.00    +0.000 C 
ATOM     39  C20 UNL     1      70.372  66.847 108.750  0.00  0.00    +0.000 C 
ATOM     40  C21 UNL     1      71.274  65.937 109.593  0.00  0.00    +0.000 C 
BRANCH  36  41
ATOM     41  C22 UNL     1      70.205  70.058 105.276  0.00  0.00    +0.000 A 
ATOM     42  C23 UNL     1      70.426  70.346 103.936  0.00  0.00    +0.000 A 
ATOM     43  C24 UNL     1      69.394  71.094 103.353  0.00  0.00    +0.000 A 
ATOM     44  C25 UNL     1      68.362  71.402 104.231  0.00  0.00    +0.000 A 
ATOM     45  S1  UNL     1      68.737  70.746 105.735  0.00  0.00    +0.000 S 
ENDBRANCH  36  41
BRANCH  39  46
ATOM     46  O10 UNL     1      69.794  66.101 107.710  0.00  0.00    +0.000 OA
ATOM     47  H23 UNL     1      69.620  65.184 108.065  0.00  0.00    +0.000 HD
ENDBRANCH  39  46
BRANCH  40  48
ATOM     48  O11 UNL     1      71.608  66.541 110.819  0.00  0.00    +0.000 OA
ATOM     49  H25 UNL     1      71.903  65.830 111.443  0.00  0.00    +0.000 HD
ENDBRANCH  40  48
ENDBRANCH  30  31
ENDBRANCH   8  30
TORSDOF 9
ENDMDL
MODEL 18
REMARK VINA RESULT:      -7.5      5.477     10.583
REMARK  Name = ./S1787.pdb
REMARK  11 active torsions:
REMARK  status: ('A' for Active; 'I' for Inactive)
REMARK    1  A    between atoms: C1_1  and  O1_2
REMARK    2  A    between atoms: O1_2  and  C2_3
REMARK    3  A    between atoms: C4_5  and  C9_12
REMARK    4  A    between atoms: C6_7  and  O3_10
REMARK    5  A    between atoms: C7_8  and  O2_9
REMARK    6  A    between atoms: O3_10  and  C8_11
REMARK    7  A    between atoms: C14_19  and  O6_20
REMARK    8  A    between atoms: O6_20  and  C15_21
REMARK    9  A    between atoms: C18_26  and  C22_33
REMARK   10  A    between atoms: C20_29  and  O10_30
REMARK   11  A    between atoms: C21_31  and  O11_32
REMARK                            x       y       z     vdW  Elec       q    Type
REMARK                         _______ _______ _______ _____ _____    ______ ____
ROOT
ATOM      1  C9  UNL     1      73.065  63.047 104.844  0.00  0.00    +0.000 C 
ATOM      2  C10 UNL     1      71.872  62.396 105.647  0.00  0.00    +0.000 C 
ATOM      3  C11 UNL     1      72.060  62.314 107.181  0.00  0.00    +0.000 C 
ATOM      4  C12 UNL     1      72.504  60.861 107.470  0.00  0.00    +0.000 C 
ATOM      5  O4  UNL     1      72.013  60.114 106.375  0.00  0.00    +0.000 OA
ATOM      6  C13 UNL     1      71.639  60.953 105.344  0.00  0.00    +0.000 C 
ATOM      7  O5  UNL     1      71.090  60.531 104.291  0.00  0.00    +0.000 OA
ATOM      8  C14 UNL     1      72.997  63.367 107.777  0.00  0.00    +0.000 C 
ATOM      9  C26 UNL     1      74.317  63.373 107.055  0.00  0.00    +0.000 A 
ATOM     10  C27 UNL     1      75.505  63.593 107.787  0.00  0.00    +0.000 A 
ATOM     11  C28 UNL     1      76.696  63.719 107.085  0.00  0.00    +0.000 A 
ATOM     12  C29 UNL     1      76.739  63.659 105.732  0.00  0.00    +0.000 A 
ATOM     13  O12 UNL     1      78.036  63.852 105.304  0.00  0.00    +0.000 OA
ATOM     14  C30 UNL     1      78.861  64.038 106.462  0.00  0.00    +0.000 C 
ATOM     15  O13 UNL     1      77.965  63.939 107.578  0.00  0.00    +0.000 OA
ATOM     16  C31 UNL     1      75.595  63.447 104.968  0.00  0.00    +0.000 A 
ATOM     17  C32 UNL     1      74.358  63.241 105.638  0.00  0.00    +0.000 A 
ENDROOT
BRANCH   1  20
ATOM     18  C2  UNL     1      72.669  61.986 101.173  0.00  0.00    +0.000 A 
ATOM     19  C3  UNL     1      72.550  62.705 102.378  0.00  0.00    +0.000 A 
ATOM     20  C4  UNL     1      73.295  62.337 103.510  0.00  0.00    +0.000 A 
ATOM     21  C5  UNL     1      74.160  61.231 103.427  0.00  0.00    +0.000 A 
ATOM     22  C6  UNL     1      74.297  60.509 102.228  0.00  0.00    +0.000 A 
ATOM     23  C7  UNL     1      73.545  60.891 101.103  0.00  0.00    +0.000 A 
BRANCH  18  25
ATOM     24  C1  UNL     1      70.627  61.826  99.726  0.00  0.00    +0.000 C 
ATOM     25  O1  UNL     1      71.933  62.317 100.023  0.00  0.00    +0.000 OA
ENDBRANCH  18  25
BRANCH  23  26
ATOM     26  O2  UNL     1      73.647  60.186  99.901  0.00  0.00    +0.000 OA
ATOM     27  H6  UNL     1      72.976  59.477  99.631  0.00  0.00    +0.000 HD
ENDBRANCH  23  26
BRANCH  22  28
ATOM     28  O3  UNL     1      75.155  59.402 102.125  0.00  0.00    +0.000 OA
ATOM     29  C8  UNL     1      74.797  58.065 102.468  0.00  0.00    +0.000 C 
ENDBRANCH  22  28
ENDBRANCH   1  20
BRANCH   8  30
ATOM     30  O6  UNL     1      72.395  64.647 107.650  0.00  0.00    +0.000 OA
BRANCH  30  31
ATOM     31  C15 UNL     1      72.612  65.462 108.795  0.00  0.00    +0.000 C 
ATOM     32  O7  UNL     1      73.342  66.622 108.433  0.00  0.00    +0.000 OA
ATOM     33  C16 UNL     1      72.630  67.586 107.664  0.00  0.00    +0.000 C 
ATOM     34  C17 UNL     1      72.645  67.308 106.153  0.00  0.00    +0.000 C 
ATOM     35  O8  UNL     1      72.090  68.370 105.380  0.00  0.00    +0.000 OA
ATOM     36  C18 UNL     1      71.228  69.219 106.135  0.00  0.00    +0.000 C 
ATOM     37  O9  UNL     1      70.414  68.489 107.039  0.00  0.00    +0.000 OA
ATOM     38  C19 UNL     1      71.175  67.921 108.102  0.00  0.00    +0.000 C 
ATOM     39  C20 UNL     1      70.404  66.694 108.614  0.00  0.00    +0.000 C 
ATOM     40  C21 UNL     1      71.284  65.806 109.502  0.00  0.00    +0.000 C 
BRANCH  36  41
ATOM     41  C22 UNL     1      70.336  69.960 105.188  0.00  0.00    +0.000 A 
ATOM     42  C23 UNL     1      70.622  70.254 103.862  0.00  0.00    +0.000 A 
ATOM     43  C24 UNL     1      69.605  70.977 103.224  0.00  0.00    +0.000 A 
ATOM     44  C25 UNL     1      68.521  71.260 104.045  0.00  0.00    +0.000 A 
ATOM     45  S1  UNL     1      68.830  70.613 105.567  0.00  0.00    +0.000 S 
ENDBRANCH  36  41
BRANCH  39  46
ATOM     46  O10 UNL     1      69.930  65.944 107.525  0.00  0.00    +0.000 OA
ATOM     47  H23 UNL     1      70.566  66.086 106.769  0.00  0.00    +0.000 HD
ENDBRANCH  39  46
BRANCH  40  48
ATOM     48  O11 UNL     1      71.508  66.401 110.758  0.00  0.00    +0.000 OA
ATOM     49  H25 UNL     1      72.151  65.834 111.257  0.00  0.00    +0.000 HD
ENDBRANCH  40  48
ENDBRANCH  30  31
ENDBRANCH   8  30
TORSDOF 9
ENDMDL
MODEL 19
REMARK VINA RESULT:      -7.4      6.715     10.833
REMARK  Name = ./S1787.pdb
REMARK  11 active torsions:
REMARK  status: ('A' for Active; 'I' for Inactive)
REMARK    1  A    between atoms: C1_1  and  O1_2
REMARK    2  A    between atoms: O1_2  and  C2_3
REMARK    3  A    between atoms: C4_5  and  C9_12
REMARK    4  A    between atoms: C6_7  and  O3_10
REMARK    5  A    between atoms: C7_8  and  O2_9
REMARK    6  A    between atoms: O3_10  and  C8_11
REMARK    7  A    between atoms: C14_19  and  O6_20
REMARK    8  A    between atoms: O6_20  and  C15_21
REMARK    9  A    between atoms: C18_26  and  C22_33
REMARK   10  A    between atoms: C20_29  and  O10_30
REMARK   11  A    between atoms: C21_31  and  O11_32
REMARK                            x       y       z     vdW  Elec       q    Type
REMARK                         _______ _______ _______ _____ _____    ______ ____
ROOT
ATOM      1  C9  UNL     1      74.363  63.917 109.740  0.00  0.00    +0.000 C 
ATOM      2  C10 UNL     1      72.915  63.918 109.109  0.00  0.00    +0.000 C 
ATOM      3  C11 UNL     1      72.840  63.579 107.600  0.00  0.00    +0.000 C 
ATOM      4  C12 UNL     1      72.711  64.938 106.873  0.00  0.00    +0.000 C 
ATOM      5  O4  UNL     1      72.157  65.808 107.840  0.00  0.00    +0.000 OA
ATOM      6  C13 UNL     1      72.247  65.253 109.100  0.00  0.00    +0.000 C 
ATOM      7  O5  UNL     1      71.745  65.799 110.120  0.00  0.00    +0.000 OA
ATOM      8  C14 UNL     1      73.985  62.712 107.072  0.00  0.00    +0.000 C 
ATOM      9  C26 UNL     1      75.316  63.307 107.441  0.00  0.00    +0.000 A 
ATOM     10  C27 UNL     1      76.388  63.228 106.525  0.00  0.00    +0.000 A 
ATOM     11  C28 UNL     1      77.638  63.671 106.934  0.00  0.00    +0.000 A 
ATOM     12  C29 UNL     1      77.853  64.150 108.183  0.00  0.00    +0.000 A 
ATOM     13  O12 UNL     1      79.185  64.480 108.327  0.00  0.00    +0.000 OA
ATOM     14  C30 UNL     1      79.846  64.196 107.087  0.00  0.00    +0.000 C 
ATOM     15  O13 UNL     1      78.820  63.687 106.224  0.00  0.00    +0.000 OA
ATOM     16  C31 UNL     1      76.830  64.246 109.121  0.00  0.00    +0.000 A 
ATOM     17  C32 UNL     1      75.514  63.871 108.734  0.00  0.00    +0.000 A 
ENDROOT
BRANCH   1  20
ATOM     18  C2  UNL     1      75.220  67.313 111.318  0.00  0.00    +0.000 A 
ATOM     19  C3  UNL     1      74.957  66.308 110.367  0.00  0.00    +0.000 A 
ATOM     20  C4  UNL     1      74.525  65.033 110.769  0.00  0.00    +0.000 A 
ATOM     21  C5  UNL     1      74.364  64.771 112.143  0.00  0.00    +0.000 A 
ATOM     22  C6  UNL     1      74.612  65.768 113.103  0.00  0.00    +0.000 A 
ATOM     23  C7  UNL     1      75.044  67.038 112.683  0.00  0.00    +0.000 A 
BRANCH  18  25
ATOM     24  C1  UNL     1      75.138  69.359 109.871  0.00  0.00    +0.000 C 
ATOM     25  O1  UNL     1      75.664  68.595 110.954  0.00  0.00    +0.000 OA
ENDBRANCH  18  25
BRANCH  23  26
ATOM     26  O2  UNL     1      75.313  68.046 113.613  0.00  0.00    +0.000 OA
ATOM     27  H6  UNL     1      75.010  69.002 113.475  0.00  0.00    +0.000 HD
ENDBRANCH  23  26
BRANCH  22  28
ATOM     28  O3  UNL     1      74.457  65.524 114.478  0.00  0.00    +0.000 OA
ATOM     29  C8  UNL     1      75.441  64.908 115.307  0.00  0.00    +0.000 C 
ENDBRANCH  22  28
ENDBRANCH   1  20
BRANCH   8  30
ATOM     30  O6  UNL     1      73.884  61.415 107.642  0.00  0.00    +0.000 OA
BRANCH  30  31
ATOM     31  C15 UNL     1      72.648  60.784 107.333  0.00  0.00    +0.000 C 
ATOM     32  O7  UNL     1      72.557  60.557 105.935  0.00  0.00    +0.000 OA
ATOM     33  C16 UNL     1      73.409  59.539 105.418  0.00  0.00    +0.000 C 
ATOM     34  C17 UNL     1      74.824  60.029 105.077  0.00  0.00    +0.000 C 
ATOM     35  O8  UNL     1      75.607  59.053 104.393  0.00  0.00    +0.000 OA
ATOM     36  C18 UNL     1      75.132  57.722 104.581  0.00  0.00    +0.000 C 
ATOM     37  O9  UNL     1      74.703  57.491 105.914  0.00  0.00    +0.000 OA
ATOM     38  C19 UNL     1      73.514  58.212 106.224  0.00  0.00    +0.000 C 
ATOM     39  C20 UNL     1      73.490  58.429 107.745  0.00  0.00    +0.000 C 
ATOM     40  C21 UNL     1      72.457  59.488 108.147  0.00  0.00    +0.000 C 
BRANCH  36  41
ATOM     41  C22 UNL     1      76.243  56.769 104.269  0.00  0.00    +0.000 A 
ATOM     42  C23 UNL     1      77.516  57.115 103.838  0.00  0.00    +0.000 A 
ATOM     43  C24 UNL     1      78.342  56.007 103.606  0.00  0.00    +0.000 A 
ATOM     44  C25 UNL     1      77.722  54.787 103.848  0.00  0.00    +0.000 A 
ATOM     45  S1  UNL     1      76.143  55.089 104.346  0.00  0.00    +0.000 S 
ENDBRANCH  36  41
BRANCH  39  46
ATOM     46  O10 UNL     1      74.763  58.826 108.185  0.00  0.00    +0.000 OA
ATOM     47  H23 UNL     1      75.170  58.046 108.657  0.00  0.00    +0.000 HD
ENDBRANCH  39  46
BRANCH  40  48
ATOM     48  O11 UNL     1      71.144  58.993 108.028  0.00  0.00    +0.000 OA
ATOM     49  H25 UNL     1      70.702  59.077 108.911  0.00  0.00    +0.000 HD
ENDBRANCH  40  48
ENDBRANCH  30  31
ENDBRANCH   8  30
TORSDOF 9
ENDMDL
