MODEL 1
REMARK VINA RESULT:      -7.1      0.000      0.000
REMARK  Name = ./S1835.pdb
REMARK  26 active torsions:
REMARK  status: ('A' for Active; 'I' for Inactive)
REMARK    1  A    between atoms: C1_1  and  C2_2
REMARK    2  A    between atoms: C2_2  and  C3_3
REMARK    3  A    between atoms: C5_7  and  C6_8
REMARK    4  A    between atoms: C7_9  and  O3_10
REMARK    5  A    between atoms: O3_10  and  C8_11
REMARK    6  A    between atoms: C10_13  and  C11_14
REMARK    7  A    between atoms: C10_13  and  O4_15
REMARK    8  A    between atoms: O4_15  and  C12_16
REMARK    9  A    between atoms: C13_17  and  O5_18
REMARK   10  A    between atoms: C14_19  and  C15_20
REMARK   11  A    between atoms: C16_22  and  C17_23
REMARK   12  A    between atoms: C18_24  and  O7_25
REMARK   13  A    between atoms: O7_25  and  C19_26
REMARK   14  A    between atoms: C20_28  and  C21_29
REMARK   15  A    between atoms: C23_31  and  N1_34
REMARK   16  A    between atoms: C24_32  and  O9_33
REMARK   17  A    between atoms: N1_34  and  C25_35
REMARK   18  A    between atoms: N1_34  and  C26_36
REMARK   19  A    between atoms: C27_37  and  C28_38
REMARK   20  A    between atoms: C27_37  and  O10_39
REMARK   21  A    between atoms: C30_41  and  C31_42
REMARK   22  A    between atoms: N2_44  and  C33_45
REMARK   23  A    between atoms: C34_46  and  C35_47
REMARK   24  A    between atoms: C36_48  and  O11_49
REMARK   25  A    between atoms: C37_50  and  C38_51
REMARK   26  A    between atoms: C37_50  and  O12_52
REMARK                            x       y       z     vdW  Elec       q    Type
REMARK                         _______ _______ _______ _____ _____    ______ ____
ROOT
ATOM      1  C3  UNL     1      74.838  63.555 109.217  0.00  0.00    +0.000 C 
ATOM      2  O1  UNL     1      74.018  62.465 108.801  0.00  0.00    +0.000 OA
ATOM      3  C4  UNL     1      74.248  61.684 107.662  0.00  0.00    +0.000 C 
ATOM      4  O2  UNL     1      75.325  61.794 107.026  0.00  0.00    +0.000 OA
ATOM      5  C5  UNL     1      73.202  60.653 107.300  0.00  0.00    +0.000 C 
ATOM      6  C6  UNL     1      73.242  59.547 108.367  0.00  0.00    +0.000 C 
ATOM      7  C7  UNL     1      73.236  60.049 105.836  0.00  0.00    +0.000 C 
ATOM      8  C16 UNL     1      72.171  60.596 104.795  0.00  0.00    +0.000 C 
ATOM      9  C17 UNL     1      70.767  60.827 105.379  0.00  0.00    +0.000 C 
ATOM     10  C18 UNL     1      72.603  61.628 103.680  0.00  0.00    +0.000 C 
ATOM     11  C27 UNL     1      72.489  63.185 103.939  0.00  0.00    +0.000 C 
ATOM     12  C28 UNL     1      71.013  63.675 103.996  0.00  0.00    +0.000 C 
ATOM     13  C29 UNL     1      73.252  63.579 105.235  0.00  0.00    +0.000 C 
ATOM     14  C30 UNL     1      73.605  65.076 105.524  0.00  0.00    +0.000 C 
ATOM     15  C31 UNL     1      74.330  65.792 104.375  0.00  0.00    +0.000 C 
ATOM     16  C32 UNL     1      72.438  65.945 106.053  0.00  0.00    +0.000 C 
ATOM     17  N2  UNL     1      71.918  65.453 107.354  0.00  0.00    +0.000 NA
ATOM     18  C33 UNL     1      70.474  65.735 107.474  0.00  0.00    +0.000 C 
ATOM     19  C34 UNL     1      72.718  65.943 108.522  0.00  0.00    +0.000 C 
ATOM     20  C35 UNL     1      72.338  67.379 108.954  0.00  0.00    +0.000 C 
ATOM     21  C36 UNL     1      72.657  64.950 109.753  0.00  0.00    +0.000 C 
ATOM     22  C37 UNL     1      74.053  64.421 110.277  0.00  0.00    +0.000 C 
ATOM     23  C38 UNL     1      74.916  65.629 110.712  0.00  0.00    +0.000 C 
ENDROOT
BRANCH   1  25
ATOM     24  C1  UNL     1      77.399  63.629 109.075  0.00  0.00    +0.000 C 
ATOM     25  C2  UNL     1      76.186  62.998 109.762  0.00  0.00    +0.000 C 
ENDBRANCH   1  25
BRANCH  11  26
ATOM     26  O10 UNL     1      73.132  63.810 102.853  0.00  0.00    +0.000 OA
ATOM     27  H51 UNL     1      72.811  63.405 102.004  0.00  0.00    +0.000 HD
ENDBRANCH  11  26
BRANCH  21  28
ATOM     28  O11 UNL     1      71.737  63.897 109.572  0.00  0.00    +0.000 OA
ATOM     29  H68 UNL     1      72.123  63.068 109.946  0.00  0.00    +0.000 HD
ENDBRANCH  21  28
BRANCH  22  30
ATOM     30  O12 UNL     1      73.830  63.652 111.439  0.00  0.00    +0.000 OA
ATOM     31  H72 UNL     1      74.705  63.340 111.783  0.00  0.00    +0.000 HD
ENDBRANCH  22  30
BRANCH   7  32
ATOM     32  O3  UNL     1      74.546  60.042 105.272  0.00  0.00    +0.000 OA
BRANCH  32  33
ATOM     33  C8  UNL     1      75.066  58.730 105.070  0.00  0.00    +0.000 C 
ATOM     34  C9  UNL     1      74.719  58.243 103.645  0.00  0.00    +0.000 C 
ATOM     35  C10 UNL     1      75.694  57.168 103.131  0.00  0.00    +0.000 C 
ATOM     36  C11 UNL     1      75.502  55.883 103.996  0.00  0.00    +0.000 C 
ATOM     37  C13 UNL     1      77.154  57.738 103.214  0.00  0.00    +0.000 C 
ATOM     38  C14 UNL     1      77.329  58.858 104.285  0.00  0.00    +0.000 C 
ATOM     39  C15 UNL     1      77.305  60.281 103.701  0.00  0.00    +0.000 C 
ATOM     40  O6  UNL     1      76.452  58.709 105.392  0.00  0.00    +0.000 OA
BRANCH  35  41
ATOM     41  O4  UNL     1      75.318  56.945 101.771  0.00  0.00    +0.000 OA
ATOM     42  C12 UNL     1      75.433  58.085 100.938  0.00  0.00    +0.000 C 
ENDBRANCH  35  41
BRANCH  37  43
ATOM     43  O5  UNL     1      78.065  56.696 103.482  0.00  0.00    +0.000 OA
ATOM     44  H22 UNL     1      77.783  56.263 104.332  0.00  0.00    +0.000 HD
ENDBRANCH  37  43
ENDBRANCH  32  33
ENDBRANCH   7  32
BRANCH  10  45
ATOM     45  O7  UNL     1      71.823  61.336 102.521  0.00  0.00    +0.000 OA
BRANCH  45  46
ATOM     46  C19 UNL     1      72.577  60.944 101.385  0.00  0.00    +0.000 C 
ATOM     47  O8  UNL     1      72.968  62.127 100.707  0.00  0.00    +0.000 OA
ATOM     48  C20 UNL     1      73.879  61.868  99.642  0.00  0.00    +0.000 C 
ATOM     49  C21 UNL     1      75.328  61.962 100.130  0.00  0.00    +0.000 C 
ATOM     50  C22 UNL     1      73.607  60.532  98.906  0.00  0.00    +0.000 C 
ATOM     51  C23 UNL     1      72.095  60.203  98.946  0.00  0.00    +0.000 C 
ATOM     52  C24 UNL     1      71.690  60.074 100.457  0.00  0.00    +0.000 C 
BRANCH  51  53
ATOM     53  N1  UNL     1      71.256  61.214  98.223  0.00  0.00    +0.000 NA
ATOM     54  C25 UNL     1      69.812  60.988  98.481  0.00  0.00    +0.000 C 
ATOM     55  C26 UNL     1      71.474  61.159  96.760  0.00  0.00    +0.000 C 
ENDBRANCH  51  53
BRANCH  52  56
ATOM     56  O9  UNL     1      71.798  58.737 100.860  0.00  0.00    +0.000 OA
ATOM     57  H41 UNL     1      70.872  58.403 100.982  0.00  0.00    +0.000 HD
ENDBRANCH  52  56
ENDBRANCH  45  46
ENDBRANCH  10  45
TORSDOF 12
ENDMDL
MODEL 2
REMARK VINA RESULT:      -7.0      3.324      9.869
REMARK  Name = ./S1835.pdb
REMARK  26 active torsions:
REMARK  status: ('A' for Active; 'I' for Inactive)
REMARK    1  A    between atoms: C1_1  and  C2_2
REMARK    2  A    between atoms: C2_2  and  C3_3
REMARK    3  A    between atoms: C5_7  and  C6_8
REMARK    4  A    between atoms: C7_9  and  O3_10
REMARK    5  A    between atoms: O3_10  and  C8_11
REMARK    6  A    between atoms: C10_13  and  C11_14
REMARK    7  A    between atoms: C10_13  and  O4_15
REMARK    8  A    between atoms: O4_15  and  C12_16
REMARK    9  A    between atoms: C13_17  and  O5_18
REMARK   10  A    between atoms: C14_19  and  C15_20
REMARK   11  A    between atoms: C16_22  and  C17_23
REMARK   12  A    between atoms: C18_24  and  O7_25
REMARK   13  A    between atoms: O7_25  and  C19_26
REMARK   14  A    between atoms: C20_28  and  C21_29
REMARK   15  A    between atoms: C23_31  and  N1_34
REMARK   16  A    between atoms: C24_32  and  O9_33
REMARK   17  A    between atoms: N1_34  and  C25_35
REMARK   18  A    between atoms: N1_34  and  C26_36
REMARK   19  A    between atoms: C27_37  and  C28_38
REMARK   20  A    between atoms: C27_37  and  O10_39
REMARK   21  A    between atoms: C30_41  and  C31_42
REMARK   22  A    between atoms: N2_44  and  C33_45
REMARK   23  A    between atoms: C34_46  and  C35_47
REMARK   24  A    between atoms: C36_48  and  O11_49
REMARK   25  A    between atoms: C37_50  and  C38_51
REMARK   26  A    between atoms: C37_50  and  O12_52
REMARK                            x       y       z     vdW  Elec       q    Type
REMARK                         _______ _______ _______ _____ _____    ______ ____
ROOT
ATOM      1  C3  UNL     1      73.437  59.948 107.158  0.00  0.00    +0.000 C 
ATOM      2  O1  UNL     1      74.532  60.523 107.871  0.00  0.00    +0.000 OA
ATOM      3  C4  UNL     1      74.457  61.693 108.637  0.00  0.00    +0.000 C 
ATOM      4  O2  UNL     1      73.342  62.213 108.892  0.00  0.00    +0.000 OA
ATOM      5  C5  UNL     1      75.746  62.231 109.217  0.00  0.00    +0.000 C 
ATOM      6  C6  UNL     1      76.218  61.254 110.305  0.00  0.00    +0.000 C 
ATOM      7  C7  UNL     1      75.754  63.727 109.736  0.00  0.00    +0.000 C 
ATOM      8  C16 UNL     1      76.433  64.819 108.807  0.00  0.00    +0.000 C 
ATOM      9  C17 UNL     1      77.726  64.356 108.117  0.00  0.00    +0.000 C 
ATOM     10  C18 UNL     1      75.543  65.806 107.953  0.00  0.00    +0.000 C 
ATOM     11  C27 UNL     1      75.136  65.439 106.468  0.00  0.00    +0.000 C 
ATOM     12  C28 UNL     1      76.346  65.485 105.490  0.00  0.00    +0.000 C 
ATOM     13  C29 UNL     1      74.441  64.050 106.421  0.00  0.00    +0.000 C 
ATOM     14  C30 UNL     1      73.624  63.614 105.158  0.00  0.00    +0.000 C 
ATOM     15  C31 UNL     1      72.567  64.629 104.702  0.00  0.00    +0.000 C 
ATOM     16  C32 UNL     1      74.469  63.133 103.954  0.00  0.00    +0.000 C 
ATOM     17  N2  UNL     1      75.275  61.929 104.279  0.00  0.00    +0.000 NA
ATOM     18  C33 UNL     1      76.534  61.926 103.508  0.00  0.00    +0.000 C 
ATOM     19  C34 UNL     1      74.497  60.656 104.149  0.00  0.00    +0.000 C 
ATOM     20  C35 UNL     1      74.401  60.152 102.690  0.00  0.00    +0.000 C 
ATOM     21  C36 UNL     1      75.043  59.517 105.103  0.00  0.00    +0.000 C 
ATOM     22  C37 UNL     1      73.989  58.905 106.113  0.00  0.00    +0.000 C 
ATOM     23  C38 UNL     1      72.817  58.297 105.306  0.00  0.00    +0.000 C 
ENDROOT
BRANCH   1  25
ATOM     24  C1  UNL     1      73.151  58.697 109.381  0.00  0.00    +0.000 C 
ATOM     25  C2  UNL     1      72.441  59.322 108.178  0.00  0.00    +0.000 C 
ENDBRANCH   1  25
BRANCH  11  26
ATOM     26  O10 UNL     1      74.194  66.408 106.070  0.00  0.00    +0.000 OA
ATOM     27  H51 UNL     1      73.728  66.762 106.873  0.00  0.00    +0.000 HD
ENDBRANCH  11  26
BRANCH  21  28
ATOM     28  O11 UNL     1      76.244  59.865 105.753  0.00  0.00    +0.000 OA
ATOM     29  H68 UNL     1      76.597  59.069 106.221  0.00  0.00    +0.000 HD
ENDBRANCH  21  28
BRANCH  22  30
ATOM     30  O12 UNL     1      74.600  57.832 106.797  0.00  0.00    +0.000 OA
ATOM     31  H72 UNL     1      75.082  57.272 106.137  0.00  0.00    +0.000 HD
ENDBRANCH  22  30
BRANCH   7  32
ATOM     32  O3  UNL     1      74.473  64.163 110.185  0.00  0.00    +0.000 OA
BRANCH  32  33
ATOM     33  C8  UNL     1      74.418  64.399 111.590  0.00  0.00    +0.000 C 
ATOM     34  C9  UNL     1      75.182  65.698 111.932  0.00  0.00    +0.000 C 
ATOM     35  C10 UNL     1      74.698  66.344 113.244  0.00  0.00    +0.000 C 
ATOM     36  C11 UNL     1      75.077  65.394 114.423  0.00  0.00    +0.000 C 
ATOM     37  C13 UNL     1      73.151  66.588 113.138  0.00  0.00    +0.000 C 
ATOM     38  C14 UNL     1      72.434  65.631 112.136  0.00  0.00    +0.000 C 
ATOM     39  C15 UNL     1      72.157  66.270 110.764  0.00  0.00    +0.000 C 
ATOM     40  O6  UNL     1      73.065  64.364 112.030  0.00  0.00    +0.000 OA
BRANCH  35  41
ATOM     41  O4  UNL     1      75.398  67.586 113.326  0.00  0.00    +0.000 OA
ATOM     42  C12 UNL     1      75.730  67.985 114.644  0.00  0.00    +0.000 C 
ENDBRANCH  35  41
BRANCH  37  43
ATOM     43  O5  UNL     1      72.554  66.456 114.409  0.00  0.00    +0.000 OA
ATOM     44  H22 UNL     1      72.264  67.362 114.699  0.00  0.00    +0.000 HD
ENDBRANCH  37  43
ENDBRANCH  32  33
ENDBRANCH   7  32
BRANCH  10  45
ATOM     45  O7  UNL     1      76.234  67.053 107.905  0.00  0.00    +0.000 OA
BRANCH  45  46
ATOM     46  C19 UNL     1      75.526  68.144 108.471  0.00  0.00    +0.000 C 
ATOM     47  O8  UNL     1      74.935  68.865 107.404  0.00  0.00    +0.000 OA
ATOM     48  C20 UNL     1      74.052  69.887 107.860  0.00  0.00    +0.000 C 
ATOM     49  C21 UNL     1      72.618  69.358 107.972  0.00  0.00    +0.000 C 
ATOM     50  C22 UNL     1      74.517  70.565 109.173  0.00  0.00    +0.000 C 
ATOM     51  C23 UNL     1      76.062  70.558 109.255  0.00  0.00    +0.000 C 
ATOM     52  C24 UNL     1      76.519  69.056 109.237  0.00  0.00    +0.000 C 
BRANCH  51  53
ATOM     53  N1  UNL     1      76.712  71.356 108.164  0.00  0.00    +0.000 NA
ATOM     54  C25 UNL     1      78.073  70.845 107.870  0.00  0.00    +0.000 C 
ATOM     55  C26 UNL     1      76.827  72.786 108.528  0.00  0.00    +0.000 C 
ENDBRANCH  51  53
BRANCH  52  56
ATOM     56  O9  UNL     1      76.637  68.585 110.551  0.00  0.00    +0.000 OA
ATOM     57  H41 UNL     1      76.704  69.385 111.134  0.00  0.00    +0.000 HD
ENDBRANCH  52  56
ENDBRANCH  45  46
ENDBRANCH  10  45
TORSDOF 12
ENDMDL
MODEL 3
REMARK VINA RESULT:      -6.9      2.618      9.466
REMARK  Name = ./S1835.pdb
REMARK  26 active torsions:
REMARK  status: ('A' for Active; 'I' for Inactive)
REMARK    1  A    between atoms: C1_1  and  C2_2
REMARK    2  A    between atoms: C2_2  and  C3_3
REMARK    3  A    between atoms: C5_7  and  C6_8
REMARK    4  A    between atoms: C7_9  and  O3_10
REMARK    5  A    between atoms: O3_10  and  C8_11
REMARK    6  A    between atoms: C10_13  and  C11_14
REMARK    7  A    between atoms: C10_13  and  O4_15
REMARK    8  A    between atoms: O4_15  and  C12_16
REMARK    9  A    between atoms: C13_17  and  O5_18
REMARK   10  A    between atoms: C14_19  and  C15_20
REMARK   11  A    between atoms: C16_22  and  C17_23
REMARK   12  A    between atoms: C18_24  and  O7_25
REMARK   13  A    between atoms: O7_25  and  C19_26
REMARK   14  A    between atoms: C20_28  and  C21_29
REMARK   15  A    between atoms: C23_31  and  N1_34
REMARK   16  A    between atoms: C24_32  and  O9_33
REMARK   17  A    between atoms: N1_34  and  C25_35
REMARK   18  A    between atoms: N1_34  and  C26_36
REMARK   19  A    between atoms: C27_37  and  C28_38
REMARK   20  A    between atoms: C27_37  and  O10_39
REMARK   21  A    between atoms: C30_41  and  C31_42
REMARK   22  A    between atoms: N2_44  and  C33_45
REMARK   23  A    between atoms: C34_46  and  C35_47
REMARK   24  A    between atoms: C36_48  and  O11_49
REMARK   25  A    between atoms: C37_50  and  C38_51
REMARK   26  A    between atoms: C37_50  and  O12_52
REMARK                            x       y       z     vdW  Elec       q    Type
REMARK                         _______ _______ _______ _____ _____    ______ ____
ROOT
ATOM      1  C3  UNL     1      71.636  56.790  96.959  0.00  0.00    +0.000 C 
ATOM      2  O1  UNL     1      72.713  57.610  97.409  0.00  0.00    +0.000 OA
ATOM      3  C4  UNL     1      73.066  57.796  98.752  0.00  0.00    +0.000 C 
ATOM      4  O2  UNL     1      72.547  57.085  99.647  0.00  0.00    +0.000 OA
ATOM      5  C5  UNL     1      74.152  58.804  99.054  0.00  0.00    +0.000 C 
ATOM      6  C6  UNL     1      75.480  58.239  98.529  0.00  0.00    +0.000 C 
ATOM      7  C7  UNL     1      74.288  59.317 100.547  0.00  0.00    +0.000 C 
ATOM      8  C16 UNL     1      73.711  60.756 100.882  0.00  0.00    +0.000 C 
ATOM      9  C17 UNL     1      73.967  61.815  99.798  0.00  0.00    +0.000 C 
ATOM     10  C18 UNL     1      72.335  60.906 101.644  0.00  0.00    +0.000 C 
ATOM     11  C27 UNL     1      70.980  61.039 100.835  0.00  0.00    +0.000 C 
ATOM     12  C28 UNL     1      70.860  62.401 100.092  0.00  0.00    +0.000 C 
ATOM     13  C29 UNL     1      70.819  59.853  99.844  0.00  0.00    +0.000 C 
ATOM     14  C30 UNL     1      69.427  59.544  99.196  0.00  0.00    +0.000 C 
ATOM     15  C31 UNL     1      68.274  59.414 100.201  0.00  0.00    +0.000 C 
ATOM     16  C32 UNL     1      69.022  60.466  98.022  0.00  0.00    +0.000 C 
ATOM     17  N2  UNL     1      69.966  60.367  96.879  0.00  0.00    +0.000 NA
ATOM     18  C33 UNL     1      70.050  61.656  96.165  0.00  0.00    +0.000 C 
ATOM     19  C34 UNL     1      69.669  59.208  95.979  0.00  0.00    +0.000 C 
ATOM     20  C35 UNL     1      68.536  59.503  94.968  0.00  0.00    +0.000 C 
ATOM     21  C36 UNL     1      70.961  58.677  95.235  0.00  0.00    +0.000 C 
ATOM     22  C37 UNL     1      71.302  57.148  95.460  0.00  0.00    +0.000 C 
ATOM     23  C38 UNL     1      70.112  56.292  94.967  0.00  0.00    +0.000 C 
ENDROOT
BRANCH   1  25
ATOM     24  C1  UNL     1      70.986  54.531  97.989  0.00  0.00    +0.000 C 
ATOM     25  C2  UNL     1      72.020  55.294  97.159  0.00  0.00    +0.000 C 
ENDBRANCH   1  25
BRANCH  11  26
ATOM     26  O10 UNL     1      69.947  60.950 101.788  0.00  0.00    +0.000 OA
ATOM     27  H51 UNL     1      69.119  60.625 101.345  0.00  0.00    +0.000 HD
ENDBRANCH  11  26
BRANCH  21  28
ATOM     28  O11 UNL     1      72.092  59.496  95.433  0.00  0.00    +0.000 OA
ATOM     29  H68 UNL     1      72.755  59.301  94.726  0.00  0.00    +0.000 HD
ENDBRANCH  21  28
BRANCH  22  30
ATOM     30  O12 UNL     1      72.401  56.812  94.640  0.00  0.00    +0.000 OA
ATOM     31  H72 UNL     1      72.659  55.874  94.828  0.00  0.00    +0.000 HD
ENDBRANCH  22  30
BRANCH   7  32
ATOM     32  O3  UNL     1      73.849  58.354 101.504  0.00  0.00    +0.000 OA
BRANCH  32  33
ATOM     33  C8  UNL     1      74.509  58.468 102.763  0.00  0.00    +0.000 C 
ATOM     34  C9  UNL     1      73.529  58.102 103.900  0.00  0.00    +0.000 C 
ATOM     35  C10 UNL     1      74.250  57.620 105.173  0.00  0.00    +0.000 C 
ATOM     36  C11 UNL     1      75.045  58.824 105.768  0.00  0.00    +0.000 C 
ATOM     37  C13 UNL     1      75.179  56.413 104.792  0.00  0.00    +0.000 C 
ATOM     38  C14 UNL     1      75.619  56.410 103.295  0.00  0.00    +0.000 C 
ATOM     39  C15 UNL     1      74.798  55.454 102.412  0.00  0.00    +0.000 C 
ATOM     40  O6  UNL     1      75.715  57.714 102.742  0.00  0.00    +0.000 OA
BRANCH  35  41
ATOM     41  O4  UNL     1      73.208  57.194 106.051  0.00  0.00    +0.000 OA
ATOM     42  C12 UNL     1      73.124  57.929 107.259  0.00  0.00    +0.000 C 
ENDBRANCH  35  41
BRANCH  37  43
ATOM     43  O5  UNL     1      76.327  56.410 105.610  0.00  0.00    +0.000 OA
ATOM     44  H22 UNL     1      76.093  56.876 106.457  0.00  0.00    +0.000 HD
ENDBRANCH  37  43
ENDBRANCH  32  33
ENDBRANCH   7  32
BRANCH  10  45
ATOM     45  O7  UNL     1      72.445  62.060 102.474  0.00  0.00    +0.000 OA
BRANCH  45  46
ATOM     46  C19 UNL     1      72.554  61.782 103.861  0.00  0.00    +0.000 C 
ATOM     47  O8  UNL     1      71.297  62.067 104.451  0.00  0.00    +0.000 OA
ATOM     48  C20 UNL     1      71.231  61.661 105.816  0.00  0.00    +0.000 C 
ATOM     49  C21 UNL     1      70.688  60.233 105.934  0.00  0.00    +0.000 C 
ATOM     50  C22 UNL     1      72.570  61.830 106.576  0.00  0.00    +0.000 C 
ATOM     51  C23 UNL     1      73.366  63.021 105.991  0.00  0.00    +0.000 C 
ATOM     52  C24 UNL     1      73.645  62.694 104.482  0.00  0.00    +0.000 C 
BRANCH  51  53
ATOM     53  N1  UNL     1      72.664  64.336 106.161  0.00  0.00    +0.000 NA
ATOM     54  C25 UNL     1      73.105  65.310 105.133  0.00  0.00    +0.000 C 
ATOM     55  C26 UNL     1      72.923  64.925 107.493  0.00  0.00    +0.000 C 
ENDBRANCH  51  53
BRANCH  52  56
ATOM     56  O9  UNL     1      74.885  62.053 104.361  0.00  0.00    +0.000 OA
ATOM     57  H41 UNL     1      75.471  62.436 105.063  0.00  0.00    +0.000 HD
ENDBRANCH  52  56
ENDBRANCH  45  46
ENDBRANCH  10  45
TORSDOF 12
ENDMDL
MODEL 4
REMARK VINA RESULT:      -6.8      2.455      9.617
REMARK  Name = ./S1835.pdb
REMARK  26 active torsions:
REMARK  status: ('A' for Active; 'I' for Inactive)
REMARK    1  A    between atoms: C1_1  and  C2_2
REMARK    2  A    between atoms: C2_2  and  C3_3
REMARK    3  A    between atoms: C5_7  and  C6_8
REMARK    4  A    between atoms: C7_9  and  O3_10
REMARK    5  A    between atoms: O3_10  and  C8_11
REMARK    6  A    between atoms: C10_13  and  C11_14
REMARK    7  A    between atoms: C10_13  and  O4_15
REMARK    8  A    between atoms: O4_15  and  C12_16
REMARK    9  A    between atoms: C13_17  and  O5_18
REMARK   10  A    between atoms: C14_19  and  C15_20
REMARK   11  A    between atoms: C16_22  and  C17_23
REMARK   12  A    between atoms: C18_24  and  O7_25
REMARK   13  A    between atoms: O7_25  and  C19_26
REMARK   14  A    between atoms: C20_28  and  C21_29
REMARK   15  A    between atoms: C23_31  and  N1_34
REMARK   16  A    between atoms: C24_32  and  O9_33
REMARK   17  A    between atoms: N1_34  and  C25_35
REMARK   18  A    between atoms: N1_34  and  C26_36
REMARK   19  A    between atoms: C27_37  and  C28_38
REMARK   20  A    between atoms: C27_37  and  O10_39
REMARK   21  A    between atoms: C30_41  and  C31_42
REMARK   22  A    between atoms: N2_44  and  C33_45
REMARK   23  A    between atoms: C34_46  and  C35_47
REMARK   24  A    between atoms: C36_48  and  O11_49
REMARK   25  A    between atoms: C37_50  and  C38_51
REMARK   26  A    between atoms: C37_50  and  O12_52
REMARK                            x       y       z     vdW  Elec       q    Type
REMARK                         _______ _______ _______ _____ _____    ______ ____
ROOT
ATOM      1  C3  UNL     1      71.590  61.905 101.514  0.00  0.00    +0.000 C 
ATOM      2  O1  UNL     1      71.515  61.359 102.831  0.00  0.00    +0.000 OA
ATOM      3  C4  UNL     1      71.759  62.080 104.007  0.00  0.00    +0.000 C 
ATOM      4  O2  UNL     1      71.883  63.329 103.970  0.00  0.00    +0.000 OA
ATOM      5  C5  UNL     1      71.763  61.310 105.308  0.00  0.00    +0.000 C 
ATOM      6  C6  UNL     1      70.323  60.856 105.593  0.00  0.00    +0.000 C 
ATOM      7  C7  UNL     1      72.415  62.003 106.574  0.00  0.00    +0.000 C 
ATOM      8  C16 UNL     1      73.868  61.531 107.000  0.00  0.00    +0.000 C 
ATOM      9  C17 UNL     1      74.106  60.016 106.885  0.00  0.00    +0.000 C 
ATOM     10  C18 UNL     1      75.126  62.427 106.672  0.00  0.00    +0.000 C 
ATOM     11  C27 UNL     1      75.935  62.214 105.327  0.00  0.00    +0.000 C 
ATOM     12  C28 UNL     1      76.729  60.875 105.314  0.00  0.00    +0.000 C 
ATOM     13  C29 UNL     1      74.985  62.304 104.100  0.00  0.00    +0.000 C 
ATOM     14  C30 UNL     1      75.567  62.494 102.659  0.00  0.00    +0.000 C 
ATOM     15  C31 UNL     1      76.549  63.665 102.518  0.00  0.00    +0.000 C 
ATOM     16  C32 UNL     1      76.147  61.217 102.004  0.00  0.00    +0.000 C 
ATOM     17  N2  UNL     1      75.119  60.160 101.828  0.00  0.00    +0.000 NA
ATOM     18  C33 UNL     1      75.730  58.821 101.936  0.00  0.00    +0.000 C 
ATOM     19  C34 UNL     1      74.305  60.343 100.584  0.00  0.00    +0.000 C 
ATOM     20  C35 UNL     1      75.014  59.813  99.315  0.00  0.00    +0.000 C 
ATOM     21  C36 UNL     1      72.854  59.725 100.717  0.00  0.00    +0.000 C 
ATOM     22  C37 UNL     1      71.656  60.727 100.467  0.00  0.00    +0.000 C 
ATOM     23  C38 UNL     1      71.773  61.302  99.036  0.00  0.00    +0.000 C 
ENDROOT
BRANCH   1  25
ATOM     24  C1  UNL     1      69.102  62.345 101.964  0.00  0.00    +0.000 C 
ATOM     25  C2  UNL     1      70.377  62.855 101.289  0.00  0.00    +0.000 C 
ENDBRANCH   1  25
BRANCH  11  26
ATOM     26  O10 UNL     1      76.848  63.283 105.247  0.00  0.00    +0.000 OA
ATOM     27  H51 UNL     1      77.534  63.183 105.959  0.00  0.00    +0.000 HD
ENDBRANCH  11  26
BRANCH  21  28
ATOM     28  O11 UNL     1      72.673  58.983 101.903  0.00  0.00    +0.000 OA
ATOM     29  H68 UNL     1      72.584  59.611 102.661  0.00  0.00    +0.000 HD
ENDBRANCH  21  28
BRANCH  22  30
ATOM     30  O12 UNL     1      70.449  59.996 100.505  0.00  0.00    +0.000 OA
ATOM     31  H72 UNL     1      69.955  60.247 101.327  0.00  0.00    +0.000 HD
ENDBRANCH  22  30
BRANCH   7  32
ATOM     32  O3  UNL     1      72.333  63.427 106.528  0.00  0.00    +0.000 OA
BRANCH  32  33
ATOM     33  C8  UNL     1      71.616  63.987 107.625  0.00  0.00    +0.000 C 
ATOM     34  C9  UNL     1      72.603  64.657 108.607  0.00  0.00    +0.000 C 
ATOM     35  C10 UNL     1      71.942  65.760 109.454  0.00  0.00    +0.000 C 
ATOM     36  C11 UNL     1      70.905  65.087 110.406  0.00  0.00    +0.000 C 
ATOM     37  C13 UNL     1      71.284  66.805 108.485  0.00  0.00    +0.000 C 
ATOM     38  C14 UNL     1      70.911  66.216 107.090  0.00  0.00    +0.000 C 
ATOM     39  C15 UNL     1      71.936  66.539 105.989  0.00  0.00    +0.000 C 
ATOM     40  O6  UNL     1      70.582  64.836 107.139  0.00  0.00    +0.000 OA
BRANCH  35  41
ATOM     41  O4  UNL     1      73.013  66.358 110.185  0.00  0.00    +0.000 OA
ATOM     42  C12 UNL     1      72.807  66.413 111.586  0.00  0.00    +0.000 C 
ENDBRANCH  35  41
BRANCH  37  43
ATOM     43  O5  UNL     1      70.128  67.352 109.079  0.00  0.00    +0.000 OA
ATOM     44  H22 UNL     1      69.628  67.838 108.370  0.00  0.00    +0.000 HD
ENDBRANCH  37  43
ENDBRANCH  32  33
ENDBRANCH   7  32
BRANCH  10  45
ATOM     45  O7  UNL     1      76.047  62.259 107.748  0.00  0.00    +0.000 OA
BRANCH  45  46
ATOM     46  C19 UNL     1      75.810  63.100 108.866  0.00  0.00    +0.000 C 
ATOM     47  O8  UNL     1      76.909  63.991 108.966  0.00  0.00    +0.000 OA
ATOM     48  C20 UNL     1      76.702  65.001 109.950  0.00  0.00    +0.000 C 
ATOM     49  C21 UNL     1      76.065  66.247 109.326  0.00  0.00    +0.000 C 
ATOM     50  C22 UNL     1      75.907  64.508 111.186  0.00  0.00    +0.000 C 
ATOM     51  C23 UNL     1      76.186  63.006 111.431  0.00  0.00    +0.000 C 
ATOM     52  C24 UNL     1      75.716  62.233 110.148  0.00  0.00    +0.000 C 
BRANCH  51  53
ATOM     53  N1  UNL     1      77.620  62.722 111.764  0.00  0.00    +0.000 NA
ATOM     54  C25 UNL     1      78.044  61.411 111.214  0.00  0.00    +0.000 C 
ATOM     55  C26 UNL     1      77.848  62.702 113.225  0.00  0.00    +0.000 C 
ENDBRANCH  51  53
BRANCH  52  56
ATOM     56  O9  UNL     1      74.388  61.818 110.310  0.00  0.00    +0.000 OA
ATOM     57  H41 UNL     1      74.418  60.850 110.521  0.00  0.00    +0.000 HD
ENDBRANCH  52  56
ENDBRANCH  45  46
ENDBRANCH  10  45
TORSDOF 12
ENDMDL
MODEL 5
REMARK VINA RESULT:      -6.8      2.941      9.120
REMARK  Name = ./S1835.pdb
REMARK  26 active torsions:
REMARK  status: ('A' for Active; 'I' for Inactive)
REMARK    1  A    between atoms: C1_1  and  C2_2
REMARK    2  A    between atoms: C2_2  and  C3_3
REMARK    3  A    between atoms: C5_7  and  C6_8
REMARK    4  A    between atoms: C7_9  and  O3_10
REMARK    5  A    between atoms: O3_10  and  C8_11
REMARK    6  A    between atoms: C10_13  and  C11_14
REMARK    7  A    between atoms: C10_13  and  O4_15
REMARK    8  A    between atoms: O4_15  and  C12_16
REMARK    9  A    between atoms: C13_17  and  O5_18
REMARK   10  A    between atoms: C14_19  and  C15_20
REMARK   11  A    between atoms: C16_22  and  C17_23
REMARK   12  A    between atoms: C18_24  and  O7_25
REMARK   13  A    between atoms: O7_25  and  C19_26
REMARK   14  A    between atoms: C20_28  and  C21_29
REMARK   15  A    between atoms: C23_31  and  N1_34
REMARK   16  A    between atoms: C24_32  and  O9_33
REMARK   17  A    between atoms: N1_34  and  C25_35
REMARK   18  A    between atoms: N1_34  and  C26_36
REMARK   19  A    between atoms: C27_37  and  C28_38
REMARK   20  A    between atoms: C27_37  and  O10_39
REMARK   21  A    between atoms: C30_41  and  C31_42
REMARK   22  A    between atoms: N2_44  and  C33_45
REMARK   23  A    between atoms: C34_46  and  C35_47
REMARK   24  A    between atoms: C36_48  and  O11_49
REMARK   25  A    between atoms: C37_50  and  C38_51
REMARK   26  A    between atoms: C37_50  and  O12_52
REMARK                            x       y       z     vdW  Elec       q    Type
REMARK                         _______ _______ _______ _____ _____    ______ ____
ROOT
ATOM      1  C3  UNL     1      73.522  59.140 106.597  0.00  0.00    +0.000 C 
ATOM      2  O1  UNL     1      74.471  60.014 107.205  0.00  0.00    +0.000 OA
ATOM      3  C4  UNL     1      74.153  61.232 107.819  0.00  0.00    +0.000 C 
ATOM      4  O2  UNL     1      72.954  61.541 108.031  0.00  0.00    +0.000 OA
ATOM      5  C5  UNL     1      75.301  62.093 108.296  0.00  0.00    +0.000 C 
ATOM      6  C6  UNL     1      75.960  61.383 109.489  0.00  0.00    +0.000 C 
ATOM      7  C7  UNL     1      74.998  63.614 108.621  0.00  0.00    +0.000 C 
ATOM      8  C16 UNL     1      75.441  64.693 107.546  0.00  0.00    +0.000 C 
ATOM      9  C17 UNL     1      76.805  64.420 106.891  0.00  0.00    +0.000 C 
ATOM     10  C18 UNL     1      74.370  65.357 106.594  0.00  0.00    +0.000 C 
ATOM     11  C27 UNL     1      74.054  64.727 105.177  0.00  0.00    +0.000 C 
ATOM     12  C28 UNL     1      75.232  64.894 104.173  0.00  0.00    +0.000 C 
ATOM     13  C29 UNL     1      73.661  63.230 105.322  0.00  0.00    +0.000 C 
ATOM     14  C30 UNL     1      72.957  62.477 104.144  0.00  0.00    +0.000 C 
ATOM     15  C31 UNL     1      71.715  63.186 103.587  0.00  0.00    +0.000 C 
ATOM     16  C32 UNL     1      73.888  62.029 102.991  0.00  0.00    +0.000 C 
ATOM     17  N2  UNL     1      74.924  61.068 103.449  0.00  0.00    +0.000 NA
ATOM     18  C33 UNL     1      76.159  61.224 102.656  0.00  0.00    +0.000 C 
ATOM     19  C34 UNL     1      74.426  59.657 103.499  0.00  0.00    +0.000 C 
ATOM     20  C35 UNL     1      74.442  58.960 102.118  0.00  0.00    +0.000 C 
ATOM     21  C36 UNL     1      75.190  58.786 104.577  0.00  0.00    +0.000 C 
ATOM     22  C37 UNL     1      74.282  58.106 105.680  0.00  0.00    +0.000 C 
ATOM     23  C38 UNL     1      73.263  57.172 104.984  0.00  0.00    +0.000 C 
ENDROOT
BRANCH   1  25
ATOM     24  C1  UNL     1      71.170  58.680 107.516  0.00  0.00    +0.000 C 
ATOM     25  C2  UNL     1      72.672  58.460 107.710  0.00  0.00    +0.000 C 
ENDBRANCH   1  25
BRANCH  11  26
ATOM     26  O10 UNL     1      72.934  65.422 104.681  0.00  0.00    +0.000 OA
ATOM     27  H51 UNL     1      72.109  64.909 104.890  0.00  0.00    +0.000 HD
ENDBRANCH  11  26
BRANCH  21  28
ATOM     28  O11 UNL     1      76.291  59.454 105.151  0.00  0.00    +0.000 OA
ATOM     29  H68 UNL     1      76.080  60.418 105.218  0.00  0.00    +0.000 HD
ENDBRANCH  21  28
BRANCH  22  30
ATOM     30  O12 UNL     1      75.098  57.279 106.481  0.00  0.00    +0.000 OA
ATOM     31  H72 UNL     1      74.515  56.669 107.000  0.00  0.00    +0.000 HD
ENDBRANCH  22  30
BRANCH   7  32
ATOM     32  O3  UNL     1      73.653  63.832 109.040  0.00  0.00    +0.000 OA
BRANCH  32  33
ATOM     33  C8  UNL     1      73.498  63.841 110.457  0.00  0.00    +0.000 C 
ATOM     34  C9  UNL     1      74.620  64.689 111.099  0.00  0.00    +0.000 C 
ATOM     35  C10 UNL     1      74.226  65.248 112.479  0.00  0.00    +0.000 C 
ATOM     36  C11 UNL     1      74.082  64.048 113.468  0.00  0.00    +0.000 C 
ATOM     37  C13 UNL     1      72.895  66.065 112.324  0.00  0.00    +0.000 C 
ATOM     38  C14 UNL     1      72.026  65.620 111.107  0.00  0.00    +0.000 C 
ATOM     39  C15 UNL     1      72.179  66.528 109.874  0.00  0.00    +0.000 C 
ATOM     40  O6  UNL     1      72.174  64.244 110.792  0.00  0.00    +0.000 OA
BRANCH  35  41
ATOM     41  O4  UNL     1      75.303  66.108 112.852  0.00  0.00    +0.000 OA
ATOM     42  C12 UNL     1      75.146  67.454 112.440  0.00  0.00    +0.000 C 
ENDBRANCH  35  41
BRANCH  37  43
ATOM     43  O5  UNL     1      72.126  65.963 113.501  0.00  0.00    +0.000 OA
ATOM     44  H22 UNL     1      71.171  66.076 113.247  0.00  0.00    +0.000 HD
ENDBRANCH  37  43
ENDBRANCH  32  33
ENDBRANCH   7  32
BRANCH  10  45
ATOM     45  O7  UNL     1      74.789  66.703 106.372  0.00  0.00    +0.000 OA
BRANCH  45  46
ATOM     46  C19 UNL     1      73.954  67.687 106.960  0.00  0.00    +0.000 C 
ATOM     47  O8  UNL     1      73.135  68.218 105.931  0.00  0.00    +0.000 OA
ATOM     48  C20 UNL     1      72.131  69.096 106.433  0.00  0.00    +0.000 C 
ATOM     49  C21 UNL     1      70.837  68.330 106.729  0.00  0.00    +0.000 C 
ATOM     50  C22 UNL     1      72.594  69.934 107.651  0.00  0.00    +0.000 C 
ATOM     51  C23 UNL     1      74.114  70.205 107.561  0.00  0.00    +0.000 C 
ATOM     52  C24 UNL     1      74.835  68.811 107.566  0.00  0.00    +0.000 C 
BRANCH  51  53
ATOM     53  N1  UNL     1      74.493  71.030 106.367  0.00  0.00    +0.000 NA
ATOM     54  C25 UNL     1      75.894  70.761 105.958  0.00  0.00    +0.000 C 
ATOM     55  C26 UNL     1      74.364  72.478 106.640  0.00  0.00    +0.000 C 
ENDBRANCH  51  53
BRANCH  52  56
ATOM     56  O9  UNL     1      75.168  68.458 108.879  0.00  0.00    +0.000 OA
ATOM     57  H41 UNL     1      74.431  68.786 109.456  0.00  0.00    +0.000 HD
ENDBRANCH  52  56
ENDBRANCH  45  46
ENDBRANCH  10  45
TORSDOF 12
ENDMDL
MODEL 6
REMARK VINA RESULT:      -6.7      2.991      9.470
REMARK  Name = ./S1835.pdb
REMARK  26 active torsions:
REMARK  status: ('A' for Active; 'I' for Inactive)
REMARK    1  A    between atoms: C1_1  and  C2_2
REMARK    2  A    between atoms: C2_2  and  C3_3
REMARK    3  A    between atoms: C5_7  and  C6_8
REMARK    4  A    between atoms: C7_9  and  O3_10
REMARK    5  A    between atoms: O3_10  and  C8_11
REMARK    6  A    between atoms: C10_13  and  C11_14
REMARK    7  A    between atoms: C10_13  and  O4_15
REMARK    8  A    between atoms: O4_15  and  C12_16
REMARK    9  A    between atoms: C13_17  and  O5_18
REMARK   10  A    between atoms: C14_19  and  C15_20
REMARK   11  A    between atoms: C16_22  and  C17_23
REMARK   12  A    between atoms: C18_24  and  O7_25
REMARK   13  A    between atoms: O7_25  and  C19_26
REMARK   14  A    between atoms: C20_28  and  C21_29
REMARK   15  A    between atoms: C23_31  and  N1_34
REMARK   16  A    between atoms: C24_32  and  O9_33
REMARK   17  A    between atoms: N1_34  and  C25_35
REMARK   18  A    between atoms: N1_34  and  C26_36
REMARK   19  A    between atoms: C27_37  and  C28_38
REMARK   20  A    between atoms: C27_37  and  O10_39
REMARK   21  A    between atoms: C30_41  and  C31_42
REMARK   22  A    between atoms: N2_44  and  C33_45
REMARK   23  A    between atoms: C34_46  and  C35_47
REMARK   24  A    between atoms: C36_48  and  O11_49
REMARK   25  A    between atoms: C37_50  and  C38_51
REMARK   26  A    between atoms: C37_50  and  O12_52
REMARK                            x       y       z     vdW  Elec       q    Type
REMARK                         _______ _______ _______ _____ _____    ______ ____
ROOT
ATOM      1  C3  UNL     1      74.055  59.900 107.210  0.00  0.00    +0.000 C 
ATOM      2  O1  UNL     1      74.893  61.017 107.501  0.00  0.00    +0.000 OA
ATOM      3  C4  UNL     1      74.575  62.039 108.405  0.00  0.00    +0.000 C 
ATOM      4  O2  UNL     1      73.581  61.926 109.164  0.00  0.00    +0.000 OA
ATOM      5  C5  UNL     1      75.523  63.214 108.491  0.00  0.00    +0.000 C 
ATOM      6  C6  UNL     1      76.830  62.720 109.131  0.00  0.00    +0.000 C 
ATOM      7  C7  UNL     1      74.999  64.536 109.188  0.00  0.00    +0.000 C 
ATOM      8  C16 UNL     1      74.570  65.738 108.247  0.00  0.00    +0.000 C 
ATOM      9  C17 UNL     1      75.485  65.956 107.031  0.00  0.00    +0.000 C 
ATOM     10  C18 UNL     1      73.042  66.044 107.989  0.00  0.00    +0.000 C 
ATOM     11  C27 UNL     1      72.290  65.395 106.756  0.00  0.00    +0.000 C 
ATOM     12  C28 UNL     1      72.765  65.978 105.393  0.00  0.00    +0.000 C 
ATOM     13  C29 UNL     1      72.442  63.848 106.778  0.00  0.00    +0.000 C 
ATOM     14  C30 UNL     1      71.510  62.947 105.900  0.00  0.00    +0.000 C 
ATOM     15  C31 UNL     1      70.010  63.225 106.073  0.00  0.00    +0.000 C 
ATOM     16  C32 UNL     1      71.878  62.873 104.399  0.00  0.00    +0.000 C 
ATOM     17  N2  UNL     1      73.229  62.294 104.181  0.00  0.00    +0.000 NA
ATOM     18  C33 UNL     1      73.853  62.878 102.977  0.00  0.00    +0.000 C 
ATOM     19  C34 UNL     1      73.225  60.797 104.179  0.00  0.00    +0.000 C 
ATOM     20  C35 UNL     1      72.787  60.194 102.823  0.00  0.00    +0.000 C 
ATOM     21  C36 UNL     1      74.611  60.191 104.643  0.00  0.00    +0.000 C 
ATOM     22  C37 UNL     1      74.552  59.209 105.883  0.00  0.00    +0.000 C 
ATOM     23  C38 UNL     1      73.630  58.016 105.534  0.00  0.00    +0.000 C 
ENDROOT
BRANCH   1  25
ATOM     24  C1  UNL     1      72.634  58.619 108.920  0.00  0.00    +0.000 C 
ATOM     25  C2  UNL     1      74.049  58.938 108.434  0.00  0.00    +0.000 C 
ENDBRANCH   1  25
BRANCH  11  26
ATOM     26  O10 UNL     1      70.925  65.697 106.927  0.00  0.00    +0.000 OA
ATOM     27  H51 UNL     1      70.823  66.343 107.676  0.00  0.00    +0.000 HD
ENDBRANCH  11  26
BRANCH  21  28
ATOM     28  O11 UNL     1      75.619  61.165 104.799  0.00  0.00    +0.000 OA
ATOM     29  H68 UNL     1      76.467  60.808 104.438  0.00  0.00    +0.000 HD
ENDBRANCH  21  28
BRANCH  22  30
ATOM     30  O12 UNL     1      75.840  58.671 106.087  0.00  0.00    +0.000 OA
ATOM     31  H72 UNL     1      76.056  58.729 107.052  0.00  0.00    +0.000 HD
ENDBRANCH  22  30
BRANCH   7  32
ATOM     32  O3  UNL     1      74.004  64.281 110.178  0.00  0.00    +0.000 OA
BRANCH  32  33
ATOM     33  C8  UNL     1      74.270  64.921 111.424  0.00  0.00    +0.000 C 
ATOM     34  C9  UNL     1      73.169  64.555 112.445  0.00  0.00    +0.000 C 
ATOM     35  C10 UNL     1      73.648  64.676 113.903  0.00  0.00    +0.000 C 
ATOM     36  C11 UNL     1      73.918  66.184 114.204  0.00  0.00    +0.000 C 
ATOM     37  C13 UNL     1      74.928  63.787 114.083  0.00  0.00    +0.000 C 
ATOM     38  C14 UNL     1      75.716  63.548 112.757  0.00  0.00    +0.000 C 
ATOM     39  C15 UNL     1      75.428  62.185 112.105  0.00  0.00    +0.000 C 
ATOM     40  O6  UNL     1      75.598  64.626 111.840  0.00  0.00    +0.000 OA
BRANCH  35  41
ATOM     41  O4  UNL     1      72.570  64.170 114.691  0.00  0.00    +0.000 OA
ATOM     42  C12 UNL     1      72.705  62.810 115.063  0.00  0.00    +0.000 C 
ENDBRANCH  35  41
BRANCH  37  43
ATOM     43  O5  UNL     1      75.791  64.369 115.033  0.00  0.00    +0.000 OA
ATOM     44  H22 UNL     1      75.732  65.356 114.928  0.00  0.00    +0.000 HD
ENDBRANCH  37  43
ENDBRANCH  32  33
ENDBRANCH   7  32
BRANCH  10  45
ATOM     45  O7  UNL     1      72.917  67.459 107.860  0.00  0.00    +0.000 OA
BRANCH  45  46
ATOM     46  C19 UNL     1      74.030  68.196 108.342  0.00  0.00    +0.000 C 
ATOM     47  O8  UNL     1      73.784  68.492 109.706  0.00  0.00    +0.000 OA
ATOM     48  C20 UNL     1      74.912  69.082 110.347  0.00  0.00    +0.000 C 
ATOM     49  C21 UNL     1      75.794  68.010 110.993  0.00  0.00    +0.000 C 
ATOM     50  C22 UNL     1      75.731  70.017 109.422  0.00  0.00    +0.000 C 
ATOM     51  C23 UNL     1      74.800  70.673 108.373  0.00  0.00    +0.000 C 
ATOM     52  C24 UNL     1      74.161  69.513 107.532  0.00  0.00    +0.000 C 
BRANCH  51  53
ATOM     53  N1  UNL     1      73.760  71.562 108.987  0.00  0.00    +0.000 NA
ATOM     54  C25 UNL     1      72.692  71.884 108.009  0.00  0.00    +0.000 C 
ATOM     55  C26 UNL     1      74.342  72.835 109.466  0.00  0.00    +0.000 C 
ENDBRANCH  51  53
BRANCH  52  56
ATOM     56  O9  UNL     1      74.947  69.265 106.400  0.00  0.00    +0.000 OA
ATOM     57  H41 UNL     1      74.372  69.445 105.612  0.00  0.00    +0.000 HD
ENDBRANCH  52  56
ENDBRANCH  45  46
ENDBRANCH  10  45
TORSDOF 12
ENDMDL
MODEL 7
REMARK VINA RESULT:      -6.6      6.064      8.795
REMARK  Name = ./S1835.pdb
REMARK  26 active torsions:
REMARK  status: ('A' for Active; 'I' for Inactive)
REMARK    1  A    between atoms: C1_1  and  C2_2
REMARK    2  A    between atoms: C2_2  and  C3_3
REMARK    3  A    between atoms: C5_7  and  C6_8
REMARK    4  A    between atoms: C7_9  and  O3_10
REMARK    5  A    between atoms: O3_10  and  C8_11
REMARK    6  A    between atoms: C10_13  and  C11_14
REMARK    7  A    between atoms: C10_13  and  O4_15
REMARK    8  A    between atoms: O4_15  and  C12_16
REMARK    9  A    between atoms: C13_17  and  O5_18
REMARK   10  A    between atoms: C14_19  and  C15_20
REMARK   11  A    between atoms: C16_22  and  C17_23
REMARK   12  A    between atoms: C18_24  and  O7_25
REMARK   13  A    between atoms: O7_25  and  C19_26
REMARK   14  A    between atoms: C20_28  and  C21_29
REMARK   15  A    between atoms: C23_31  and  N1_34
REMARK   16  A    between atoms: C24_32  and  O9_33
REMARK   17  A    between atoms: N1_34  and  C25_35
REMARK   18  A    between atoms: N1_34  and  C26_36
REMARK   19  A    between atoms: C27_37  and  C28_38
REMARK   20  A    between atoms: C27_37  and  O10_39
REMARK   21  A    between atoms: C30_41  and  C31_42
REMARK   22  A    between atoms: N2_44  and  C33_45
REMARK   23  A    between atoms: C34_46  and  C35_47
REMARK   24  A    between atoms: C36_48  and  O11_49
REMARK   25  A    between atoms: C37_50  and  C38_51
REMARK   26  A    between atoms: C37_50  and  O12_52
REMARK                            x       y       z     vdW  Elec       q    Type
REMARK                         _______ _______ _______ _____ _____    ______ ____
ROOT
ATOM      1  C3  UNL     1      77.003  61.757 114.096  0.00  0.00    +0.000 C 
ATOM      2  O1  UNL     1      76.161  61.781 112.945  0.00  0.00    +0.000 OA
ATOM      3  C4  UNL     1      76.257  62.716 111.907  0.00  0.00    +0.000 C 
ATOM      4  O2  UNL     1      77.239  63.497 111.846  0.00  0.00    +0.000 OA
ATOM      5  C5  UNL     1      75.198  62.673 110.829  0.00  0.00    +0.000 C 
ATOM      6  C6  UNL     1      75.402  61.384 110.017  0.00  0.00    +0.000 C 
ATOM      7  C7  UNL     1      75.052  63.937 109.885  0.00  0.00    +0.000 C 
ATOM      8  C16 UNL     1      73.848  64.929 110.171  0.00  0.00    +0.000 C 
ATOM      9  C17 UNL     1      72.528  64.239 110.552  0.00  0.00    +0.000 C 
ATOM     10  C18 UNL     1      74.107  66.310 110.894  0.00  0.00    +0.000 C 
ATOM     11  C27 UNL     1      73.993  66.426 112.468  0.00  0.00    +0.000 C 
ATOM     12  C28 UNL     1      72.526  66.295 112.972  0.00  0.00    +0.000 C 
ATOM     13  C29 UNL     1      74.909  65.378 113.159  0.00  0.00    +0.000 C 
ATOM     14  C30 UNL     1      75.264  65.512 114.679  0.00  0.00    +0.000 C 
ATOM     15  C31 UNL     1      75.815  66.887 115.083  0.00  0.00    +0.000 C 
ATOM     16  C32 UNL     1      74.156  65.062 115.661  0.00  0.00    +0.000 C 
ATOM     17  N2  UNL     1      73.823  63.622 115.508  0.00  0.00    +0.000 NA
ATOM     18  C33 UNL     1      72.401  63.385 115.826  0.00  0.00    +0.000 C 
ATOM     19  C34 UNL     1      74.757  62.726 116.262  0.00  0.00    +0.000 C 
ATOM     20  C35 UNL     1      74.404  62.611 117.764  0.00  0.00    +0.000 C 
ATOM     21  C36 UNL     1      74.881  61.294 115.601  0.00  0.00    +0.000 C 
ATOM     22  C37 UNL     1      76.345  60.846 115.202  0.00  0.00    +0.000 C 
ATOM     23  C38 UNL     1      77.230  60.837 116.471  0.00  0.00    +0.000 C 
ENDROOT
BRANCH   1  25
ATOM     24  C1  UNL     1      78.384  60.296 112.500  0.00  0.00    +0.000 C 
ATOM     25  C2  UNL     1      78.423  61.276 113.675  0.00  0.00    +0.000 C 
ENDBRANCH   1  25
BRANCH  11  26
ATOM     26  O10 UNL     1      74.473  67.707 112.802  0.00  0.00    +0.000 OA
ATOM     27  H51 UNL     1      74.746  67.718 113.757  0.00  0.00    +0.000 HD
ENDBRANCH  11  26
BRANCH  21  28
ATOM     28  O11 UNL     1      73.969  61.088 114.546  0.00  0.00    +0.000 OA
ATOM     29  H68 UNL     1      74.380  61.402 113.703  0.00  0.00    +0.000 HD
ENDBRANCH  21  28
BRANCH  22  30
ATOM     30  O12 UNL     1      76.293  59.512 114.743  0.00  0.00    +0.000 OA
ATOM     31  H72 UNL     1      75.368  59.318 114.446  0.00  0.00    +0.000 HD
ENDBRANCH  22  30
BRANCH   7  32
ATOM     32  O3  UNL     1      76.277  64.651 109.726  0.00  0.00    +0.000 OA
BRANCH  32  33
ATOM     33  C8  UNL     1      76.542  65.023 108.375  0.00  0.00    +0.000 C 
ATOM     34  C9  UNL     1      77.286  66.377 108.343  0.00  0.00    +0.000 C 
ATOM     35  C10 UNL     1      78.119  66.566 107.062  0.00  0.00    +0.000 C 
ATOM     36  C11 UNL     1      77.137  66.677 105.854  0.00  0.00    +0.000 C 
ATOM     37  C13 UNL     1      79.108  65.355 106.927  0.00  0.00    +0.000 C 
ATOM     38  C14 UNL     1      78.620  64.065 107.657  0.00  0.00    +0.000 C 
ATOM     39  C15 UNL     1      79.278  63.847 109.031  0.00  0.00    +0.000 C 
ATOM     40  O6  UNL     1      77.206  63.956 107.707  0.00  0.00    +0.000 OA
BRANCH  35  41
ATOM     41  O4  UNL     1      78.840  67.783 107.264  0.00  0.00    +0.000 OA
ATOM     42  C12 UNL     1      78.035  68.883 107.649  0.00  0.00    +0.000 C 
ENDBRANCH  35  41
BRANCH  37  43
ATOM     43  O5  UNL     1      79.327  65.060 105.566  0.00  0.00    +0.000 OA
ATOM     44  H22 UNL     1      79.990  64.319 105.522  0.00  0.00    +0.000 HD
ENDBRANCH  37  43
ENDBRANCH  32  33
ENDBRANCH   7  32
BRANCH  10  45
ATOM     45  O7  UNL     1      73.189  67.248 110.335  0.00  0.00    +0.000 OA
BRANCH  45  46
ATOM     46  C19 UNL     1      72.512  66.794 109.173  0.00  0.00    +0.000 C 
ATOM     47  O8  UNL     1      73.309  67.146 108.054  0.00  0.00    +0.000 OA
ATOM     48  C20 UNL     1      72.816  66.588 106.839  0.00  0.00    +0.000 C 
ATOM     49  C21 UNL     1      73.463  65.228 106.562  0.00  0.00    +0.000 C 
ATOM     50  C22 UNL     1      71.270  66.511 106.776  0.00  0.00    +0.000 C 
ATOM     51  C23 UNL     1      70.647  67.666 107.596  0.00  0.00    +0.000 C 
ATOM     52  C24 UNL     1      71.132  67.494 109.079  0.00  0.00    +0.000 C 
BRANCH  51  53
ATOM     53  N1  UNL     1      70.983  69.022 107.048  0.00  0.00    +0.000 NA
ATOM     54  C25 UNL     1      71.180  70.003 108.143  0.00  0.00    +0.000 C 
ATOM     55  C26 UNL     1      69.914  69.532 106.161  0.00  0.00    +0.000 C 
ENDBRANCH  51  53
BRANCH  52  56
ATOM     56  O9  UNL     1      70.196  66.736 109.794  0.00  0.00    +0.000 OA
ATOM     57  H41 UNL     1      69.724  66.171 109.130  0.00  0.00    +0.000 HD
ENDBRANCH  52  56
ENDBRANCH  45  46
ENDBRANCH  10  45
TORSDOF 12
ENDMDL
MODEL 8
REMARK VINA RESULT:      -6.6      1.503      2.218
REMARK  Name = ./S1835.pdb
REMARK  26 active torsions:
REMARK  status: ('A' for Active; 'I' for Inactive)
REMARK    1  A    between atoms: C1_1  and  C2_2
REMARK    2  A    between atoms: C2_2  and  C3_3
REMARK    3  A    between atoms: C5_7  and  C6_8
REMARK    4  A    between atoms: C7_9  and  O3_10
REMARK    5  A    between atoms: O3_10  and  C8_11
REMARK    6  A    between atoms: C10_13  and  C11_14
REMARK    7  A    between atoms: C10_13  and  O4_15
REMARK    8  A    between atoms: O4_15  and  C12_16
REMARK    9  A    between atoms: C13_17  and  O5_18
REMARK   10  A    between atoms: C14_19  and  C15_20
REMARK   11  A    between atoms: C16_22  and  C17_23
REMARK   12  A    between atoms: C18_24  and  O7_25
REMARK   13  A    between atoms: O7_25  and  C19_26
REMARK   14  A    between atoms: C20_28  and  C21_29
REMARK   15  A    between atoms: C23_31  and  N1_34
REMARK   16  A    between atoms: C24_32  and  O9_33
REMARK   17  A    between atoms: N1_34  and  C25_35
REMARK   18  A    between atoms: N1_34  and  C26_36
REMARK   19  A    between atoms: C27_37  and  C28_38
REMARK   20  A    between atoms: C27_37  and  O10_39
REMARK   21  A    between atoms: C30_41  and  C31_42
REMARK   22  A    between atoms: N2_44  and  C33_45
REMARK   23  A    between atoms: C34_46  and  C35_47
REMARK   24  A    between atoms: C36_48  and  O11_49
REMARK   25  A    between atoms: C37_50  and  C38_51
REMARK   26  A    between atoms: C37_50  and  O12_52
REMARK                            x       y       z     vdW  Elec       q    Type
REMARK                         _______ _______ _______ _____ _____    ______ ____
ROOT
ATOM      1  C3  UNL     1      75.267  62.958 110.661  0.00  0.00    +0.000 C 
ATOM      2  O1  UNL     1      74.323  62.244 109.865  0.00  0.00    +0.000 OA
ATOM      3  C4  UNL     1      74.597  61.688 108.610  0.00  0.00    +0.000 C 
ATOM      4  O2  UNL     1      75.778  61.632 108.186  0.00  0.00    +0.000 OA
ATOM      5  C5  UNL     1      73.441  61.079 107.849  0.00  0.00    +0.000 C 
ATOM      6  C6  UNL     1      73.005  59.806 108.591  0.00  0.00    +0.000 C 
ATOM      7  C7  UNL     1      73.636  60.810 106.300  0.00  0.00    +0.000 C 
ATOM      8  C16 UNL     1      72.962  61.832 105.290  0.00  0.00    +0.000 C 
ATOM      9  C17 UNL     1      71.560  62.308 105.703  0.00  0.00    +0.000 C 
ATOM     10  C18 UNL     1      73.840  62.918 104.550  0.00  0.00    +0.000 C 
ATOM     11  C27 UNL     1      74.036  64.357 105.180  0.00  0.00    +0.000 C 
ATOM     12  C28 UNL     1      72.732  65.206 105.145  0.00  0.00    +0.000 C 
ATOM     13  C29 UNL     1      74.584  64.247 106.630  0.00  0.00    +0.000 C 
ATOM     14  C30 UNL     1      75.205  65.497 107.340  0.00  0.00    +0.000 C 
ATOM     15  C31 UNL     1      76.295  66.213 106.531  0.00  0.00    +0.000 C 
ATOM     16  C32 UNL     1      74.185  66.519 107.898  0.00  0.00    +0.000 C 
ATOM     17  N2  UNL     1      73.309  65.925 108.941  0.00  0.00    +0.000 NA
ATOM     18  C33 UNL     1      71.976  66.558 108.918  0.00  0.00    +0.000 C 
ATOM     19  C34 UNL     1      73.941  65.923 110.298  0.00  0.00    +0.000 C 
ATOM     20  C35 UNL     1      73.820  67.284 111.023  0.00  0.00    +0.000 C 
ATOM     21  C36 UNL     1      73.403  64.749 111.212  0.00  0.00    +0.000 C 
ATOM     22  C37 UNL     1      74.501  63.762 111.780  0.00  0.00    +0.000 C 
ATOM     23  C38 UNL     1      75.510  64.571 112.631  0.00  0.00    +0.000 C 
ENDROOT
BRANCH   1  25
ATOM     24  C1  UNL     1      77.749  62.347 110.894  0.00  0.00    +0.000 C 
ATOM     25  C2  UNL     1      76.310  61.954 111.234  0.00  0.00    +0.000 C 
ENDBRANCH   1  25
BRANCH  11  26
ATOM     26  O10 UNL     1      75.014  64.997 104.394  0.00  0.00    +0.000 OA
ATOM     27  H51 UNL     1      75.452  65.709 104.931  0.00  0.00    +0.000 HD
ENDBRANCH  11  26
BRANCH  21  28
ATOM     28  O11 UNL     1      72.323  64.048 110.637  0.00  0.00    +0.000 OA
ATOM     29  H68 UNL     1      71.832  63.575 111.352  0.00  0.00    +0.000 HD
ENDBRANCH  21  28
BRANCH  22  30
ATOM     30  O12 UNL     1      73.873  62.857 112.662  0.00  0.00    +0.000 OA
ATOM     31  H72 UNL     1      73.778  61.984 112.202  0.00  0.00    +0.000 HD
ENDBRANCH  22  30
BRANCH   7  32
ATOM     32  O3  UNL     1      74.996  60.566 105.949  0.00  0.00    +0.000 OA
BRANCH  32  33
ATOM     33  C8  UNL     1      75.146  59.930 104.681  0.00  0.00    +0.000 C 
ATOM     34  C9  UNL     1      76.560  59.316 104.569  0.00  0.00    +0.000 C 
ATOM     35  C10 UNL     1      76.623  58.149 103.567  0.00  0.00    +0.000 C 
ATOM     36  C11 UNL     1      76.375  58.722 102.136  0.00  0.00    +0.000 C 
ATOM     37  C13 UNL     1      75.554  57.078 103.982  0.00  0.00    +0.000 C 
ATOM     38  C14 UNL     1      74.366  57.665 104.805  0.00  0.00    +0.000 C 
ATOM     39  C15 UNL     1      74.496  57.444 106.322  0.00  0.00    +0.000 C 
ATOM     40  O6  UNL     1      74.076  59.015 104.474  0.00  0.00    +0.000 OA
BRANCH  35  41
ATOM     41  O4  UNL     1      77.943  57.619 103.697  0.00  0.00    +0.000 OA
ATOM     42  C12 UNL     1      78.849  58.466 104.381  0.00  0.00    +0.000 C 
ENDBRANCH  35  41
BRANCH  37  43
ATOM     43  O5  UNL     1      75.047  56.432 102.836  0.00  0.00    +0.000 OA
ATOM     44  H22 UNL     1      74.055  56.487 102.875  0.00  0.00    +0.000 HD
ENDBRANCH  37  43
ENDBRANCH  32  33
ENDBRANCH   7  32
BRANCH  10  45
ATOM     45  O7  UNL     1      73.270  63.099 103.255  0.00  0.00    +0.000 OA
BRANCH  45  46
ATOM     46  C19 UNL     1      73.818  62.265 102.246  0.00  0.00    +0.000 C 
ATOM     47  O8  UNL     1      74.401  63.109 101.268  0.00  0.00    +0.000 OA
ATOM     48  C20 UNL     1      75.136  62.380 100.289  0.00  0.00    +0.000 C 
ATOM     49  C21 UNL     1      76.607  62.250 100.698  0.00  0.00    +0.000 C 
ATOM     50  C22 UNL     1      74.513  61.005  99.943  0.00  0.00    +0.000 C 
ATOM     51  C23 UNL     1      72.975  61.063 100.107  0.00  0.00    +0.000 C 
ATOM     52  C24 UNL     1      72.683  61.422 101.607  0.00  0.00    +0.000 C 
BRANCH  51  53
ATOM     53  N1  UNL     1      72.321  62.025  99.161  0.00  0.00    +0.000 NA
ATOM     54  C25 UNL     1      70.877  62.175  99.469  0.00  0.00    +0.000 C 
ATOM     55  C26 UNL     1      72.447  61.581  97.756  0.00  0.00    +0.000 C 
ENDBRANCH  51  53
BRANCH  52  56
ATOM     56  O9  UNL     1      72.527  60.245 102.350  0.00  0.00    +0.000 OA
ATOM     57  H41 UNL     1      73.143  60.316 103.124  0.00  0.00    +0.000 HD
ENDBRANCH  52  56
ENDBRANCH  45  46
ENDBRANCH  10  45
TORSDOF 12
ENDMDL
MODEL 9
REMARK VINA RESULT:      -6.4      4.565     10.624
REMARK  Name = ./S1835.pdb
REMARK  26 active torsions:
REMARK  status: ('A' for Active; 'I' for Inactive)
REMARK    1  A    between atoms: C1_1  and  C2_2
REMARK    2  A    between atoms: C2_2  and  C3_3
REMARK    3  A    between atoms: C5_7  and  C6_8
REMARK    4  A    between atoms: C7_9  and  O3_10
REMARK    5  A    between atoms: O3_10  and  C8_11
REMARK    6  A    between atoms: C10_13  and  C11_14
REMARK    7  A    between atoms: C10_13  and  O4_15
REMARK    8  A    between atoms: O4_15  and  C12_16
REMARK    9  A    between atoms: C13_17  and  O5_18
REMARK   10  A    between atoms: C14_19  and  C15_20
REMARK   11  A    between atoms: C16_22  and  C17_23
REMARK   12  A    between atoms: C18_24  and  O7_25
REMARK   13  A    between atoms: O7_25  and  C19_26
REMARK   14  A    between atoms: C20_28  and  C21_29
REMARK   15  A    between atoms: C23_31  and  N1_34
REMARK   16  A    between atoms: C24_32  and  O9_33
REMARK   17  A    between atoms: N1_34  and  C25_35
REMARK   18  A    between atoms: N1_34  and  C26_36
REMARK   19  A    between atoms: C27_37  and  C28_38
REMARK   20  A    between atoms: C27_37  and  O10_39
REMARK   21  A    between atoms: C30_41  and  C31_42
REMARK   22  A    between atoms: N2_44  and  C33_45
REMARK   23  A    between atoms: C34_46  and  C35_47
REMARK   24  A    between atoms: C36_48  and  O11_49
REMARK   25  A    between atoms: C37_50  and  C38_51
REMARK   26  A    between atoms: C37_50  and  O12_52
REMARK                            x       y       z     vdW  Elec       q    Type
REMARK                         _______ _______ _______ _____ _____    ______ ____
ROOT
ATOM      1  C3  UNL     1      72.106  62.690 105.264  0.00  0.00    +0.000 C 
ATOM      2  O1  UNL     1      71.906  63.569 106.369  0.00  0.00    +0.000 OA
ATOM      3  C4  UNL     1      72.313  64.909 106.405  0.00  0.00    +0.000 C 
ATOM      4  O2  UNL     1      72.728  65.473 105.362  0.00  0.00    +0.000 OA
ATOM      5  C5  UNL     1      72.137  65.657 107.707  0.00  0.00    +0.000 C 
ATOM      6  C6  UNL     1      70.630  65.852 107.939  0.00  0.00    +0.000 C 
ATOM      7  C7  UNL     1      72.934  67.013 107.894  0.00  0.00    +0.000 C 
ATOM      8  C16 UNL     1      74.235  66.977 108.801  0.00  0.00    +0.000 C 
ATOM      9  C17 UNL     1      74.110  66.109 110.064  0.00  0.00    +0.000 C 
ATOM     10  C18 UNL     1      75.669  66.981 108.139  0.00  0.00    +0.000 C 
ATOM     11  C27 UNL     1      76.404  65.619 107.805  0.00  0.00    +0.000 C 
ATOM     12  C28 UNL     1      76.860  64.858 109.085  0.00  0.00    +0.000 C 
ATOM     13  C29 UNL     1      75.502  64.716 106.919  0.00  0.00    +0.000 C 
ATOM     14  C30 UNL     1      76.111  63.493 106.153  0.00  0.00    +0.000 C 
ATOM     15  C31 UNL     1      77.341  63.827 105.299  0.00  0.00    +0.000 C 
ATOM     16  C32 UNL     1      76.374  62.234 107.014  0.00  0.00    +0.000 C 
ATOM     17  N2  UNL     1      75.125  61.688 107.604  0.00  0.00    +0.000 NA
ATOM     18  C33 UNL     1      75.404  61.054 108.908  0.00  0.00    +0.000 C 
ATOM     19  C34 UNL     1      74.376  60.799 106.660  0.00  0.00    +0.000 C 
ATOM     20  C35 UNL     1      74.940  59.359 106.610  0.00  0.00    +0.000 C 
ATOM     21  C36 UNL     1      72.821  60.784 106.951  0.00  0.00    +0.000 C 
ATOM     22  C37 UNL     1      71.892  61.201 105.740  0.00  0.00    +0.000 C 
ATOM     23  C38 UNL     1      72.141  60.231 104.560  0.00  0.00    +0.000 C 
ENDROOT
BRANCH   1  25
ATOM     24  C1  UNL     1      71.853  63.117 102.746  0.00  0.00    +0.000 C 
ATOM     25  C2  UNL     1      71.152  63.104 104.106  0.00  0.00    +0.000 C 
ENDBRANCH   1  25
BRANCH  11  26
ATOM     26  O10 UNL     1      77.544  65.963 107.053  0.00  0.00    +0.000 OA
ATOM     27  H51 UNL     1      77.393  66.841 106.611  0.00  0.00    +0.000 HD
ENDBRANCH  11  26
BRANCH  21  28
ATOM     28  O11 UNL     1      72.471  61.468 108.133  0.00  0.00    +0.000 OA
ATOM     29  H68 UNL     1      71.485  61.510 108.198  0.00  0.00    +0.000 HD
ENDBRANCH  21  28
BRANCH  22  30
ATOM     30  O12 UNL     1      70.547  61.021 106.127  0.00  0.00    +0.000 OA
ATOM     31  H72 UNL     1      70.406  60.062 106.336  0.00  0.00    +0.000 HD
ENDBRANCH  22  30
BRANCH   7  32
ATOM     32  O3  UNL     1      73.190  67.678 106.659  0.00  0.00    +0.000 OA
BRANCH  32  33
ATOM     33  C8  UNL     1      72.227  68.683 106.349  0.00  0.00    +0.000 C 
ATOM     34  C9  UNL     1      72.051  69.627 107.559  0.00  0.00    +0.000 C 
ATOM     35  C10 UNL     1      71.536  71.021 107.155  0.00  0.00    +0.000 C 
ATOM     36  C11 UNL     1      70.079  70.865 106.617  0.00  0.00    +0.000 C 
ATOM     37  C13 UNL     1      72.513  71.622 106.084  0.00  0.00    +0.000 C 
ATOM     38  C14 UNL     1      73.301  70.542 105.279  0.00  0.00    +0.000 C 
ATOM     39  C15 UNL     1      74.737  70.320 105.785  0.00  0.00    +0.000 C 
ATOM     40  O6  UNL     1      72.582  69.327 105.131  0.00  0.00    +0.000 OA
BRANCH  35  41
ATOM     41  O4  UNL     1      71.571  71.793 108.356  0.00  0.00    +0.000 OA
ATOM     42  C12 UNL     1      72.806  72.441 108.600  0.00  0.00    +0.000 C 
ENDBRANCH  35  41
BRANCH  37  43
ATOM     43  O5  UNL     1      71.800  72.439 105.183  0.00  0.00    +0.000 OA
ATOM     44  H22 UNL     1      72.320  73.278 105.062  0.00  0.00    +0.000 HD
ENDBRANCH  37  43
ENDBRANCH  32  33
ENDBRANCH   7  32
BRANCH  10  45
ATOM     45  O7  UNL     1      76.526  67.719 109.008  0.00  0.00    +0.000 OA
BRANCH  45  46
ATOM     46  C19 UNL     1      77.074  68.897 108.438  0.00  0.00    +0.000 C 
ATOM     47  O8  UNL     1      78.308  68.542 107.838  0.00  0.00    +0.000 OA
ATOM     48  C20 UNL     1      78.872  69.611 107.080  0.00  0.00    +0.000 C 
ATOM     49  C21 UNL     1      78.421  69.538 105.618  0.00  0.00    +0.000 C 
ATOM     50  C22 UNL     1      78.610  71.009 107.693  0.00  0.00    +0.000 C 
ATOM     51  C23 UNL     1      78.513  70.904 109.234  0.00  0.00    +0.000 C 
ATOM     52  C24 UNL     1      77.314  69.944 109.557  0.00  0.00    +0.000 C 
BRANCH  51  53
ATOM     53  N1  UNL     1      79.790  70.443 109.872  0.00  0.00    +0.000 NA
ATOM     54  C25 UNL     1      79.645  70.352 111.345  0.00  0.00    +0.000 C 
ATOM     55  C26 UNL     1      80.911  71.362 109.576  0.00  0.00    +0.000 C 
ENDBRANCH  51  53
BRANCH  52  56
ATOM     56  O9  UNL     1      76.143  70.695 109.725  0.00  0.00    +0.000 OA
ATOM     57  H41 UNL     1      75.711  70.747 108.835  0.00  0.00    +0.000 HD
ENDBRANCH  52  56
ENDBRANCH  45  46
ENDBRANCH  10  45
TORSDOF 12
ENDMDL
MODEL 10
REMARK VINA RESULT:      -6.3      3.694      9.904
REMARK  Name = ./S1835.pdb
REMARK  26 active torsions:
REMARK  status: ('A' for Active; 'I' for Inactive)
REMARK    1  A    between atoms: C1_1  and  C2_2
REMARK    2  A    between atoms: C2_2  and  C3_3
REMARK    3  A    between atoms: C5_7  and  C6_8
REMARK    4  A    between atoms: C7_9  and  O3_10
REMARK    5  A    between atoms: O3_10  and  C8_11
REMARK    6  A    between atoms: C10_13  and  C11_14
REMARK    7  A    between atoms: C10_13  and  O4_15
REMARK    8  A    between atoms: O4_15  and  C12_16
REMARK    9  A    between atoms: C13_17  and  O5_18
REMARK   10  A    between atoms: C14_19  and  C15_20
REMARK   11  A    between atoms: C16_22  and  C17_23
REMARK   12  A    between atoms: C18_24  and  O7_25
REMARK   13  A    between atoms: O7_25  and  C19_26
REMARK   14  A    between atoms: C20_28  and  C21_29
REMARK   15  A    between atoms: C23_31  and  N1_34
REMARK   16  A    between atoms: C24_32  and  O9_33
REMARK   17  A    between atoms: N1_34  and  C25_35
REMARK   18  A    between atoms: N1_34  and  C26_36
REMARK   19  A    between atoms: C27_37  and  C28_38
REMARK   20  A    between atoms: C27_37  and  O10_39
REMARK   21  A    between atoms: C30_41  and  C31_42
REMARK   22  A    between atoms: N2_44  and  C33_45
REMARK   23  A    between atoms: C34_46  and  C35_47
REMARK   24  A    between atoms: C36_48  and  O11_49
REMARK   25  A    between atoms: C37_50  and  C38_51
REMARK   26  A    between atoms: C37_50  and  O12_52
REMARK                            x       y       z     vdW  Elec       q    Type
REMARK                         _______ _______ _______ _____ _____    ______ ____
ROOT
ATOM      1  C3  UNL     1      73.006  61.836 105.592  0.00  0.00    +0.000 C 
ATOM      2  O1  UNL     1      74.126  61.882 106.476  0.00  0.00    +0.000 OA
ATOM      3  C4  UNL     1      74.331  62.865 107.452  0.00  0.00    +0.000 C 
ATOM      4  O2  UNL     1      73.418  63.682 107.730  0.00  0.00    +0.000 OA
ATOM      5  C5  UNL     1      75.638  62.832 108.211  0.00  0.00    +0.000 C 
ATOM      6  C6  UNL     1      75.629  61.588 109.113  0.00  0.00    +0.000 C 
ATOM      7  C7  UNL     1      76.058  64.130 109.015  0.00  0.00    +0.000 C 
ATOM      8  C16 UNL     1      77.164  65.065 108.369  0.00  0.00    +0.000 C 
ATOM      9  C17 UNL     1      78.318  64.313 107.688  0.00  0.00    +0.000 C 
ATOM     10  C18 UNL     1      76.753  66.421 107.669  0.00  0.00    +0.000 C 
ATOM     11  C27 UNL     1      76.445  66.463 106.117  0.00  0.00    +0.000 C 
ATOM     12  C28 UNL     1      77.722  66.258 105.250  0.00  0.00    +0.000 C 
ATOM     13  C29 UNL     1      75.355  65.418 105.749  0.00  0.00    +0.000 C 
ATOM     14  C30 UNL     1      74.611  65.498 104.374  0.00  0.00    +0.000 C 
ATOM     15  C31 UNL     1      74.002  66.872 104.059  0.00  0.00    +0.000 C 
ATOM     16  C32 UNL     1      75.406  64.965 103.157  0.00  0.00    +0.000 C 
ATOM     17  N2  UNL     1      75.736  63.523 103.291  0.00  0.00    +0.000 NA
ATOM     18  C33 UNL     1      77.016  63.222 102.620  0.00  0.00    +0.000 C 
ATOM     19  C34 UNL     1      74.615  62.628 102.860  0.00  0.00    +0.000 C 
ATOM     20  C35 UNL     1      74.552  62.434 101.327  0.00  0.00    +0.000 C 
ATOM     21  C36 UNL     1      74.640  61.232 103.604  0.00  0.00    +0.000 C 
ATOM     22  C37 UNL     1      73.325  60.854 104.400  0.00  0.00    +0.000 C 
ATOM     23  C38 UNL     1      72.134  60.821 103.413  0.00  0.00    +0.000 C 
ENDROOT
BRANCH   1  25
ATOM     24  C1  UNL     1      70.551  62.350 106.132  0.00  0.00    +0.000 C 
ATOM     25  C2  UNL     1      71.740  61.425 106.399  0.00  0.00    +0.000 C 
ENDBRANCH   1  25
BRANCH  11  26
ATOM     26  O10 UNL     1      75.922  67.745 105.857  0.00  0.00    +0.000 OA
ATOM     27  H51 UNL     1      74.930  67.707 105.887  0.00  0.00    +0.000 HD
ENDBRANCH  11  26
BRANCH  21  28
ATOM     28  O11 UNL     1      75.795  61.041 104.389  0.00  0.00    +0.000 OA
ATOM     29  H68 UNL     1      76.268  61.905 104.476  0.00  0.00    +0.000 HD
ENDBRANCH  21  28
BRANCH  22  30
ATOM     30  O12 UNL     1      73.468  59.541 104.897  0.00  0.00    +0.000 OA
ATOM     31  H72 UNL     1      73.545  58.920 104.129  0.00  0.00    +0.000 HD
ENDBRANCH  22  30
BRANCH   7  32
ATOM     32  O3  UNL     1      74.936  64.894 109.456  0.00  0.00    +0.000 OA
BRANCH  32  33
ATOM     33  C8  UNL     1      74.710  64.806 110.861  0.00  0.00    +0.000 C 
ATOM     34  C9  UNL     1      75.318  66.039 111.566  0.00  0.00    +0.000 C 
ATOM     35  C10 UNL     1      74.643  66.345 112.915  0.00  0.00    +0.000 C 
ATOM     36  C11 UNL     1      74.973  65.180 113.900  0.00  0.00    +0.000 C 
ATOM     37  C13 UNL     1      73.101  66.512 112.674  0.00  0.00    +0.000 C 
ATOM     38  C14 UNL     1      72.580  65.763 111.408  0.00  0.00    +0.000 C 
ATOM     39  C15 UNL     1      72.399  66.675 110.182  0.00  0.00    +0.000 C 
ATOM     40  O6  UNL     1      73.326  64.592 111.111  0.00  0.00    +0.000 OA
BRANCH  35  41
ATOM     41  O4  UNL     1      75.220  67.577 113.349  0.00  0.00    +0.000 OA
ATOM     42  C12 UNL     1      75.371  67.690 114.753  0.00  0.00    +0.000 C 
ENDBRANCH  35  41
BRANCH  37  43
ATOM     43  O5  UNL     1      72.384  66.064 113.802  0.00  0.00    +0.000 OA
ATOM     44  H22 UNL     1      71.594  66.659 113.911  0.00  0.00    +0.000 HD
ENDBRANCH  37  43
ENDBRANCH  32  33
ENDBRANCH   7  32
BRANCH  10  45
ATOM     45  O7  UNL     1      77.807  67.350 107.915  0.00  0.00    +0.000 OA
BRANCH  45  46
ATOM     46  C19 UNL     1      77.395  68.564 108.522  0.00  0.00    +0.000 C 
ATOM     47  O8  UNL     1      76.005  68.707 108.285  0.00  0.00    +0.000 OA
ATOM     48  C20 UNL     1      75.441  69.806 108.997  0.00  0.00    +0.000 C 
ATOM     49  C21 UNL     1      74.912  69.356 110.363  0.00  0.00    +0.000 C 
ATOM     50  C22 UNL     1      76.398  71.018 109.123  0.00  0.00    +0.000 C 
ATOM     51  C23 UNL     1      77.338  71.081 107.896  0.00  0.00    +0.000 C 
ATOM     52  C24 UNL     1      78.164  69.747 107.877  0.00  0.00    +0.000 C 
BRANCH  51  53
ATOM     53  N1  UNL     1      76.606  71.308 106.607  0.00  0.00    +0.000 NA
ATOM     54  C25 UNL     1      77.514  71.147 105.445  0.00  0.00    +0.000 C 
ATOM     55  C26 UNL     1      76.016  72.663 106.545  0.00  0.00    +0.000 C 
ENDBRANCH  51  53
BRANCH  52  56
ATOM     56  O9  UNL     1      79.368  69.929 108.570  0.00  0.00    +0.000 OA
ATOM     57  H41 UNL     1      80.060  70.124 107.887  0.00  0.00    +0.000 HD
ENDBRANCH  52  56
ENDBRANCH  45  46
ENDBRANCH  10  45
TORSDOF 12
ENDMDL
MODEL 11
REMARK VINA RESULT:      -6.3      3.136      9.026
REMARK  Name = ./S1835.pdb
REMARK  26 active torsions:
REMARK  status: ('A' for Active; 'I' for Inactive)
REMARK    1  A    between atoms: C1_1  and  C2_2
REMARK    2  A    between atoms: C2_2  and  C3_3
REMARK    3  A    between atoms: C5_7  and  C6_8
REMARK    4  A    between atoms: C7_9  and  O3_10
REMARK    5  A    between atoms: O3_10  and  C8_11
REMARK    6  A    between atoms: C10_13  and  C11_14
REMARK    7  A    between atoms: C10_13  and  O4_15
REMARK    8  A    between atoms: O4_15  and  C12_16
REMARK    9  A    between atoms: C13_17  and  O5_18
REMARK   10  A    between atoms: C14_19  and  C15_20
REMARK   11  A    between atoms: C16_22  and  C17_23
REMARK   12  A    between atoms: C18_24  and  O7_25
REMARK   13  A    between atoms: O7_25  and  C19_26
REMARK   14  A    between atoms: C20_28  and  C21_29
REMARK   15  A    between atoms: C23_31  and  N1_34
REMARK   16  A    between atoms: C24_32  and  O9_33
REMARK   17  A    between atoms: N1_34  and  C25_35
REMARK   18  A    between atoms: N1_34  and  C26_36
REMARK   19  A    between atoms: C27_37  and  C28_38
REMARK   20  A    between atoms: C27_37  and  O10_39
REMARK   21  A    between atoms: C30_41  and  C31_42
REMARK   22  A    between atoms: N2_44  and  C33_45
REMARK   23  A    between atoms: C34_46  and  C35_47
REMARK   24  A    between atoms: C36_48  and  O11_49
REMARK   25  A    between atoms: C37_50  and  C38_51
REMARK   26  A    between atoms: C37_50  and  O12_52
REMARK                            x       y       z     vdW  Elec       q    Type
REMARK                         _______ _______ _______ _____ _____    ______ ____
ROOT
ATOM      1  C3  UNL     1      77.728  61.265 104.175  0.00  0.00    +0.000 C 
ATOM      2  O1  UNL     1      76.626  62.022 103.677  0.00  0.00    +0.000 OA
ATOM      3  C4  UNL     1      76.065  63.132 104.322  0.00  0.00    +0.000 C 
ATOM      4  O2  UNL     1      76.638  63.643 105.316  0.00  0.00    +0.000 OA
ATOM      5  C5  UNL     1      74.818  63.734 103.715  0.00  0.00    +0.000 C 
ATOM      6  C6  UNL     1      75.211  64.397 102.386  0.00  0.00    +0.000 C 
ATOM      7  C7  UNL     1      73.954  64.709 104.617  0.00  0.00    +0.000 C 
ATOM      8  C16 UNL     1      72.623  64.128 105.255  0.00  0.00    +0.000 C 
ATOM      9  C17 UNL     1      71.816  63.209 104.323  0.00  0.00    +0.000 C 
ATOM     10  C18 UNL     1      72.579  63.728 106.782  0.00  0.00    +0.000 C 
ATOM     11  C27 UNL     1      72.913  62.247 107.234  0.00  0.00    +0.000 C 
ATOM     12  C28 UNL     1      71.814  61.231 106.807  0.00  0.00    +0.000 C 
ATOM     13  C29 UNL     1      74.305  61.814 106.696  0.00  0.00    +0.000 C 
ATOM     14  C30 UNL     1      75.029  60.559 107.288  0.00  0.00    +0.000 C 
ATOM     15  C31 UNL     1      75.151  60.558 108.818  0.00  0.00    +0.000 C 
ATOM     16  C32 UNL     1      74.507  59.192 106.784  0.00  0.00    +0.000 C 
ATOM     17  N2  UNL     1      74.678  59.032 105.318  0.00  0.00    +0.000 NA
ATOM     18  C33 UNL     1      73.601  58.190 104.760  0.00  0.00    +0.000 C 
ATOM     19  C34 UNL     1      76.051  58.567 104.940  0.00  0.00    +0.000 C 
ATOM     20  C35 UNL     1      76.234  57.038 105.090  0.00  0.00    +0.000 C 
ATOM     21  C36 UNL     1      76.470  59.044 103.490  0.00  0.00    +0.000 C 
ATOM     22  C37 UNL     1      77.804  59.891 103.405  0.00  0.00    +0.000 C 
ATOM     23  C38 UNL     1      78.973  59.042 103.959  0.00  0.00    +0.000 C 
ENDROOT
BRANCH   1  25
ATOM     24  C1  UNL     1      79.719  62.337 105.388  0.00  0.00    +0.000 C 
ATOM     25  C2  UNL     1      79.027  62.113 104.041  0.00  0.00    +0.000 C 
ENDBRANCH   1  25
BRANCH  11  26
ATOM     26  O10 UNL     1      72.982  62.275 108.641  0.00  0.00    +0.000 OA
ATOM     27  H51 UNL     1      72.125  62.620 109.006  0.00  0.00    +0.000 HD
ENDBRANCH  11  26
BRANCH  21  28
ATOM     28  O11 UNL     1      75.418  59.659 102.782  0.00  0.00    +0.000 OA
ATOM     29  H68 UNL     1      75.796  60.150 102.011  0.00  0.00    +0.000 HD
ENDBRANCH  21  28
BRANCH  22  30
ATOM     30  O12 UNL     1      78.094  60.129 102.045  0.00  0.00    +0.000 OA
ATOM     31  H72 UNL     1      77.699  59.397 101.506  0.00  0.00    +0.000 HD
ENDBRANCH  22  30
BRANCH   7  32
ATOM     32  O3  UNL     1      74.735  65.391 105.596  0.00  0.00    +0.000 OA
BRANCH  32  33
ATOM     33  C8  UNL     1      74.514  66.800 105.613  0.00  0.00    +0.000 C 
ATOM     34  C9  UNL     1      75.255  67.430 106.813  0.00  0.00    +0.000 C 
ATOM     35  C10 UNL     1      75.580  68.920 106.595  0.00  0.00    +0.000 C 
ATOM     36  C11 UNL     1      74.236  69.711 106.557  0.00  0.00    +0.000 C 
ATOM     37  C13 UNL     1      76.401  69.060 105.264  0.00  0.00    +0.000 C 
ATOM     38  C14 UNL     1      76.152  67.901 104.250  0.00  0.00    +0.000 C 
ATOM     39  C15 UNL     1      77.249  66.822 104.265  0.00  0.00    +0.000 C 
ATOM     40  O6  UNL     1      74.846  67.352 104.344  0.00  0.00    +0.000 OA
BRANCH  35  41
ATOM     41  O4  UNL     1      76.378  69.294 107.719  0.00  0.00    +0.000 OA
ATOM     42  C12 UNL     1      77.513  68.474 107.930  0.00  0.00    +0.000 C 
ENDBRANCH  35  41
BRANCH  37  43
ATOM     43  O5  UNL     1      76.104  70.289 104.641  0.00  0.00    +0.000 OA
ATOM     44  H22 UNL     1      75.424  70.753 105.201  0.00  0.00    +0.000 HD
ENDBRANCH  37  43
ENDBRANCH  32  33
ENDBRANCH   7  32
BRANCH  10  45
ATOM     45  O7  UNL     1      71.265  64.024 107.251  0.00  0.00    +0.000 OA
BRANCH  45  46
ATOM     46  C19 UNL     1      71.181  65.162 108.095  0.00  0.00    +0.000 C 
ATOM     47  O8  UNL     1      71.789  66.244 107.410  0.00  0.00    +0.000 OA
ATOM     48  C20 UNL     1      71.611  67.485 108.087  0.00  0.00    +0.000 C 
ATOM     49  C21 UNL     1      70.351  68.201 107.592  0.00  0.00    +0.000 C 
ATOM     50  C22 UNL     1      71.629  67.356 109.631  0.00  0.00    +0.000 C 
ATOM     51  C23 UNL     1      72.541  66.181 110.055  0.00  0.00    +0.000 C 
ATOM     52  C24 UNL     1      71.945  64.877 109.415  0.00  0.00    +0.000 C 
BRANCH  51  53
ATOM     53  N1  UNL     1      73.978  66.387 109.674  0.00  0.00    +0.000 NA
ATOM     54  C25 UNL     1      74.737  65.115 109.755  0.00  0.00    +0.000 C 
ATOM     55  C26 UNL     1      74.640  67.373 110.556  0.00  0.00    +0.000 C 
ENDBRANCH  51  53
BRANCH  52  56
ATOM     56  O9  UNL     1      71.065  64.270 110.319  0.00  0.00    +0.000 OA
ATOM     57  H41 UNL     1      70.312  63.912 109.783  0.00  0.00    +0.000 HD
ENDBRANCH  52  56
ENDBRANCH  45  46
ENDBRANCH  10  45
TORSDOF 12
ENDMDL
MODEL 12
REMARK VINA RESULT:      -6.2      4.566      9.036
REMARK  Name = ./S1835.pdb
REMARK  26 active torsions:
REMARK  status: ('A' for Active; 'I' for Inactive)
REMARK    1  A    between atoms: C1_1  and  C2_2
REMARK    2  A    between atoms: C2_2  and  C3_3
REMARK    3  A    between atoms: C5_7  and  C6_8
REMARK    4  A    between atoms: C7_9  and  O3_10
REMARK    5  A    between atoms: O3_10  and  C8_11
REMARK    6  A    between atoms: C10_13  and  C11_14
REMARK    7  A    between atoms: C10_13  and  O4_15
REMARK    8  A    between atoms: O4_15  and  C12_16
REMARK    9  A    between atoms: C13_17  and  O5_18
REMARK   10  A    between atoms: C14_19  and  C15_20
REMARK   11  A    between atoms: C16_22  and  C17_23
REMARK   12  A    between atoms: C18_24  and  O7_25
REMARK   13  A    between atoms: O7_25  and  C19_26
REMARK   14  A    between atoms: C20_28  and  C21_29
REMARK   15  A    between atoms: C23_31  and  N1_34
REMARK   16  A    between atoms: C24_32  and  O9_33
REMARK   17  A    between atoms: N1_34  and  C25_35
REMARK   18  A    between atoms: N1_34  and  C26_36
REMARK   19  A    between atoms: C27_37  and  C28_38
REMARK   20  A    between atoms: C27_37  and  O10_39
REMARK   21  A    between atoms: C30_41  and  C31_42
REMARK   22  A    between atoms: N2_44  and  C33_45
REMARK   23  A    between atoms: C34_46  and  C35_47
REMARK   24  A    between atoms: C36_48  and  O11_49
REMARK   25  A    between atoms: C37_50  and  C38_51
REMARK   26  A    between atoms: C37_50  and  O12_52
REMARK                            x       y       z     vdW  Elec       q    Type
REMARK                         _______ _______ _______ _____ _____    ______ ____
ROOT
ATOM      1  C3  UNL     1      78.916  69.874 107.622  0.00  0.00    +0.000 C 
ATOM      2  O1  UNL     1      77.562  69.639 107.239  0.00  0.00    +0.000 OA
ATOM      3  C4  UNL     1      76.707  68.718 107.859  0.00  0.00    +0.000 C 
ATOM      4  O2  UNL     1      77.045  68.164 108.934  0.00  0.00    +0.000 OA
ATOM      5  C5  UNL     1      75.345  68.505 107.238  0.00  0.00    +0.000 C 
ATOM      6  C6  UNL     1      74.523  69.785 107.453  0.00  0.00    +0.000 C 
ATOM      7  C7  UNL     1      74.532  67.214 107.667  0.00  0.00    +0.000 C 
ATOM      8  C16 UNL     1      74.507  65.996 106.651  0.00  0.00    +0.000 C 
ATOM      9  C17 UNL     1      74.369  66.398 105.174  0.00  0.00    +0.000 C 
ATOM     10  C18 UNL     1      75.404  64.722 106.911  0.00  0.00    +0.000 C 
ATOM     11  C27 UNL     1      76.861  64.627 106.296  0.00  0.00    +0.000 C 
ATOM     12  C28 UNL     1      76.845  64.455 104.749  0.00  0.00    +0.000 C 
ATOM     13  C29 UNL     1      77.706  65.865 106.705  0.00  0.00    +0.000 C 
ATOM     14  C30 UNL     1      79.264  65.850 106.544  0.00  0.00    +0.000 C 
ATOM     15  C31 UNL     1      79.957  64.637 107.180  0.00  0.00    +0.000 C 
ATOM     16  C32 UNL     1      79.785  66.080 105.105  0.00  0.00    +0.000 C 
ATOM     17  N2  UNL     1      79.393  67.410 104.573  0.00  0.00    +0.000 NA
ATOM     18  C33 UNL     1      79.207  67.347 103.110  0.00  0.00    +0.000 C 
ATOM     19  C34 UNL     1      80.318  68.505 105.007  0.00  0.00    +0.000 C 
ATOM     20  C35 UNL     1      81.605  68.584 104.152  0.00  0.00    +0.000 C 
ATOM     21  C36 UNL     1      79.598  69.913 105.069  0.00  0.00    +0.000 C 
ATOM     22  C37 UNL     1      79.654  70.653 106.466  0.00  0.00    +0.000 C 
ATOM     23  C38 UNL     1      81.135  70.884 106.851  0.00  0.00    +0.000 C 
ENDROOT
BRANCH   1  25
ATOM     24  C1  UNL     1      77.759  71.605 109.123  0.00  0.00    +0.000 C 
ATOM     25  C2  UNL     1      78.934  70.635 108.980  0.00  0.00    +0.000 C 
ENDBRANCH   1  25
BRANCH  11  26
ATOM     26  O10 UNL     1      77.454  63.488 106.872  0.00  0.00    +0.000 OA
ATOM     27  H51 UNL     1      76.947  62.678 106.599  0.00  0.00    +0.000 HD
ENDBRANCH  11  26
BRANCH  21  28
ATOM     28  O11 UNL     1      78.289  69.890 104.546  0.00  0.00    +0.000 OA
ATOM     29  H68 UNL     1      78.109  68.993 104.172  0.00  0.00    +0.000 HD
ENDBRANCH  21  28
BRANCH  22  30
ATOM     30  O12 UNL     1      79.077  71.931 106.317  0.00  0.00    +0.000 OA
ATOM     31  H72 UNL     1      78.188  71.928 106.755  0.00  0.00    +0.000 HD
ENDBRANCH  22  30
BRANCH   7  32
ATOM     32  O3  UNL     1      74.850  66.774 108.986  0.00  0.00    +0.000 OA
BRANCH  32  33
ATOM     33  C8  UNL     1      73.705  66.390 109.743  0.00  0.00    +0.000 C 
ATOM     34  C9  UNL     1      73.928  64.986 110.350  0.00  0.00    +0.000 C 
ATOM     35  C10 UNL     1      73.078  64.743 111.611  0.00  0.00    +0.000 C 
ATOM     36  C11 UNL     1      71.576  64.706 111.187  0.00  0.00    +0.000 C 
ATOM     37  C13 UNL     1      73.385  65.881 112.647  0.00  0.00    +0.000 C 
ATOM     38  C14 UNL     1      73.902  67.200 111.992  0.00  0.00    +0.000 C 
ATOM     39  C15 UNL     1      75.430  67.366 112.060  0.00  0.00    +0.000 C 
ATOM     40  O6  UNL     1      73.389  67.409 110.685  0.00  0.00    +0.000 OA
BRANCH  35  41
ATOM     41  O4  UNL     1      73.512  63.477 112.112  0.00  0.00    +0.000 OA
ATOM     42  C12 UNL     1      74.638  63.542 112.968  0.00  0.00    +0.000 C 
ENDBRANCH  35  41
BRANCH  37  43
ATOM     43  O5  UNL     1      72.233  66.165 113.408  0.00  0.00    +0.000 OA
ATOM     44  H22 UNL     1      71.444  65.874 112.878  0.00  0.00    +0.000 HD
ENDBRANCH  37  43
ENDBRANCH  32  33
ENDBRANCH   7  32
BRANCH  10  45
ATOM     45  O7  UNL     1      74.672  63.595 106.434  0.00  0.00    +0.000 OA
BRANCH  45  46
ATOM     46  C19 UNL     1      74.293  62.669 107.440  0.00  0.00    +0.000 C 
ATOM     47  O8  UNL     1      75.380  61.779 107.629  0.00  0.00    +0.000 OA
ATOM     48  C20 UNL     1      75.183  60.907 108.740  0.00  0.00    +0.000 C 
ATOM     49  C21 UNL     1      75.774  61.511 110.018  0.00  0.00    +0.000 C 
ATOM     50  C22 UNL     1      73.707  60.480 108.937  0.00  0.00    +0.000 C 
ATOM     51  C23 UNL     1      72.981  60.434 107.571  0.00  0.00    +0.000 C 
ATOM     52  C24 UNL     1      73.044  61.881 106.965  0.00  0.00    +0.000 C 
BRANCH  51  53
ATOM     53  N1  UNL     1      73.553  59.409 106.637  0.00  0.00    +0.000 NA
ATOM     54  C25 UNL     1      73.138  59.674 105.238  0.00  0.00    +0.000 C 
ATOM     55  C26 UNL     1      73.116  58.041 106.994  0.00  0.00    +0.000 C 
ENDBRANCH  51  53
BRANCH  52  56
ATOM     56  O9  UNL     1      71.897  62.595 107.336  0.00  0.00    +0.000 OA
ATOM     57  H41 UNL     1      71.310  62.621 106.538  0.00  0.00    +0.000 HD
ENDBRANCH  52  56
ENDBRANCH  45  46
ENDBRANCH  10  45
TORSDOF 12
ENDMDL
MODEL 13
REMARK VINA RESULT:      -6.2      2.581      4.472
REMARK  Name = ./S1835.pdb
REMARK  26 active torsions:
REMARK  status: ('A' for Active; 'I' for Inactive)
REMARK    1  A    between atoms: C1_1  and  C2_2
REMARK    2  A    between atoms: C2_2  and  C3_3
REMARK    3  A    between atoms: C5_7  and  C6_8
REMARK    4  A    between atoms: C7_9  and  O3_10
REMARK    5  A    between atoms: O3_10  and  C8_11
REMARK    6  A    between atoms: C10_13  and  C11_14
REMARK    7  A    between atoms: C10_13  and  O4_15
REMARK    8  A    between atoms: O4_15  and  C12_16
REMARK    9  A    between atoms: C13_17  and  O5_18
REMARK   10  A    between atoms: C14_19  and  C15_20
REMARK   11  A    between atoms: C16_22  and  C17_23
REMARK   12  A    between atoms: C18_24  and  O7_25
REMARK   13  A    between atoms: O7_25  and  C19_26
REMARK   14  A    between atoms: C20_28  and  C21_29
REMARK   15  A    between atoms: C23_31  and  N1_34
REMARK   16  A    between atoms: C24_32  and  O9_33
REMARK   17  A    between atoms: N1_34  and  C25_35
REMARK   18  A    between atoms: N1_34  and  C26_36
REMARK   19  A    between atoms: C27_37  and  C28_38
REMARK   20  A    between atoms: C27_37  and  O10_39
REMARK   21  A    between atoms: C30_41  and  C31_42
REMARK   22  A    between atoms: N2_44  and  C33_45
REMARK   23  A    between atoms: C34_46  and  C35_47
REMARK   24  A    between atoms: C36_48  and  O11_49
REMARK   25  A    between atoms: C37_50  and  C38_51
REMARK   26  A    between atoms: C37_50  and  O12_52
REMARK                            x       y       z     vdW  Elec       q    Type
REMARK                         _______ _______ _______ _____ _____    ______ ____
ROOT
ATOM      1  C3  UNL     1      74.089  65.368 110.496  0.00  0.00    +0.000 C 
ATOM      2  O1  UNL     1      73.368  65.130 109.289  0.00  0.00    +0.000 OA
ATOM      3  C4  UNL     1      73.521  63.998 108.479  0.00  0.00    +0.000 C 
ATOM      4  O2  UNL     1      74.194  63.017 108.882  0.00  0.00    +0.000 OA
ATOM      5  C5  UNL     1      72.771  63.973 107.166  0.00  0.00    +0.000 C 
ATOM      6  C6  UNL     1      71.273  63.846 107.481  0.00  0.00    +0.000 C 
ATOM      7  C7  UNL     1      73.226  62.917 106.076  0.00  0.00    +0.000 C 
ATOM      8  C16 UNL     1      74.098  63.449 104.862  0.00  0.00    +0.000 C 
ATOM      9  C17 UNL     1      73.660  64.816 104.311  0.00  0.00    +0.000 C 
ATOM     10  C18 UNL     1      75.656  63.188 104.825  0.00  0.00    +0.000 C 
ATOM     11  C27 UNL     1      76.663  64.247 105.434  0.00  0.00    +0.000 C 
ATOM     12  C28 UNL     1      76.735  65.554 104.592  0.00  0.00    +0.000 C 
ATOM     13  C29 UNL     1      76.295  64.562 106.911  0.00  0.00    +0.000 C 
ATOM     14  C30 UNL     1      77.322  65.283 107.848  0.00  0.00    +0.000 C 
ATOM     15  C31 UNL     1      78.711  64.631 107.889  0.00  0.00    +0.000 C 
ATOM     16  C32 UNL     1      77.446  66.812 107.645  0.00  0.00    +0.000 C 
ATOM     17  N2  UNL     1      76.169  67.519 107.919  0.00  0.00    +0.000 NA
ATOM     18  C33 UNL     1      76.050  68.720 107.069  0.00  0.00    +0.000 C 
ATOM     19  C34 UNL     1      75.961  67.801 109.376  0.00  0.00    +0.000 C 
ATOM     20  C35 UNL     1      76.719  69.058 109.863  0.00  0.00    +0.000 C 
ATOM     21  C36 UNL     1      74.428  67.884 109.760  0.00  0.00    +0.000 C 
ATOM     22  C37 UNL     1      73.950  66.888 110.893  0.00  0.00    +0.000 C 
ATOM     23  C38 UNL     1      74.756  67.171 112.183  0.00  0.00    +0.000 C 
ENDROOT
BRANCH   1  25
ATOM     24  C1  UNL     1      74.690  63.569 112.225  0.00  0.00    +0.000 C 
ATOM     25  C2  UNL     1      73.567  64.399 111.598  0.00  0.00    +0.000 C 
ENDBRANCH   1  25
BRANCH  11  26
ATOM     26  O10 UNL     1      77.930  63.632 105.425  0.00  0.00    +0.000 OA
ATOM     27  H51 UNL     1      78.096  63.235 104.530  0.00  0.00    +0.000 HD
ENDBRANCH  11  26
BRANCH  21  28
ATOM     28  O11 UNL     1      73.572  67.848 108.641  0.00  0.00    +0.000 OA
ATOM     29  H68 UNL     1      72.664  67.596 108.941  0.00  0.00    +0.000 HD
ENDBRANCH  21  28
BRANCH  22  30
ATOM     30  O12 UNL     1      72.601  67.174 111.196  0.00  0.00    +0.000 OA
ATOM     31  H72 UNL     1      72.118  67.345 110.348  0.00  0.00    +0.000 HD
ENDBRANCH  22  30
BRANCH   7  32
ATOM     32  O3  UNL     1      73.806  61.747 106.649  0.00  0.00    +0.000 OA
BRANCH  32  33
ATOM     33  C8  UNL     1      73.200  60.538 106.197  0.00  0.00    +0.000 C 
ATOM     34  C9  UNL     1      74.291  59.482 105.910  0.00  0.00    +0.000 C 
ATOM     35  C10 UNL     1      73.762  58.039 106.007  0.00  0.00    +0.000 C 
ATOM     36  C11 UNL     1      72.743  57.816 104.845  0.00  0.00    +0.000 C 
ATOM     37  C13 UNL     1      73.116  57.839 107.423  0.00  0.00    +0.000 C 
ATOM     38  C14 UNL     1      72.616  59.166 108.076  0.00  0.00    +0.000 C 
ATOM     39  C15 UNL     1      73.589  59.747 109.116  0.00  0.00    +0.000 C 
ATOM     40  O6  UNL     1      72.198  60.131 107.122  0.00  0.00    +0.000 OA
BRANCH  35  41
ATOM     41  O4  UNL     1      74.915  57.210 105.859  0.00  0.00    +0.000 OA
ATOM     42  C12 UNL     1      76.008  57.838 105.213  0.00  0.00    +0.000 C 
ENDBRANCH  35  41
BRANCH  37  43
ATOM     43  O5  UNL     1      72.040  56.932 107.339  0.00  0.00    +0.000 OA
ATOM     44  H22 UNL     1      72.381  56.100 106.915  0.00  0.00    +0.000 HD
ENDBRANCH  37  43
ENDBRANCH  32  33
ENDBRANCH   7  32
BRANCH  10  45
ATOM     45  O7  UNL     1      76.013  63.007 103.456  0.00  0.00    +0.000 OA
BRANCH  45  46
ATOM     46  C19 UNL     1      76.449  61.697 103.127  0.00  0.00    +0.000 C 
ATOM     47  O8  UNL     1      77.650  61.824 102.384  0.00  0.00    +0.000 OA
ATOM     48  C20 UNL     1      78.277  60.567 102.144  0.00  0.00    +0.000 C 
ATOM     49  C21 UNL     1      79.285  60.241 103.251  0.00  0.00    +0.000 C 
ATOM     50  C22 UNL     1      77.273  59.407 101.923  0.00  0.00    +0.000 C 
ATOM     51  C23 UNL     1      75.976  59.945 101.273  0.00  0.00    +0.000 C 
ATOM     52  C24 UNL     1      75.366  60.999 102.263  0.00  0.00    +0.000 C 
BRANCH  51  53
ATOM     53  N1  UNL     1      76.199  60.520  99.906  0.00  0.00    +0.000 NA
ATOM     54  C25 UNL     1      75.087  61.423  99.522  0.00  0.00    +0.000 C 
ATOM     55  C26 UNL     1      76.307  59.461  98.879  0.00  0.00    +0.000 C 
ENDBRANCH  51  53
BRANCH  52  56
ATOM     56  O9  UNL     1      74.451  60.369 103.116  0.00  0.00    +0.000 OA
ATOM     57  H41 UNL     1      74.513  59.397 102.928  0.00  0.00    +0.000 HD
ENDBRANCH  52  56
ENDBRANCH  45  46
ENDBRANCH  10  45
TORSDOF 12
ENDMDL
MODEL 14
REMARK VINA RESULT:      -6.2      3.036      9.720
REMARK  Name = ./S1835.pdb
REMARK  26 active torsions:
REMARK  status: ('A' for Active; 'I' for Inactive)
REMARK    1  A    between atoms: C1_1  and  C2_2
REMARK    2  A    between atoms: C2_2  and  C3_3
REMARK    3  A    between atoms: C5_7  and  C6_8
REMARK    4  A    between atoms: C7_9  and  O3_10
REMARK    5  A    between atoms: O3_10  and  C8_11
REMARK    6  A    between atoms: C10_13  and  C11_14
REMARK    7  A    between atoms: C10_13  and  O4_15
REMARK    8  A    between atoms: O4_15  and  C12_16
REMARK    9  A    between atoms: C13_17  and  O5_18
REMARK   10  A    between atoms: C14_19  and  C15_20
REMARK   11  A    between atoms: C16_22  and  C17_23
REMARK   12  A    between atoms: C18_24  and  O7_25
REMARK   13  A    between atoms: O7_25  and  C19_26
REMARK   14  A    between atoms: C20_28  and  C21_29
REMARK   15  A    between atoms: C23_31  and  N1_34
REMARK   16  A    between atoms: C24_32  and  O9_33
REMARK   17  A    between atoms: N1_34  and  C25_35
REMARK   18  A    between atoms: N1_34  and  C26_36
REMARK   19  A    between atoms: C27_37  and  C28_38
REMARK   20  A    between atoms: C27_37  and  O10_39
REMARK   21  A    between atoms: C30_41  and  C31_42
REMARK   22  A    between atoms: N2_44  and  C33_45
REMARK   23  A    between atoms: C34_46  and  C35_47
REMARK   24  A    between atoms: C36_48  and  O11_49
REMARK   25  A    between atoms: C37_50  and  C38_51
REMARK   26  A    between atoms: C37_50  and  O12_52
REMARK                            x       y       z     vdW  Elec       q    Type
REMARK                         _______ _______ _______ _____ _____    ______ ____
ROOT
ATOM      1  C3  UNL     1      71.140  56.806  96.320  0.00  0.00    +0.000 C 
ATOM      2  O1  UNL     1      72.323  57.477  96.749  0.00  0.00    +0.000 OA
ATOM      3  C4  UNL     1      72.798  57.492  98.067  0.00  0.00    +0.000 C 
ATOM      4  O2  UNL     1      72.286  56.739  98.933  0.00  0.00    +0.000 OA
ATOM      5  C5  UNL     1      73.996  58.363  98.367  0.00  0.00    +0.000 C 
ATOM      6  C6  UNL     1      75.218  57.740  97.674  0.00  0.00    +0.000 C 
ATOM      7  C7  UNL     1      74.300  58.704  99.884  0.00  0.00    +0.000 C 
ATOM      8  C16 UNL     1      73.893  60.146 100.405  0.00  0.00    +0.000 C 
ATOM      9  C17 UNL     1      74.163  61.285  99.409  0.00  0.00    +0.000 C 
ATOM     10  C18 UNL     1      72.603  60.337 101.296  0.00  0.00    +0.000 C 
ATOM     11  C27 UNL     1      71.207  60.672 100.628  0.00  0.00    +0.000 C 
ATOM     12  C28 UNL     1      71.161  62.109 100.032  0.00  0.00    +0.000 C 
ATOM     13  C29 UNL     1      70.854  59.614  99.546  0.00  0.00    +0.000 C 
ATOM     14  C30 UNL     1      69.392  59.497  98.998  0.00  0.00    +0.000 C 
ATOM     15  C31 UNL     1      68.315  59.366 100.084  0.00  0.00    +0.000 C 
ATOM     16  C32 UNL     1      68.985  60.568  97.958  0.00  0.00    +0.000 C 
ATOM     17  N2  UNL     1      69.821  60.505  96.732  0.00  0.00    +0.000 NA
ATOM     18  C33 UNL     1      69.972  61.849  96.140  0.00  0.00    +0.000 C 
ATOM     19  C34 UNL     1      69.343  59.477  95.754  0.00  0.00    +0.000 C 
ATOM     20  C35 UNL     1      68.167  59.973  94.881  0.00  0.00    +0.000 C 
ATOM     21  C36 UNL     1      70.515  58.913  94.852  0.00  0.00    +0.000 C 
ATOM     22  C37 UNL     1      70.724  57.346  94.898  0.00  0.00    +0.000 C 
ATOM     23  C38 UNL     1      69.421  56.653  94.433  0.00  0.00    +0.000 C 
ENDROOT
BRANCH   1  25
ATOM     24  C1  UNL     1      70.357  54.519  97.180  0.00  0.00    +0.000 C 
ATOM     25  C2  UNL     1      71.392  55.270  96.341  0.00  0.00    +0.000 C 
ENDBRANCH   1  25
BRANCH  11  26
ATOM     26  O10 UNL     1      70.249  60.576 101.656  0.00  0.00    +0.000 OA
ATOM     27  H51 UNL     1      69.909  61.484 101.874  0.00  0.00    +0.000 HD
ENDBRANCH  11  26
BRANCH  21  28
ATOM     28  O11 UNL     1      71.731  59.605  95.026  0.00  0.00    +0.000 OA
ATOM     29  H68 UNL     1      71.608  60.544  94.743  0.00  0.00    +0.000 HD
ENDBRANCH  21  28
BRANCH  22  30
ATOM     30  O12 UNL     1      71.716  57.001  93.955  0.00  0.00    +0.000 OA
ATOM     31  H72 UNL     1      72.562  56.822  94.440  0.00  0.00    +0.000 HD
ENDBRANCH  22  30
BRANCH   7  32
ATOM     32  O3  UNL     1      73.848  57.690 100.779  0.00  0.00    +0.000 OA
BRANCH  32  33
ATOM     33  C8  UNL     1      74.892  56.832 101.233  0.00  0.00    +0.000 C 
ATOM     34  C9  UNL     1      75.437  57.341 102.586  0.00  0.00    +0.000 C 
ATOM     35  C10 UNL     1      76.094  56.226 103.420  0.00  0.00    +0.000 C 
ATOM     36  C11 UNL     1      77.384  55.758 102.677  0.00  0.00    +0.000 C 
ATOM     37  C13 UNL     1      75.052  55.067 103.610  0.00  0.00    +0.000 C 
ATOM     38  C14 UNL     1      73.966  55.012 102.492  0.00  0.00    +0.000 C 
ATOM     39  C15 UNL     1      72.627  55.653 102.899  0.00  0.00    +0.000 C 
ATOM     40  O6  UNL     1      74.436  55.484 101.238  0.00  0.00    +0.000 OA
BRANCH  35  41
ATOM     41  O4  UNL     1      76.403  56.834 104.675  0.00  0.00    +0.000 OA
ATOM     42  C12 UNL     1      75.284  57.033 105.520  0.00  0.00    +0.000 C 
ENDBRANCH  35  41
BRANCH  37  43
ATOM     43  O5  UNL     1      75.717  53.825 103.668  0.00  0.00    +0.000 OA
ATOM     44  H22 UNL     1      76.224  53.716 102.819  0.00  0.00    +0.000 HD
ENDBRANCH  37  43
ENDBRANCH  32  33
ENDBRANCH   7  32
BRANCH  10  45
ATOM     45  O7  UNL     1      72.890  61.385 102.221  0.00  0.00    +0.000 OA
BRANCH  45  46
ATOM     46  C19 UNL     1      72.338  61.199 103.515  0.00  0.00    +0.000 C 
ATOM     47  O8  UNL     1      72.415  62.443 104.191  0.00  0.00    +0.000 OA
ATOM     48  C20 UNL     1      71.732  62.426 105.442  0.00  0.00    +0.000 C 
ATOM     49  C21 UNL     1      70.279  62.884 105.276  0.00  0.00    +0.000 C 
ATOM     50  C22 UNL     1      71.823  61.065 106.178  0.00  0.00    +0.000 C 
ATOM     51  C23 UNL     1      73.157  60.362 105.829  0.00  0.00    +0.000 C 
ATOM     52  C24 UNL     1      73.168  60.133 104.277  0.00  0.00    +0.000 C 
BRANCH  51  53
ATOM     53  N1  UNL     1      74.362  61.127 106.293  0.00  0.00    +0.000 NA
ATOM     54  C25 UNL     1      75.561  60.761 105.500  0.00  0.00    +0.000 C 
ATOM     55  C26 UNL     1      74.657  60.868 107.719  0.00  0.00    +0.000 C 
ENDBRANCH  51  53
BRANCH  52  56
ATOM     56  O9  UNL     1      72.645  58.867 103.985  0.00  0.00    +0.000 OA
ATOM     57  H41 UNL     1      73.067  58.234 104.620  0.00  0.00    +0.000 HD
ENDBRANCH  52  56
ENDBRANCH  45  46
ENDBRANCH  10  45
TORSDOF 12
ENDMDL
MODEL 15
REMARK VINA RESULT:      -6.2      3.188      4.383
REMARK  Name = ./S1835.pdb
REMARK  26 active torsions:
REMARK  status: ('A' for Active; 'I' for Inactive)
REMARK    1  A    between atoms: C1_1  and  C2_2
REMARK    2  A    between atoms: C2_2  and  C3_3
REMARK    3  A    between atoms: C5_7  and  C6_8
REMARK    4  A    between atoms: C7_9  and  O3_10
REMARK    5  A    between atoms: O3_10  and  C8_11
REMARK    6  A    between atoms: C10_13  and  C11_14
REMARK    7  A    between atoms: C10_13  and  O4_15
REMARK    8  A    between atoms: O4_15  and  C12_16
REMARK    9  A    between atoms: C13_17  and  O5_18
REMARK   10  A    between atoms: C14_19  and  C15_20
REMARK   11  A    between atoms: C16_22  and  C17_23
REMARK   12  A    between atoms: C18_24  and  O7_25
REMARK   13  A    between atoms: O7_25  and  C19_26
REMARK   14  A    between atoms: C20_28  and  C21_29
REMARK   15  A    between atoms: C23_31  and  N1_34
REMARK   16  A    between atoms: C24_32  and  O9_33
REMARK   17  A    between atoms: N1_34  and  C25_35
REMARK   18  A    between atoms: N1_34  and  C26_36
REMARK   19  A    between atoms: C27_37  and  C28_38
REMARK   20  A    between atoms: C27_37  and  O10_39
REMARK   21  A    between atoms: C30_41  and  C31_42
REMARK   22  A    between atoms: N2_44  and  C33_45
REMARK   23  A    between atoms: C34_46  and  C35_47
REMARK   24  A    between atoms: C36_48  and  O11_49
REMARK   25  A    between atoms: C37_50  and  C38_51
REMARK   26  A    between atoms: C37_50  and  O12_52
REMARK                            x       y       z     vdW  Elec       q    Type
REMARK                         _______ _______ _______ _____ _____    ______ ____
ROOT
ATOM      1  C3  UNL     1      74.921  63.610 110.386  0.00  0.00    +0.000 C 
ATOM      2  O1  UNL     1      74.106  63.404 109.233  0.00  0.00    +0.000 OA
ATOM      3  C4  UNL     1      74.512  62.717 108.083  0.00  0.00    +0.000 C 
ATOM      4  O2  UNL     1      75.588  62.069 108.079  0.00  0.00    +0.000 OA
ATOM      5  C5  UNL     1      73.563  62.707 106.905  0.00  0.00    +0.000 C 
ATOM      6  C6  UNL     1      72.346  61.850 107.286  0.00  0.00    +0.000 C 
ATOM      7  C7  UNL     1      74.146  62.293 105.491  0.00  0.00    +0.000 C 
ATOM      8  C16 UNL     1      74.446  63.456 104.455  0.00  0.00    +0.000 C 
ATOM      9  C17 UNL     1      73.394  64.576 104.429  0.00  0.00    +0.000 C 
ATOM     10  C18 UNL     1      75.930  63.935 104.201  0.00  0.00    +0.000 C 
ATOM     11  C27 UNL     1      76.544  65.128 105.041  0.00  0.00    +0.000 C 
ATOM     12  C28 UNL     1      75.907  66.502 104.679  0.00  0.00    +0.000 C 
ATOM     13  C29 UNL     1      76.417  64.845 106.564  0.00  0.00    +0.000 C 
ATOM     14  C30 UNL     1      77.254  65.672 107.597  0.00  0.00    +0.000 C 
ATOM     15  C31 UNL     1      78.760  65.720 107.301  0.00  0.00    +0.000 C 
ATOM     16  C32 UNL     1      76.716  67.089 107.905  0.00  0.00    +0.000 C 
ATOM     17  N2  UNL     1      75.358  67.055 108.506  0.00  0.00    +0.000 NA
ATOM     18  C33 UNL     1      74.591  68.255 108.117  0.00  0.00    +0.000 C 
ATOM     19  C34 UNL     1      75.383  66.821 109.985  0.00  0.00    +0.000 C 
ATOM     20  C35 UNL     1      75.670  68.106 110.797  0.00  0.00    +0.000 C 
ATOM     21  C36 UNL     1      74.068  66.109 110.504  0.00  0.00    +0.000 C 
ATOM     22  C37 UNL     1      74.284  64.745 111.276  0.00  0.00    +0.000 C 
ATOM     23  C38 UNL     1      75.176  65.006 112.513  0.00  0.00    +0.000 C 
ENDROOT
BRANCH   1  25
ATOM     24  C1  UNL     1      76.547  61.908 111.407  0.00  0.00    +0.000 C 
ATOM     25  C2  UNL     1      75.081  62.259 111.142  0.00  0.00    +0.000 C 
ENDBRANCH   1  25
BRANCH  11  26
ATOM     26  O10 UNL     1      77.915  65.167 104.720  0.00  0.00    +0.000 OA
ATOM     27  H51 UNL     1      78.021  65.387 103.757  0.00  0.00    +0.000 HD
ENDBRANCH  11  26
BRANCH  21  28
ATOM     28  O11 UNL     1      73.072  65.993 109.513  0.00  0.00    +0.000 OA
ATOM     29  H68 UNL     1      72.841  65.038 109.402  0.00  0.00    +0.000 HD
ENDBRANCH  21  28
BRANCH  22  30
ATOM     30  O12 UNL     1      73.035  64.311 111.770  0.00  0.00    +0.000 OA
ATOM     31  H72 UNL     1      72.450  65.102 111.885  0.00  0.00    +0.000 HD
ENDBRANCH  22  30
BRANCH   7  32
ATOM     32  O3  UNL     1      75.252  61.398 105.590  0.00  0.00    +0.000 OA
BRANCH  32  33
ATOM     33  C8  UNL     1      75.111  60.235 104.779  0.00  0.00    +0.000 C 
ATOM     34  C9  UNL     1      76.382  59.362 104.891  0.00  0.00    +0.000 C 
ATOM     35  C10 UNL     1      76.114  57.880 104.571  0.00  0.00    +0.000 C 
ATOM     36  C11 UNL     1      75.743  57.766 103.060  0.00  0.00    +0.000 C 
ATOM     37  C13 UNL     1      74.969  57.366 105.514  0.00  0.00    +0.000 C 
ATOM     38  C14 UNL     1      74.022  58.497 106.022  0.00  0.00    +0.000 C 
ATOM     39  C15 UNL     1      74.344  58.977 107.448  0.00  0.00    +0.000 C 
ATOM     40  O6  UNL     1      73.895  59.570 105.102  0.00  0.00    +0.000 OA
BRANCH  35  41
ATOM     41  O4  UNL     1      77.342  57.210 104.861  0.00  0.00    +0.000 OA
ATOM     42  C12 UNL     1      77.977  56.637 103.732  0.00  0.00    +0.000 C 
ENDBRANCH  35  41
BRANCH  37  43
ATOM     43  O5  UNL     1      74.203  56.385 104.852  0.00  0.00    +0.000 OA
ATOM     44  H22 UNL     1      73.890  56.778 103.994  0.00  0.00    +0.000 HD
ENDBRANCH  37  43
ENDBRANCH  32  33
ENDBRANCH   7  32
BRANCH  10  45
ATOM     45  O7  UNL     1      76.019  64.299 102.825  0.00  0.00    +0.000 OA
BRANCH  45  46
ATOM     46  C19 UNL     1      76.710  63.366 102.010  0.00  0.00    +0.000 C 
ATOM     47  O8  UNL     1      78.021  63.235 102.534  0.00  0.00    +0.000 OA
ATOM     48  C20 UNL     1      78.759  62.192 101.901  0.00  0.00    +0.000 C 
ATOM     49  C21 UNL     1      78.590  60.870 102.656  0.00  0.00    +0.000 C 
ATOM     50  C22 UNL     1      78.440  62.037 100.392  0.00  0.00    +0.000 C 
ATOM     51  C23 UNL     1      78.050  63.407  99.788  0.00  0.00    +0.000 C 
ATOM     52  C24 UNL     1      76.775  63.905 100.556  0.00  0.00    +0.000 C 
BRANCH  51  53
ATOM     53  N1  UNL     1      79.164  64.409  99.840  0.00  0.00    +0.000 NA
ATOM     54  C25 UNL     1      78.632  65.794  99.877  0.00  0.00    +0.000 C 
ATOM     55  C26 UNL     1      80.059  64.292  98.668  0.00  0.00    +0.000 C 
ENDBRANCH  51  53
BRANCH  52  56
ATOM     56  O9  UNL     1      75.624  63.490  99.875  0.00  0.00    +0.000 OA
ATOM     57  H41 UNL     1      74.889  63.479 100.540  0.00  0.00    +0.000 HD
ENDBRANCH  52  56
ENDBRANCH  45  46
ENDBRANCH  10  45
TORSDOF 12
ENDMDL
MODEL 16
REMARK VINA RESULT:      -6.1      2.955      9.097
REMARK  Name = ./S1835.pdb
REMARK  26 active torsions:
REMARK  status: ('A' for Active; 'I' for Inactive)
REMARK    1  A    between atoms: C1_1  and  C2_2
REMARK    2  A    between atoms: C2_2  and  C3_3
REMARK    3  A    between atoms: C5_7  and  C6_8
REMARK    4  A    between atoms: C7_9  and  O3_10
REMARK    5  A    between atoms: O3_10  and  C8_11
REMARK    6  A    between atoms: C10_13  and  C11_14
REMARK    7  A    between atoms: C10_13  and  O4_15
REMARK    8  A    between atoms: O4_15  and  C12_16
REMARK    9  A    between atoms: C13_17  and  O5_18
REMARK   10  A    between atoms: C14_19  and  C15_20
REMARK   11  A    between atoms: C16_22  and  C17_23
REMARK   12  A    between atoms: C18_24  and  O7_25
REMARK   13  A    between atoms: O7_25  and  C19_26
REMARK   14  A    between atoms: C20_28  and  C21_29
REMARK   15  A    between atoms: C23_31  and  N1_34
REMARK   16  A    between atoms: C24_32  and  O9_33
REMARK   17  A    between atoms: N1_34  and  C25_35
REMARK   18  A    between atoms: N1_34  and  C26_36
REMARK   19  A    between atoms: C27_37  and  C28_38
REMARK   20  A    between atoms: C27_37  and  O10_39
REMARK   21  A    between atoms: C30_41  and  C31_42
REMARK   22  A    between atoms: N2_44  and  C33_45
REMARK   23  A    between atoms: C34_46  and  C35_47
REMARK   24  A    between atoms: C36_48  and  O11_49
REMARK   25  A    between atoms: C37_50  and  C38_51
REMARK   26  A    between atoms: C37_50  and  O12_52
REMARK                            x       y       z     vdW  Elec       q    Type
REMARK                         _______ _______ _______ _____ _____    ______ ____
ROOT
ATOM      1  C3  UNL     1      71.383  61.757 101.132  0.00  0.00    +0.000 C 
ATOM      2  O1  UNL     1      71.735  61.305 102.438  0.00  0.00    +0.000 OA
ATOM      3  C4  UNL     1      72.326  62.104 103.425  0.00  0.00    +0.000 C 
ATOM      4  O2  UNL     1      72.414  63.346 103.266  0.00  0.00    +0.000 OA
ATOM      5  C5  UNL     1      72.752  61.426 104.708  0.00  0.00    +0.000 C 
ATOM      6  C6  UNL     1      71.482  61.003 105.463  0.00  0.00    +0.000 C 
ATOM      7  C7  UNL     1      73.760  62.200 105.654  0.00  0.00    +0.000 C 
ATOM      8  C16 UNL     1      75.280  61.747 105.631  0.00  0.00    +0.000 C 
ATOM      9  C17 UNL     1      75.492  60.227 105.550  0.00  0.00    +0.000 C 
ATOM     10  C18 UNL     1      76.357  62.609 104.861  0.00  0.00    +0.000 C 
ATOM     11  C27 UNL     1      76.704  62.297 103.348  0.00  0.00    +0.000 C 
ATOM     12  C28 UNL     1      77.472  60.955 103.176  0.00  0.00    +0.000 C 
ATOM     13  C29 UNL     1      75.414  62.310 102.480  0.00  0.00    +0.000 C 
ATOM     14  C30 UNL     1      75.509  62.394 100.920  0.00  0.00    +0.000 C 
ATOM     15  C31 UNL     1      76.380  63.545 100.397  0.00  0.00    +0.000 C 
ATOM     16  C32 UNL     1      75.872  61.071 100.204  0.00  0.00    +0.000 C 
ATOM     17  N2  UNL     1      74.856  60.012 100.434  0.00  0.00    +0.000 NA
ATOM     18  C33 UNL     1      75.489  58.679 100.434  0.00  0.00    +0.000 C 
ATOM     19  C34 UNL     1      73.689  60.114  99.501  0.00  0.00    +0.000 C 
ATOM     20  C35 UNL     1      73.969  59.492  98.112  0.00  0.00    +0.000 C 
ATOM     21  C36 UNL     1      72.363  59.518 100.127  0.00  0.00    +0.000 C 
ATOM     22  C37 UNL     1      71.132  60.510 100.201  0.00  0.00    +0.000 C 
ATOM     23  C38 UNL     1      70.784  60.983  98.769  0.00  0.00    +0.000 C 
ENDROOT
BRANCH   1  25
ATOM     24  C1  UNL     1      69.323  62.443 102.500  0.00  0.00    +0.000 C 
ATOM     25  C2  UNL     1      70.147  62.699 101.237  0.00  0.00    +0.000 C 
ENDBRANCH   1  25
BRANCH  11  26
ATOM     26  O10 UNL     1      77.529  63.351 102.911  0.00  0.00    +0.000 OA
ATOM     27  H51 UNL     1      77.673  63.271 101.931  0.00  0.00    +0.000 HD
ENDBRANCH  11  26
BRANCH  21  28
ATOM     28  O11 UNL     1      72.576  58.862 101.356  0.00  0.00    +0.000 OA
ATOM     29  H68 UNL     1      72.024  58.042 101.381  0.00  0.00    +0.000 HD
ENDBRANCH  21  28
BRANCH  22  30
ATOM     30  O12 UNL     1      70.010  59.793 100.667  0.00  0.00    +0.000 OA
ATOM     31  H72 UNL     1      69.682  60.226 101.496  0.00  0.00    +0.000 HD
ENDBRANCH  22  30
BRANCH   7  32
ATOM     32  O3  UNL     1      73.646  63.617 105.538  0.00  0.00    +0.000 OA
BRANCH  32  33
ATOM     33  C8  UNL     1      73.520  64.278 106.796  0.00  0.00    +0.000 C 
ATOM     34  C9  UNL     1      73.277  65.787 106.571  0.00  0.00    +0.000 C 
ATOM     35  C10 UNL     1      72.556  66.455 107.756  0.00  0.00    +0.000 C 
ATOM     36  C11 UNL     1      73.516  66.434 108.986  0.00  0.00    +0.000 C 
ATOM     37  C13 UNL     1      71.216  65.683 108.023  0.00  0.00    +0.000 C 
ATOM     38  C14 UNL     1      71.240  64.201 107.535  0.00  0.00    +0.000 C 
ATOM     39  C15 UNL     1      70.549  63.987 106.177  0.00  0.00    +0.000 C 
ATOM     40  O6  UNL     1      72.535  63.621 107.585  0.00  0.00    +0.000 OA
BRANCH  35  41
ATOM     41  O4  UNL     1      72.288  67.790 107.323  0.00  0.00    +0.000 OA
ATOM     42  C12 UNL     1      71.081  67.939 106.598  0.00  0.00    +0.000 C 
ENDBRANCH  35  41
BRANCH  37  43
ATOM     43  O5  UNL     1      70.908  65.710 109.399  0.00  0.00    +0.000 OA
ATOM     44  H22 UNL     1      70.198  66.393 109.533  0.00  0.00    +0.000 HD
ENDBRANCH  37  43
ENDBRANCH  32  33
ENDBRANCH   7  32
BRANCH  10  45
ATOM     45  O7  UNL     1      77.573  62.509 105.600  0.00  0.00    +0.000 OA
BRANCH  45  46
ATOM     46  C19 UNL     1      78.047  63.738 106.127  0.00  0.00    +0.000 C 
ATOM     47  O8  UNL     1      77.456  64.780 105.369  0.00  0.00    +0.000 OA
ATOM     48  C20 UNL     1      77.722  66.069 105.916  0.00  0.00    +0.000 C 
ATOM     49  C21 UNL     1      76.617  66.486 106.892  0.00  0.00    +0.000 C 
ATOM     50  C22 UNL     1      79.128  66.192 106.556  0.00  0.00    +0.000 C 
ATOM     51  C23 UNL     1      80.126  65.261 105.826  0.00  0.00    +0.000 C 
ATOM     52  C24 UNL     1      79.591  63.794 105.986  0.00  0.00    +0.000 C 
BRANCH  51  53
ATOM     53  N1  UNL     1      80.329  65.631 104.387  0.00  0.00    +0.000 NA
ATOM     54  C25 UNL     1      80.833  64.475 103.607  0.00  0.00    +0.000 C 
ATOM     55  C26 UNL     1      81.297  66.741 104.240  0.00  0.00    +0.000 C 
ENDBRANCH  51  53
BRANCH  52  56
ATOM     56  O9  UNL     1      80.165  63.206 107.120  0.00  0.00    +0.000 OA
ATOM     57  H41 UNL     1      79.468  62.625 107.521  0.00  0.00    +0.000 HD
ENDBRANCH  52  56
ENDBRANCH  45  46
ENDBRANCH  10  45
TORSDOF 12
ENDMDL
MODEL 17
REMARK VINA RESULT:      -6.1      3.663      9.663
REMARK  Name = ./S1835.pdb
REMARK  26 active torsions:
REMARK  status: ('A' for Active; 'I' for Inactive)
REMARK    1  A    between atoms: C1_1  and  C2_2
REMARK    2  A    between atoms: C2_2  and  C3_3
REMARK    3  A    between atoms: C5_7  and  C6_8
REMARK    4  A    between atoms: C7_9  and  O3_10
REMARK    5  A    between atoms: O3_10  and  C8_11
REMARK    6  A    between atoms: C10_13  and  C11_14
REMARK    7  A    between atoms: C10_13  and  O4_15
REMARK    8  A    between atoms: O4_15  and  C12_16
REMARK    9  A    between atoms: C13_17  and  O5_18
REMARK   10  A    between atoms: C14_19  and  C15_20
REMARK   11  A    between atoms: C16_22  and  C17_23
REMARK   12  A    between atoms: C18_24  and  O7_25
REMARK   13  A    between atoms: O7_25  and  C19_26
REMARK   14  A    between atoms: C20_28  and  C21_29
REMARK   15  A    between atoms: C23_31  and  N1_34
REMARK   16  A    between atoms: C24_32  and  O9_33
REMARK   17  A    between atoms: N1_34  and  C25_35
REMARK   18  A    between atoms: N1_34  and  C26_36
REMARK   19  A    between atoms: C27_37  and  C28_38
REMARK   20  A    between atoms: C27_37  and  O10_39
REMARK   21  A    between atoms: C30_41  and  C31_42
REMARK   22  A    between atoms: N2_44  and  C33_45
REMARK   23  A    between atoms: C34_46  and  C35_47
REMARK   24  A    between atoms: C36_48  and  O11_49
REMARK   25  A    between atoms: C37_50  and  C38_51
REMARK   26  A    between atoms: C37_50  and  O12_52
REMARK                            x       y       z     vdW  Elec       q    Type
REMARK                         _______ _______ _______ _____ _____    ______ ____
ROOT
ATOM      1  C3  UNL     1      72.843  61.145 101.906  0.00  0.00    +0.000 C 
ATOM      2  O1  UNL     1      73.319  61.280 103.245  0.00  0.00    +0.000 OA
ATOM      3  C4  UNL     1      73.367  62.486 103.956  0.00  0.00    +0.000 C 
ATOM      4  O2  UNL     1      72.807  63.513 103.499  0.00  0.00    +0.000 OA
ATOM      5  C5  UNL     1      74.024  62.466 105.317  0.00  0.00    +0.000 C 
ATOM      6  C6  UNL     1      73.122  61.660 106.265  0.00  0.00    +0.000 C 
ATOM      7  C7  UNL     1      74.442  63.855 105.956  0.00  0.00    +0.000 C 
ATOM      8  C16 UNL     1      75.976  64.252 105.900  0.00  0.00    +0.000 C 
ATOM      9  C17 UNL     1      76.947  63.090 106.163  0.00  0.00    +0.000 C 
ATOM     10  C18 UNL     1      76.487  65.319 104.853  0.00  0.00    +0.000 C 
ATOM     11  C27 UNL     1      77.012  64.861 103.431  0.00  0.00    +0.000 C 
ATOM     12  C28 UNL     1      78.371  64.106 103.512  0.00  0.00    +0.000 C 
ATOM     13  C29 UNL     1      75.943  63.995 102.708  0.00  0.00    +0.000 C 
ATOM     14  C30 UNL     1      76.051  63.723 101.170  0.00  0.00    +0.000 C 
ATOM     15  C31 UNL     1      76.224  64.983 100.311  0.00  0.00    +0.000 C 
ATOM     16  C32 UNL     1      77.077  62.640 100.758  0.00  0.00    +0.000 C 
ATOM     17  N2  UNL     1      76.745  61.308 101.325  0.00  0.00    +0.000 NA
ATOM     18  C33 UNL     1      77.976  60.535 101.582  0.00  0.00    +0.000 C 
ATOM     19  C34 UNL     1      75.737  60.562 100.506  0.00  0.00    +0.000 C 
ATOM     20  C35 UNL     1      76.361  59.847  99.284  0.00  0.00    +0.000 C 
ATOM     21  C36 UNL     1      74.884  59.552 101.375  0.00  0.00    +0.000 C 
ATOM     22  C37 UNL     1      73.316  59.758 101.324  0.00  0.00    +0.000 C 
ATOM     23  C38 UNL     1      72.838  59.612  99.860  0.00  0.00    +0.000 C 
ENDROOT
BRANCH   1  25
ATOM     24  C1  UNL     1      70.835  62.437 100.964  0.00  0.00    +0.000 C 
ATOM     25  C2  UNL     1      71.295  61.316 101.899  0.00  0.00    +0.000 C 
ENDBRANCH   1  25
BRANCH  11  26
ATOM     26  O10 UNL     1      77.193  66.040 102.683  0.00  0.00    +0.000 OA
ATOM     27  H51 UNL     1      77.445  65.802 101.751  0.00  0.00    +0.000 HD
ENDBRANCH  11  26
BRANCH  21  28
ATOM     28  O11 UNL     1      75.349  59.429 102.700  0.00  0.00    +0.000 OA
ATOM     29  H68 UNL     1      74.594  59.165 103.280  0.00  0.00    +0.000 HD
ENDBRANCH  21  28
BRANCH  22  30
ATOM     30  O12 UNL     1      72.706  58.712 102.049  0.00  0.00    +0.000 OA
ATOM     31  H72 UNL     1      73.409  58.072 102.330  0.00  0.00    +0.000 HD
ENDBRANCH  22  30
BRANCH   7  32
ATOM     32  O3  UNL     1      73.618  64.934 105.519  0.00  0.00    +0.000 OA
BRANCH  32  33
ATOM     33  C8  UNL     1      73.172  65.771 106.584  0.00  0.00    +0.000 C 
ATOM     34  C9  UNL     1      72.333  66.937 106.015  0.00  0.00    +0.000 C 
ATOM     35  C10 UNL     1      71.346  67.516 107.046  0.00  0.00    +0.000 C 
ATOM     36  C11 UNL     1      72.173  68.199 108.180  0.00  0.00    +0.000 C 
ATOM     37  C13 UNL     1      70.440  66.350 107.578  0.00  0.00    +0.000 C 
ATOM     38  C14 UNL     1      71.101  64.942 107.464  0.00  0.00    +0.000 C 
ATOM     39  C15 UNL     1      70.623  64.132 106.246  0.00  0.00    +0.000 C 
ATOM     40  O6  UNL     1      72.516  64.983 107.570  0.00  0.00    +0.000 OA
BRANCH  35  41
ATOM     41  O4  UNL     1      70.567  68.468 106.320  0.00  0.00    +0.000 OA
ATOM     42  C12 UNL     1      70.179  69.603 107.073  0.00  0.00    +0.000 C 
ENDBRANCH  35  41
BRANCH  37  43
ATOM     43  O5  UNL     1      70.088  66.587 108.923  0.00  0.00    +0.000 OA
ATOM     44  H22 UNL     1      69.166  66.961 108.930  0.00  0.00    +0.000 HD
ENDBRANCH  37  43
ENDBRANCH  32  33
ENDBRANCH   7  32
BRANCH  10  45
ATOM     45  O7  UNL     1      77.545  66.042 105.479  0.00  0.00    +0.000 OA
BRANCH  45  46
ATOM     46  C19 UNL     1      77.188  67.340 105.928  0.00  0.00    +0.000 C 
ATOM     47  O8  UNL     1      77.033  68.158 104.781  0.00  0.00    +0.000 OA
ATOM     48  C20 UNL     1      76.505  69.444 105.096  0.00  0.00    +0.000 C 
ATOM     49  C21 UNL     1      74.976  69.443 105.000  0.00  0.00    +0.000 C 
ATOM     50  C22 UNL     1      76.994  69.996 106.459  0.00  0.00    +0.000 C 
ATOM     51  C23 UNL     1      78.415  69.467 106.767  0.00  0.00    +0.000 C 
ATOM     52  C24 UNL     1      78.322  67.901 106.826  0.00  0.00    +0.000 C 
BRANCH  51  53
ATOM     53  N1  UNL     1      79.442  69.932 105.777  0.00  0.00    +0.000 NA
ATOM     54  C25 UNL     1      80.446  68.872 105.516  0.00  0.00    +0.000 C 
ATOM     55  C26 UNL     1      80.157  71.135 106.257  0.00  0.00    +0.000 C 
ENDBRANCH  51  53
BRANCH  52  56
ATOM     56  O9  UNL     1      78.091  67.493 108.146  0.00  0.00    +0.000 OA
ATOM     57  H41 UNL     1      77.210  67.038 108.150  0.00  0.00    +0.000 HD
ENDBRANCH  52  56
ENDBRANCH  45  46
ENDBRANCH  10  45
TORSDOF 12
ENDMDL
MODEL 18
REMARK VINA RESULT:      -6.1      3.135      9.243
REMARK  Name = ./S1835.pdb
REMARK  26 active torsions:
REMARK  status: ('A' for Active; 'I' for Inactive)
REMARK    1  A    between atoms: C1_1  and  C2_2
REMARK    2  A    between atoms: C2_2  and  C3_3
REMARK    3  A    between atoms: C5_7  and  C6_8
REMARK    4  A    between atoms: C7_9  and  O3_10
REMARK    5  A    between atoms: O3_10  and  C8_11
REMARK    6  A    between atoms: C10_13  and  C11_14
REMARK    7  A    between atoms: C10_13  and  O4_15
REMARK    8  A    between atoms: O4_15  and  C12_16
REMARK    9  A    between atoms: C13_17  and  O5_18
REMARK   10  A    between atoms: C14_19  and  C15_20
REMARK   11  A    between atoms: C16_22  and  C17_23
REMARK   12  A    between atoms: C18_24  and  O7_25
REMARK   13  A    between atoms: O7_25  and  C19_26
REMARK   14  A    between atoms: C20_28  and  C21_29
REMARK   15  A    between atoms: C23_31  and  N1_34
REMARK   16  A    between atoms: C24_32  and  O9_33
REMARK   17  A    between atoms: N1_34  and  C25_35
REMARK   18  A    between atoms: N1_34  and  C26_36
REMARK   19  A    between atoms: C27_37  and  C28_38
REMARK   20  A    between atoms: C27_37  and  O10_39
REMARK   21  A    between atoms: C30_41  and  C31_42
REMARK   22  A    between atoms: N2_44  and  C33_45
REMARK   23  A    between atoms: C34_46  and  C35_47
REMARK   24  A    between atoms: C36_48  and  O11_49
REMARK   25  A    between atoms: C37_50  and  C38_51
REMARK   26  A    between atoms: C37_50  and  O12_52
REMARK                            x       y       z     vdW  Elec       q    Type
REMARK                         _______ _______ _______ _____ _____    ______ ____
ROOT
ATOM      1  C3  UNL     1      73.920  58.857 105.428  0.00  0.00    +0.000 C 
ATOM      2  O1  UNL     1      74.640  59.615 106.399  0.00  0.00    +0.000 OA
ATOM      3  C4  UNL     1      74.299  60.909 106.813  0.00  0.00    +0.000 C 
ATOM      4  O2  UNL     1      73.201  61.415 106.471  0.00  0.00    +0.000 OA
ATOM      5  C5  UNL     1      75.250  61.613 107.755  0.00  0.00    +0.000 C 
ATOM      6  C6  UNL     1      75.186  60.897 109.113  0.00  0.00    +0.000 C 
ATOM      7  C7  UNL     1      75.101  63.182 107.918  0.00  0.00    +0.000 C 
ATOM      8  C16 UNL     1      76.148  64.099 107.157  0.00  0.00    +0.000 C 
ATOM      9  C17 UNL     1      77.591  63.571 107.175  0.00  0.00    +0.000 C 
ATOM     10  C18 UNL     1      75.734  64.851 105.831  0.00  0.00    +0.000 C 
ATOM     11  C27 UNL     1      75.969  64.177 104.418  0.00  0.00    +0.000 C 
ATOM     12  C28 UNL     1      77.477  64.086 104.044  0.00  0.00    +0.000 C 
ATOM     13  C29 UNL     1      75.302  62.774 104.367  0.00  0.00    +0.000 C 
ATOM     14  C30 UNL     1      75.069  62.056 102.995  0.00  0.00    +0.000 C 
ATOM     15  C31 UNL     1      74.339  62.908 101.947  0.00  0.00    +0.000 C 
ATOM     16  C32 UNL     1      76.319  61.387 102.374  0.00  0.00    +0.000 C 
ATOM     17  N2  UNL     1      76.868  60.312 103.240  0.00  0.00    +0.000 NA
ATOM     18  C33 UNL     1      78.332  60.217 103.080  0.00  0.00    +0.000 C 
ATOM     19  C34 UNL     1      76.164  59.003 103.057  0.00  0.00    +0.000 C 
ATOM     20  C35 UNL     1      76.665  58.214 101.824  0.00  0.00    +0.000 C 
ATOM     21  C36 UNL     1      76.217  58.104 104.359  0.00  0.00    +0.000 C 
ATOM     22  C37 UNL     1      74.816  57.655 104.940  0.00  0.00    +0.000 C 
ATOM     23  C38 UNL     1      74.062  56.843 103.859  0.00  0.00    +0.000 C 
ENDROOT
BRANCH   1  25
ATOM     24  C1  UNL     1      72.673  58.111 107.544  0.00  0.00    +0.000 C 
ATOM     25  C2  UNL     1      72.566  58.400 106.045  0.00  0.00    +0.000 C 
ENDBRANCH   1  25
BRANCH  11  26
ATOM     26  O10 UNL     1      75.317  65.000 103.479  0.00  0.00    +0.000 OA
ATOM     27  H51 UNL     1      75.308  65.936 103.814  0.00  0.00    +0.000 HD
ENDBRANCH  11  26
BRANCH  21  28
ATOM     28  O11 UNL     1      77.051  58.633 105.365  0.00  0.00    +0.000 OA
ATOM     29  H68 UNL     1      76.822  59.585 105.503  0.00  0.00    +0.000 HD
ENDBRANCH  21  28
BRANCH  22  30
ATOM     30  O12 UNL     1      75.043  56.771 106.016  0.00  0.00    +0.000 OA
ATOM     31  H72 UNL     1      74.355  56.058 105.989  0.00  0.00    +0.000 HD
ENDBRANCH  22  30
BRANCH   7  32
ATOM     32  O3  UNL     1      73.767  63.636 107.697  0.00  0.00    +0.000 OA
BRANCH  32  33
ATOM     33  C8  UNL     1      73.124  64.099 108.882  0.00  0.00    +0.000 C 
ATOM     34  C9  UNL     1      73.667  65.497 109.258  0.00  0.00    +0.000 C 
ATOM     35  C10 UNL     1      72.673  66.311 110.106  0.00  0.00    +0.000 C 
ATOM     36  C11 UNL     1      72.525  65.608 111.492  0.00  0.00    +0.000 C 
ATOM     37  C13 UNL     1      71.313  66.403 109.328  0.00  0.00    +0.000 C 
ATOM     38  C14 UNL     1      71.089  65.235 108.318  0.00  0.00    +0.000 C 
ATOM     39  C15 UNL     1      71.412  65.609 106.861  0.00  0.00    +0.000 C 
ATOM     40  O6  UNL     1      71.712  64.026 108.721  0.00  0.00    +0.000 OA
BRANCH  35  41
ATOM     41  O4  UNL     1      73.267  67.604 110.235  0.00  0.00    +0.000 OA
ATOM     42  C12 UNL     1      74.385  67.650 111.103  0.00  0.00    +0.000 C 
ENDBRANCH  35  41
BRANCH  37  43
ATOM     43  O5  UNL     1      70.237  66.438 110.238  0.00  0.00    +0.000 OA
ATOM     44  H22 UNL     1      70.486  65.875 111.019  0.00  0.00    +0.000 HD
ENDBRANCH  37  43
ENDBRANCH  32  33
ENDBRANCH   7  32
BRANCH  10  45
ATOM     45  O7  UNL     1      76.431  66.095 105.825  0.00  0.00    +0.000 OA
BRANCH  45  46
ATOM     46  C19 UNL     1      75.848  67.104 106.634  0.00  0.00    +0.000 C 
ATOM     47  O8  UNL     1      75.349  68.108 105.765  0.00  0.00    +0.000 OA
ATOM     48  C20 UNL     1      74.585  69.094 106.455  0.00  0.00    +0.000 C 
ATOM     49  C21 UNL     1      73.100  68.717 106.473  0.00  0.00    +0.000 C 
ATOM     50  C22 UNL     1      75.115  69.405 107.877  0.00  0.00    +0.000 C 
ATOM     51  C23 UNL     1      76.649  69.206 107.926  0.00  0.00    +0.000 C 
ATOM     52  C24 UNL     1      76.933  67.705 107.565  0.00  0.00    +0.000 C 
BRANCH  51  53
ATOM     53  N1  UNL     1      77.392  70.150 107.028  0.00  0.00    +0.000 NA
ATOM     54  C25 UNL     1      78.828  69.788 106.949  0.00  0.00    +0.000 C 
ATOM     55  C26 UNL     1      77.296  71.547 107.506  0.00  0.00    +0.000 C 
ENDBRANCH  51  53
BRANCH  52  56
ATOM     56  O9  UNL     1      76.987  66.942 108.738  0.00  0.00    +0.000 OA
ATOM     57  H41 UNL     1      77.852  66.458 108.721  0.00  0.00    +0.000 HD
ENDBRANCH  52  56
ENDBRANCH  45  46
ENDBRANCH  10  45
TORSDOF 12
ENDMDL
MODEL 19
REMARK VINA RESULT:      -6.0      3.009      8.558
REMARK  Name = ./S1835.pdb
REMARK  26 active torsions:
REMARK  status: ('A' for Active; 'I' for Inactive)
REMARK    1  A    between atoms: C1_1  and  C2_2
REMARK    2  A    between atoms: C2_2  and  C3_3
REMARK    3  A    between atoms: C5_7  and  C6_8
REMARK    4  A    between atoms: C7_9  and  O3_10
REMARK    5  A    between atoms: O3_10  and  C8_11
REMARK    6  A    between atoms: C10_13  and  C11_14
REMARK    7  A    between atoms: C10_13  and  O4_15
REMARK    8  A    between atoms: O4_15  and  C12_16
REMARK    9  A    between atoms: C13_17  and  O5_18
REMARK   10  A    between atoms: C14_19  and  C15_20
REMARK   11  A    between atoms: C16_22  and  C17_23
REMARK   12  A    between atoms: C18_24  and  O7_25
REMARK   13  A    between atoms: O7_25  and  C19_26
REMARK   14  A    between atoms: C20_28  and  C21_29
REMARK   15  A    between atoms: C23_31  and  N1_34
REMARK   16  A    between atoms: C24_32  and  O9_33
REMARK   17  A    between atoms: N1_34  and  C25_35
REMARK   18  A    between atoms: N1_34  and  C26_36
REMARK   19  A    between atoms: C27_37  and  C28_38
REMARK   20  A    between atoms: C27_37  and  O10_39
REMARK   21  A    between atoms: C30_41  and  C31_42
REMARK   22  A    between atoms: N2_44  and  C33_45
REMARK   23  A    between atoms: C34_46  and  C35_47
REMARK   24  A    between atoms: C36_48  and  O11_49
REMARK   25  A    between atoms: C37_50  and  C38_51
REMARK   26  A    between atoms: C37_50  and  O12_52
REMARK                            x       y       z     vdW  Elec       q    Type
REMARK                         _______ _______ _______ _____ _____    ______ ____
ROOT
ATOM      1  C3  UNL     1      73.347  59.283 105.995  0.00  0.00    +0.000 C 
ATOM      2  O1  UNL     1      74.307  60.154 106.591  0.00  0.00    +0.000 OA
ATOM      3  C4  UNL     1      74.131  61.532 106.767  0.00  0.00    +0.000 C 
ATOM      4  O2  UNL     1      73.008  62.058 106.567  0.00  0.00    +0.000 OA
ATOM      5  C5  UNL     1      75.306  62.323 107.297  0.00  0.00    +0.000 C 
ATOM      6  C6  UNL     1      75.528  61.914 108.762  0.00  0.00    +0.000 C 
ATOM      7  C7  UNL     1      75.271  63.898 107.132  0.00  0.00    +0.000 C 
ATOM      8  C16 UNL     1      76.153  64.531 105.976  0.00  0.00    +0.000 C 
ATOM      9  C17 UNL     1      77.536  63.883 105.798  0.00  0.00    +0.000 C 
ATOM     10  C18 UNL     1      75.477  65.027 104.637  0.00  0.00    +0.000 C 
ATOM     11  C27 UNL     1      75.346  64.053 103.395  0.00  0.00    +0.000 C 
ATOM     12  C28 UNL     1      76.719  63.743 102.733  0.00  0.00    +0.000 C 
ATOM     13  C29 UNL     1      74.622  62.741 103.806  0.00  0.00    +0.000 C 
ATOM     14  C30 UNL     1      74.043  61.779 102.715  0.00  0.00    +0.000 C 
ATOM     15  C31 UNL     1      73.129  62.460 101.687  0.00  0.00    +0.000 C 
ATOM     16  C32 UNL     1      75.083  60.879 102.005  0.00  0.00    +0.000 C 
ATOM     17  N2  UNL     1      75.768  59.961 102.950  0.00  0.00    +0.000 NA
ATOM     18  C33 UNL     1      77.149  59.694 102.502  0.00  0.00    +0.000 C 
ATOM     19  C34 UNL     1      74.983  58.715 103.223  0.00  0.00    +0.000 C 
ATOM     20  C35 UNL     1      75.146  57.643 102.120  0.00  0.00    +0.000 C 
ATOM     21  C36 UNL     1      75.295  58.107 104.650  0.00  0.00    +0.000 C 
ATOM     22  C37 UNL     1      74.048  57.925 105.607  0.00  0.00    +0.000 C 
ATOM     23  C38 UNL     1      73.028  56.981 104.926  0.00  0.00    +0.000 C 
ENDROOT
BRANCH   1  25
ATOM     24  C1  UNL     1      70.808  59.440 106.335  0.00  0.00    +0.000 C 
ATOM     25  C2  UNL     1      72.154  59.095 106.977  0.00  0.00    +0.000 C 
ENDBRANCH   1  25
BRANCH  11  26
ATOM     26  O10 UNL     1      74.532  64.722 102.459  0.00  0.00    +0.000 OA
ATOM     27  H51 UNL     1      73.936  65.357 102.937  0.00  0.00    +0.000 HD
ENDBRANCH  11  26
BRANCH  21  28
ATOM     28  O11 UNL     1      76.364  58.751 105.306  0.00  0.00    +0.000 OA
ATOM     29  H68 UNL     1      76.284  59.726 105.166  0.00  0.00    +0.000 HD
ENDBRANCH  21  28
BRANCH  22  30
ATOM     30  O12 UNL     1      74.479  57.267 106.779  0.00  0.00    +0.000 OA
ATOM     31  H72 UNL     1      74.021  57.676 107.556  0.00  0.00    +0.000 HD
ENDBRANCH  22  30
BRANCH   7  32
ATOM     32  O3  UNL     1      73.945  64.421 107.109  0.00  0.00    +0.000 OA
BRANCH  32  33
ATOM     33  C8  UNL     1      73.576  65.077 108.320  0.00  0.00    +0.000 C 
ATOM     34  C9  UNL     1      73.661  66.609 108.131  0.00  0.00    +0.000 C 
ATOM     35  C10 UNL     1      72.751  67.379 109.106  0.00  0.00    +0.000 C 
ATOM     36  C11 UNL     1      73.303  67.172 110.552  0.00  0.00    +0.000 C 
ATOM     37  C13 UNL     1      71.282  66.851 108.940  0.00  0.00    +0.000 C 
ATOM     38  C14 UNL     1      71.199  65.395 108.386  0.00  0.00    +0.000 C 
ATOM     39  C15 UNL     1      70.900  65.323 106.879  0.00  0.00    +0.000 C 
ATOM     40  O6  UNL     1      72.311  64.595 108.760  0.00  0.00    +0.000 OA
BRANCH  35  41
ATOM     41  O4  UNL     1      72.844  68.745 108.700  0.00  0.00    +0.000 OA
ATOM     42  C12 UNL     1      74.115  69.333 108.912  0.00  0.00    +0.000 C 
ENDBRANCH  35  41
BRANCH  37  43
ATOM     43  O5  UNL     1      70.603  66.915 110.173  0.00  0.00    +0.000 OA
ATOM     44  H22 UNL     1      69.628  66.895 109.981  0.00  0.00    +0.000 HD
ENDBRANCH  37  43
ENDBRANCH  32  33
ENDBRANCH   7  32
BRANCH  10  45
ATOM     45  O7  UNL     1      76.210  66.170 104.200  0.00  0.00    +0.000 OA
BRANCH  45  46
ATOM     46  C19 UNL     1      75.543  67.408 104.387  0.00  0.00    +0.000 C 
ATOM     47  O8  UNL     1      74.286  67.314 103.737  0.00  0.00    +0.000 OA
ATOM     48  C20 UNL     1      73.451  68.438 104.004  0.00  0.00    +0.000 C 
ATOM     49  C21 UNL     1      72.563  68.180 105.225  0.00  0.00    +0.000 C 
ATOM     50  C22 UNL     1      74.230  69.771 104.133  0.00  0.00    +0.000 C 
ATOM     51  C23 UNL     1      75.495  69.735 103.243  0.00  0.00    +0.000 C 
ATOM     52  C24 UNL     1      76.383  68.544 103.749  0.00  0.00    +0.000 C 
BRANCH  51  53
ATOM     53  N1  UNL     1      75.180  69.619 101.781  0.00  0.00    +0.000 NA
ATOM     54  C25 UNL     1      76.398  69.297 100.998  0.00  0.00    +0.000 C 
ATOM     55  C26 UNL     1      74.608  70.874 101.244  0.00  0.00    +0.000 C 
ENDBRANCH  51  53
BRANCH  52  56
ATOM     56  O9  UNL     1      77.298  69.012 104.700  0.00  0.00    +0.000 OA
ATOM     57  H41 UNL     1      76.882  69.805 105.127  0.00  0.00    +0.000 HD
ENDBRANCH  52  56
ENDBRANCH  45  46
ENDBRANCH  10  45
TORSDOF 12
ENDMDL
MODEL 20
REMARK VINA RESULT:      -6.0      3.664      6.230
REMARK  Name = ./S1835.pdb
REMARK  26 active torsions:
REMARK  status: ('A' for Active; 'I' for Inactive)
REMARK    1  A    between atoms: C1_1  and  C2_2
REMARK    2  A    between atoms: C2_2  and  C3_3
REMARK    3  A    between atoms: C5_7  and  C6_8
REMARK    4  A    between atoms: C7_9  and  O3_10
REMARK    5  A    between atoms: O3_10  and  C8_11
REMARK    6  A    between atoms: C10_13  and  C11_14
REMARK    7  A    between atoms: C10_13  and  O4_15
REMARK    8  A    between atoms: O4_15  and  C12_16
REMARK    9  A    between atoms: C13_17  and  O5_18
REMARK   10  A    between atoms: C14_19  and  C15_20
REMARK   11  A    between atoms: C16_22  and  C17_23
REMARK   12  A    between atoms: C18_24  and  O7_25
REMARK   13  A    between atoms: O7_25  and  C19_26
REMARK   14  A    between atoms: C20_28  and  C21_29
REMARK   15  A    between atoms: C23_31  and  N1_34
REMARK   16  A    between atoms: C24_32  and  O9_33
REMARK   17  A    between atoms: N1_34  and  C25_35
REMARK   18  A    between atoms: N1_34  and  C26_36
REMARK   19  A    between atoms: C27_37  and  C28_38
REMARK   20  A    between atoms: C27_37  and  O10_39
REMARK   21  A    between atoms: C30_41  and  C31_42
REMARK   22  A    between atoms: N2_44  and  C33_45
REMARK   23  A    between atoms: C34_46  and  C35_47
REMARK   24  A    between atoms: C36_48  and  O11_49
REMARK   25  A    between atoms: C37_50  and  C38_51
REMARK   26  A    between atoms: C37_50  and  O12_52
REMARK                            x       y       z     vdW  Elec       q    Type
REMARK                         _______ _______ _______ _____ _____    ______ ____
ROOT
ATOM      1  C3  UNL     1      77.357  69.365 106.530  0.00  0.00    +0.000 C 
ATOM      2  O1  UNL     1      77.749  68.060 106.952  0.00  0.00    +0.000 OA
ATOM      3  C4  UNL     1      77.374  66.870 106.317  0.00  0.00    +0.000 C 
ATOM      4  O2  UNL     1      76.802  66.901 105.199  0.00  0.00    +0.000 OA
ATOM      5  C5  UNL     1      77.774  65.570 106.978  0.00  0.00    +0.000 C 
ATOM      6  C6  UNL     1      79.301  65.435 106.870  0.00  0.00    +0.000 C 
ATOM      7  C7  UNL     1      77.039  64.247 106.511  0.00  0.00    +0.000 C 
ATOM      8  C16 UNL     1      75.905  63.667 107.456  0.00  0.00    +0.000 C 
ATOM      9  C17 UNL     1      76.222  63.747 108.958  0.00  0.00    +0.000 C 
ATOM     10  C18 UNL     1      74.381  63.868 107.089  0.00  0.00    +0.000 C 
ATOM     11  C27 UNL     1      73.581  65.119 107.639  0.00  0.00    +0.000 C 
ATOM     12  C28 UNL     1      73.330  65.039 109.173  0.00  0.00    +0.000 C 
ATOM     13  C29 UNL     1      74.311  66.439 107.266  0.00  0.00    +0.000 C 
ATOM     14  C30 UNL     1      73.566  67.813 107.364  0.00  0.00    +0.000 C 
ATOM     15  C31 UNL     1      72.216  67.857 106.633  0.00  0.00    +0.000 C 
ATOM     16  C32 UNL     1      73.429  68.394 108.791  0.00  0.00    +0.000 C 
ATOM     17  N2  UNL     1      74.749  68.671 109.413  0.00  0.00    +0.000 NA
ATOM     18  C33 UNL     1      74.679  68.490 110.876  0.00  0.00    +0.000 C 
ATOM     19  C34 UNL     1      75.318  69.994 109.005  0.00  0.00    +0.000 C 
ATOM     20  C35 UNL     1      74.733  71.178 109.810  0.00  0.00    +0.000 C 
ATOM     21  C36 UNL     1      76.900  70.010 109.052  0.00  0.00    +0.000 C 
ATOM     22  C37 UNL     1      77.623  70.391 107.697  0.00  0.00    +0.000 C 
ATOM     23  C38 UNL     1      77.169  71.806 107.267  0.00  0.00    +0.000 C 
ENDROOT
BRANCH   1  25
ATOM     24  C1  UNL     1      77.164  70.112 104.082  0.00  0.00    +0.000 C 
ATOM     25  C2  UNL     1      78.114  69.722 105.217  0.00  0.00    +0.000 C 
ENDBRANCH   1  25
BRANCH  11  26
ATOM     26  O10 UNL     1      72.338  65.109 106.975  0.00  0.00    +0.000 OA
ATOM     27  H51 UNL     1      72.068  66.044 106.772  0.00  0.00    +0.000 HD
ENDBRANCH  11  26
BRANCH  21  28
ATOM     28  O11 UNL     1      77.450  68.845 109.625  0.00  0.00    +0.000 OA
ATOM     29  H68 UNL     1      76.760  68.404 110.178  0.00  0.00    +0.000 HD
ENDBRANCH  21  28
BRANCH  22  30
ATOM     30  O12 UNL     1      79.010  70.475 107.941  0.00  0.00    +0.000 OA
ATOM     31  H72 UNL     1      79.148  70.788 108.871  0.00  0.00    +0.000 HD
ENDBRANCH  22  30
BRANCH   7  32
ATOM     32  O3  UNL     1      76.594  64.311 105.157  0.00  0.00    +0.000 OA
BRANCH  32  33
ATOM     33  C8  UNL     1      77.337  63.470 104.278  0.00  0.00    +0.000 C 
ATOM     34  C9  UNL     1      77.276  62.009 104.777  0.00  0.00    +0.000 C 
ATOM     35  C10 UNL     1      77.505  60.986 103.649  0.00  0.00    +0.000 C 
ATOM     36  C11 UNL     1      78.978  61.127 103.155  0.00  0.00    +0.000 C 
ATOM     37  C13 UNL     1      76.458  61.257 102.511  0.00  0.00    +0.000 C 
ATOM     38  C14 UNL     1      75.936  62.728 102.478  0.00  0.00    +0.000 C 
ATOM     39  C15 UNL     1      74.562  62.910 103.146  0.00  0.00    +0.000 C 
ATOM     40  O6  UNL     1      76.896  63.667 102.940  0.00  0.00    +0.000 OA
BRANCH  35  41
ATOM     41  O4  UNL     1      77.273  59.712 104.251  0.00  0.00    +0.000 OA
ATOM     42  C12 UNL     1      78.398  58.852 104.251  0.00  0.00    +0.000 C 
ENDBRANCH  35  41
BRANCH  37  43
ATOM     43  O5  UNL     1      77.015  60.937 101.256  0.00  0.00    +0.000 OA
ATOM     44  H22 UNL     1      76.476  60.197 100.869  0.00  0.00    +0.000 HD
ENDBRANCH  37  43
ENDBRANCH  32  33
ENDBRANCH   7  32
BRANCH  10  45
ATOM     45  O7  UNL     1      73.691  62.700 107.530  0.00  0.00    +0.000 OA
BRANCH  45  46
ATOM     46  C19 UNL     1      72.955  62.031 106.518  0.00  0.00    +0.000 C 
ATOM     47  O8  UNL     1      71.586  62.091 106.880  0.00  0.00    +0.000 OA
ATOM     48  C20 UNL     1      70.729  61.603 105.851  0.00  0.00    +0.000 C 
ATOM     49  C21 UNL     1      70.282  62.741 104.928  0.00  0.00    +0.000 C 
ATOM     50  C22 UNL     1      71.333  60.420 105.053  0.00  0.00    +0.000 C 
ATOM     51  C23 UNL     1      72.272  59.591 105.961  0.00  0.00    +0.000 C 
ATOM     52  C24 UNL     1      73.416  60.552 106.443  0.00  0.00    +0.000 C 
BRANCH  51  53
ATOM     53  N1  UNL     1      71.557  58.947 107.112  0.00  0.00    +0.000 NA
ATOM     54  C25 UNL     1      72.439  58.853 108.300  0.00  0.00    +0.000 C 
ATOM     55  C26 UNL     1      71.096  57.583 106.773  0.00  0.00    +0.000 C 
ENDBRANCH  51  53
BRANCH  52  56
ATOM     56  O9  UNL     1      74.503  60.466 105.564  0.00  0.00    +0.000 OA
ATOM     57  H41 UNL     1      75.316  60.391 106.126  0.00  0.00    +0.000 HD
ENDBRANCH  52  56
ENDBRANCH  45  46
ENDBRANCH  10  45
TORSDOF 12
ENDMDL
