MODEL 1
REMARK VINA RESULT:      -7.2      0.000      0.000
REMARK  Name = ./S1992.pdb
REMARK  11 active torsions:
REMARK  status: ('A' for Active; 'I' for Inactive)
REMARK    1  A    between atoms: C1_1  and  C2_2
REMARK    2  A    between atoms: C2_2  and  C3_3
REMARK    3  A    between atoms: C3_3  and  O2_5
REMARK    4  A    between atoms: O2_5  and  C4_6
REMARK    5  A    between atoms: C4_6  and  C24_30
REMARK    6  A    between atoms: C5_7  and  C6_8
REMARK    7  A    between atoms: C17_21  and  C18_22
REMARK    8  A    between atoms: C20_25  and  O4_26
REMARK    9  A    between atoms: C22_28  and  C23_29
REMARK   10  A    between atoms: C24_30  and  S1_32
REMARK   11  A    between atoms: S1_32  and  C25_33
REMARK                            x       y       z     vdW  Elec       q    Type
REMARK                         _______ _______ _______ _____ _____    ______ ____
ROOT
ATOM      1  C4  UNL     1      62.573  57.869 103.539  0.00  0.00    +0.000 C 
ATOM      2  C5  UNL     1      62.047  59.332 103.571  0.00  0.00    +0.000 C 
ATOM      3  C6  UNL     1      62.674  60.269 102.521  0.00  0.00    +0.000 C 
ATOM      4  C7  UNL     1      62.306  59.806 104.987  0.00  0.00    +0.000 C 
ATOM      5  C8  UNL     1      61.866  58.627 105.852  0.00  0.00    +0.000 C 
ATOM      6  C9  UNL     1      62.370  58.641 107.344  0.00  0.00    +0.000 C 
ATOM      7  C10 UNL     1      62.115  60.028 107.984  0.00  0.00    +0.000 C 
ATOM      8  C11 UNL     1      62.622  60.125 109.414  0.00  0.00    +0.000 C 
ATOM      9  F1  UNL     1      61.817  59.362 110.246  0.00  0.00    +0.000 F 
ATOM     10  C12 UNL     1      64.059  59.684 109.552  0.00  0.00    +0.000 C 
ATOM     11  C13 UNL     1      64.670  59.949 110.721  0.00  0.00    +0.000 C 
ATOM     12  C14 UNL     1      66.022  59.468 110.987  0.00  0.00    +0.000 C 
ATOM     13  O3  UNL     1      66.637  59.829 112.022  0.00  0.00    +0.000 OA
ATOM     14  C15 UNL     1      66.643  58.540 110.050  0.00  0.00    +0.000 C 
ATOM     15  C16 UNL     1      66.041  58.242 108.899  0.00  0.00    +0.000 C 
ATOM     16  C17 UNL     1      64.806  59.001 108.380  0.00  0.00    +0.000 C 
ATOM     17  C18 UNL     1      65.374  60.088 107.439  0.00  0.00    +0.000 C 
ATOM     18  C19 UNL     1      63.794  58.006 107.658  0.00  0.00    +0.000 C 
ATOM     19  F2  UNL     1      63.561  56.989 108.585  0.00  0.00    +0.000 F 
ATOM     20  C20 UNL     1      64.347  57.308 106.371  0.00  0.00    +0.000 C 
ATOM     21  C21 UNL     1      63.236  56.471 105.700  0.00  0.00    +0.000 C 
ATOM     22  C22 UNL     1      62.156  57.337 105.001  0.00  0.00    +0.000 C 
ATOM     23  C23 UNL     1      60.855  56.482 104.958  0.00  0.00    +0.000 C 
ENDROOT
BRANCH  20  24
ATOM     24  O4  UNL     1      65.445  56.464 106.621  0.00  0.00    +0.000 OA
ATOM     25  H24 UNL     1      65.442  56.225 107.585  0.00  0.00    +0.000 HD
ENDBRANCH  20  24
BRANCH   1  26
ATOM     26  C24 UNL     1      61.892  57.168 102.333  0.00  0.00    +0.000 C 
ATOM     27  O5  UNL     1      62.283  56.064 101.983  0.00  0.00    +0.000 OA
BRANCH  26  28
ATOM     28  S1  UNL     1      60.419  57.781 101.495  0.00  0.00    +0.000 S 
BRANCH  28  29
ATOM     29  C25 UNL     1      61.238  57.957  99.872  0.00  0.00    +0.000 C 
ATOM     30  F3  UNL     1      61.732  59.234  99.708  0.00  0.00    +0.000 F 
ENDBRANCH  28  29
ENDBRANCH  26  28
ENDBRANCH   1  26
BRANCH   1  31
ATOM     31  O2  UNL     1      64.006  58.009 103.368  0.00  0.00    +0.000 OA
BRANCH  31  32
ATOM     32  C3  UNL     1      64.945  57.292 102.602  0.00  0.00    +0.000 C 
ATOM     33  O1  UNL     1      65.655  56.381 103.099  0.00  0.00    +0.000 OA
BRANCH  32  35
ATOM     34  C1  UNL     1      65.666  59.051 100.951  0.00  0.00    +0.000 C 
ATOM     35  C2  UNL     1      65.138  57.630 101.153  0.00  0.00    +0.000 C 
ENDBRANCH  32  35
ENDBRANCH  31  32
ENDBRANCH   1  31
TORSDOF 7
ENDMDL
MODEL 2
REMARK VINA RESULT:      -6.4     10.077     12.515
REMARK  Name = ./S1992.pdb
REMARK  11 active torsions:
REMARK  status: ('A' for Active; 'I' for Inactive)
REMARK    1  A    between atoms: C1_1  and  C2_2
REMARK    2  A    between atoms: C2_2  and  C3_3
REMARK    3  A    between atoms: C3_3  and  O2_5
REMARK    4  A    between atoms: O2_5  and  C4_6
REMARK    5  A    between atoms: C4_6  and  C24_30
REMARK    6  A    between atoms: C5_7  and  C6_8
REMARK    7  A    between atoms: C17_21  and  C18_22
REMARK    8  A    between atoms: C20_25  and  O4_26
REMARK    9  A    between atoms: C22_28  and  C23_29
REMARK   10  A    between atoms: C24_30  and  S1_32
REMARK   11  A    between atoms: S1_32  and  C25_33
REMARK                            x       y       z     vdW  Elec       q    Type
REMARK                         _______ _______ _______ _____ _____    ______ ____
ROOT
ATOM      1  C4  UNL     1      72.718  63.656 106.967  0.00  0.00    +0.000 C 
ATOM      2  C5  UNL     1      74.196  63.899 106.550  0.00  0.00    +0.000 C 
ATOM      3  C6  UNL     1      75.024  62.621 106.322  0.00  0.00    +0.000 C 
ATOM      4  C7  UNL     1      74.772  64.764 107.654  0.00  0.00    +0.000 C 
ATOM      5  C8  UNL     1      73.680  65.802 107.911  0.00  0.00    +0.000 C 
ATOM      6  C9  UNL     1      73.795  66.602 109.262  0.00  0.00    +0.000 C 
ATOM      7  C10 UNL     1      75.236  67.138 109.448  0.00  0.00    +0.000 C 
ATOM      8  C11 UNL     1      75.429  67.884 110.759  0.00  0.00    +0.000 C 
ATOM      9  F1  UNL     1      74.762  69.098 110.706  0.00  0.00    +0.000 F 
ATOM     10  C12 UNL     1      74.951  67.092 111.953  0.00  0.00    +0.000 C 
ATOM     11  C13 UNL     1      75.287  67.558 113.169  0.00  0.00    +0.000 C 
ATOM     12  C14 UNL     1      74.783  66.922 114.382  0.00  0.00    +0.000 C 
ATOM     13  O3  UNL     1      75.203  67.277 115.512  0.00  0.00    +0.000 OA
ATOM     14  C15 UNL     1      73.762  65.887 114.270  0.00  0.00    +0.000 C 
ATOM     15  C16 UNL     1      73.395  65.431 113.073  0.00  0.00    +0.000 C 
ATOM     16  C17 UNL     1      74.153  65.777 111.778  0.00  0.00    +0.000 C 
ATOM     17  C18 UNL     1      75.141  64.607 111.571  0.00  0.00    +0.000 C 
ATOM     18  C19 UNL     1      73.138  65.969 110.565  0.00  0.00    +0.000 C 
ATOM     19  F2  UNL     1      72.206  66.905 111.016  0.00  0.00    +0.000 F 
ATOM     20  C20 UNL     1      72.322  64.694 110.168  0.00  0.00    +0.000 C 
ATOM     21  C21 UNL     1      71.474  64.976 108.908  0.00  0.00    +0.000 C 
ATOM     22  C22 UNL     1      72.318  65.075 107.612  0.00  0.00    +0.000 C 
ATOM     23  C23 UNL     1      71.508  65.957 106.617  0.00  0.00    +0.000 C 
ENDROOT
BRANCH  20  24
ATOM     24  O4  UNL     1      71.464  64.241 111.186  0.00  0.00    +0.000 OA
ATOM     25  H24 UNL     1      70.690  63.785 110.764  0.00  0.00    +0.000 HD
ENDBRANCH  20  24
BRANCH   1  26
ATOM     26  C24 UNL     1      71.947  63.243 105.684  0.00  0.00    +0.000 C 
ATOM     27  O5  UNL     1      72.560  63.091 104.639  0.00  0.00    +0.000 OA
BRANCH  26  28
ATOM     28  S1  UNL     1      70.204  62.783 105.646  0.00  0.00    +0.000 S 
BRANCH  28  29
ATOM     29  C25 UNL     1      70.252  62.176 103.923  0.00  0.00    +0.000 C 
ATOM     30  F3  UNL     1      69.445  62.943 103.111  0.00  0.00    +0.000 F 
ENDBRANCH  28  29
ENDBRANCH  26  28
ENDBRANCH   1  26
BRANCH   1  31
ATOM     31  O2  UNL     1      72.795  62.585 107.942  0.00  0.00    +0.000 OA
BRANCH  31  32
ATOM     32  C3  UNL     1      72.943  61.191 107.812  0.00  0.00    +0.000 C 
ATOM     33  O1  UNL     1      72.285  60.526 106.972  0.00  0.00    +0.000 OA
BRANCH  32  35
ATOM     34  C1  UNL     1      74.651  61.393 109.650  0.00  0.00    +0.000 C 
ATOM     35  C2  UNL     1      73.889  60.455 108.713  0.00  0.00    +0.000 C 
ENDBRANCH  32  35
ENDBRANCH  31  32
ENDBRANCH   1  31
TORSDOF 7
ENDMDL
MODEL 3
REMARK VINA RESULT:      -6.4      9.406     11.152
REMARK  Name = ./S1992.pdb
REMARK  11 active torsions:
REMARK  status: ('A' for Active; 'I' for Inactive)
REMARK    1  A    between atoms: C1_1  and  C2_2
REMARK    2  A    between atoms: C2_2  and  C3_3
REMARK    3  A    between atoms: C3_3  and  O2_5
REMARK    4  A    between atoms: O2_5  and  C4_6
REMARK    5  A    between atoms: C4_6  and  C24_30
REMARK    6  A    between atoms: C5_7  and  C6_8
REMARK    7  A    between atoms: C17_21  and  C18_22
REMARK    8  A    between atoms: C20_25  and  O4_26
REMARK    9  A    between atoms: C22_28  and  C23_29
REMARK   10  A    between atoms: C24_30  and  S1_32
REMARK   11  A    between atoms: S1_32  and  C25_33
REMARK                            x       y       z     vdW  Elec       q    Type
REMARK                         _______ _______ _______ _____ _____    ______ ____
ROOT
ATOM      1  C4  UNL     1      72.399  62.496 104.752  0.00  0.00    +0.000 C 
ATOM      2  C5  UNL     1      72.778  63.716 103.867  0.00  0.00    +0.000 C 
ATOM      3  C6  UNL     1      74.035  63.522 102.998  0.00  0.00    +0.000 C 
ATOM      4  C7  UNL     1      72.931  64.868 104.841  0.00  0.00    +0.000 C 
ATOM      5  C8  UNL     1      71.731  64.716 105.775  0.00  0.00    +0.000 C 
ATOM      6  C9  UNL     1      71.809  65.513 107.131  0.00  0.00    +0.000 C 
ATOM      7  C10 UNL     1      72.227  66.981 106.868  0.00  0.00    +0.000 C 
ATOM      8  C11 UNL     1      72.366  67.798 108.143  0.00  0.00    +0.000 C 
ATOM      9  F1  UNL     1      71.112  68.033 108.684  0.00  0.00    +0.000 F 
ATOM     10  C12 UNL     1      73.245  67.125 109.170  0.00  0.00    +0.000 C 
ATOM     11  C13 UNL     1      73.620  67.863 110.231  0.00  0.00    +0.000 C 
ATOM     12  C14 UNL     1      74.380  67.269 111.326  0.00  0.00    +0.000 C 
ATOM     13  O3  UNL     1      74.840  67.989 112.248  0.00  0.00    +0.000 OA
ATOM     14  C15 UNL     1      74.576  65.825 111.354  0.00  0.00    +0.000 C 
ATOM     15  C16 UNL     1      74.187  65.073 110.326  0.00  0.00    +0.000 C 
ATOM     16  C17 UNL     1      73.731  65.667 108.980  0.00  0.00    +0.000 C 
ATOM     17  C18 UNL     1      74.998  65.665 108.096  0.00  0.00    +0.000 C 
ATOM     18  C19 UNL     1      72.531  64.819 108.367  0.00  0.00    +0.000 C 
ATOM     19  F2  UNL     1      71.574  64.757 109.381  0.00  0.00    +0.000 F 
ATOM     20  C20 UNL     1      72.878  63.338 107.999  0.00  0.00    +0.000 C 
ATOM     21  C21 UNL     1      71.675  62.665 107.303  0.00  0.00    +0.000 C 
ATOM     22  C22 UNL     1      71.443  63.173 105.857  0.00  0.00    +0.000 C 
ATOM     23  C23 UNL     1      69.936  62.944 105.538  0.00  0.00    +0.000 C 
ENDROOT
BRANCH  20  24
ATOM     24  O4  UNL     1      73.237  62.556 109.113  0.00  0.00    +0.000 OA
ATOM     25  H24 UNL     1      72.767  62.914 109.911  0.00  0.00    +0.000 HD
ENDBRANCH  20  24
BRANCH   1  26
ATOM     26  C24 UNL     1      71.736  61.447 103.820  0.00  0.00    +0.000 C 
ATOM     27  O5  UNL     1      71.105  60.523 104.310  0.00  0.00    +0.000 OA
BRANCH  26  28
ATOM     28  S1  UNL     1      71.666  61.579 102.023  0.00  0.00    +0.000 S 
BRANCH  28  29
ATOM     29  C25 UNL     1      69.862  61.860 101.968  0.00  0.00    +0.000 C 
ATOM     30  F3  UNL     1      69.555  63.148 102.353  0.00  0.00    +0.000 F 
ENDBRANCH  28  29
ENDBRANCH  26  28
ENDBRANCH   1  26
BRANCH   1  31
ATOM     31  O2  UNL     1      73.666  62.041 105.293  0.00  0.00    +0.000 OA
BRANCH  31  32
ATOM     32  C3  UNL     1      74.267  60.770 105.361  0.00  0.00    +0.000 C 
ATOM     33  O1  UNL     1      75.162  60.411 104.554  0.00  0.00    +0.000 OA
BRANCH  32  35
ATOM     34  C1  UNL     1      74.737  59.778 107.627  0.00  0.00    +0.000 C 
ATOM     35  C2  UNL     1      73.819  59.789 106.404  0.00  0.00    +0.000 C 
ENDBRANCH  32  35
ENDBRANCH  31  32
ENDBRANCH   1  31
TORSDOF 7
ENDMDL
MODEL 4
REMARK VINA RESULT:      -6.2     10.803     13.303
REMARK  Name = ./S1992.pdb
REMARK  11 active torsions:
REMARK  status: ('A' for Active; 'I' for Inactive)
REMARK    1  A    between atoms: C1_1  and  C2_2
REMARK    2  A    between atoms: C2_2  and  C3_3
REMARK    3  A    between atoms: C3_3  and  O2_5
REMARK    4  A    between atoms: O2_5  and  C4_6
REMARK    5  A    between atoms: C4_6  and  C24_30
REMARK    6  A    between atoms: C5_7  and  C6_8
REMARK    7  A    between atoms: C17_21  and  C18_22
REMARK    8  A    between atoms: C20_25  and  O4_26
REMARK    9  A    between atoms: C22_28  and  C23_29
REMARK   10  A    between atoms: C24_30  and  S1_32
REMARK   11  A    between atoms: S1_32  and  C25_33
REMARK                            x       y       z     vdW  Elec       q    Type
REMARK                         _______ _______ _______ _____ _____    ______ ____
ROOT
ATOM      1  C4  UNL     1      72.628  67.142 107.856  0.00  0.00    +0.000 C 
ATOM      2  C5  UNL     1      73.647  68.246 108.253  0.00  0.00    +0.000 C 
ATOM      3  C6  UNL     1      74.717  68.555 107.189  0.00  0.00    +0.000 C 
ATOM      4  C7  UNL     1      74.258  67.761 109.553  0.00  0.00    +0.000 C 
ATOM      5  C8  UNL     1      73.058  67.252 110.351  0.00  0.00    +0.000 C 
ATOM      6  C9  UNL     1      73.391  66.324 111.579  0.00  0.00    +0.000 C 
ATOM      7  C10 UNL     1      74.507  66.960 112.445  0.00  0.00    +0.000 C 
ATOM      8  C11 UNL     1      74.911  66.091 113.626  0.00  0.00    +0.000 C 
ATOM      9  F1  UNL     1      73.895  66.085 114.568  0.00  0.00    +0.000 F 
ATOM     10  C12 UNL     1      75.236  64.673 113.219  0.00  0.00    +0.000 C 
ATOM     11  C13 UNL     1      75.824  63.892 114.143  0.00  0.00    +0.000 C 
ATOM     12  C14 UNL     1      76.080  62.480 113.879  0.00  0.00    +0.000 C 
ATOM     13  O3  UNL     1      76.746  61.788 114.690  0.00  0.00    +0.000 OA
ATOM     14  C15 UNL     1      75.528  61.871 112.675  0.00  0.00    +0.000 C 
ATOM     15  C16 UNL     1      74.916  62.623 111.761  0.00  0.00    +0.000 C 
ATOM     16  C17 UNL     1      74.948  64.162 111.786  0.00  0.00    +0.000 C 
ATOM     17  C18 UNL     1      76.125  64.551 110.863  0.00  0.00    +0.000 C 
ATOM     18  C19 UNL     1      73.550  64.763 111.316  0.00  0.00    +0.000 C 
ATOM     19  F2  UNL     1      72.597  64.142 112.124  0.00  0.00    +0.000 F 
ATOM     20  C20 UNL     1      73.148  64.443 109.837  0.00  0.00    +0.000 C 
ATOM     21  C21 UNL     1      71.843  65.181 109.468  0.00  0.00    +0.000 C 
ATOM     22  C22 UNL     1      72.034  66.709 109.288  0.00  0.00    +0.000 C 
ATOM     23  C23 UNL     1      70.652  67.369 109.567  0.00  0.00    +0.000 C 
ENDROOT
BRANCH  20  24
ATOM     24  O4  UNL     1      72.962  63.069 109.595  0.00  0.00    +0.000 OA
ATOM     25  H24 UNL     1      72.206  62.752 110.155  0.00  0.00    +0.000 HD
ENDBRANCH  20  24
BRANCH   1  26
ATOM     26  C24 UNL     1      71.624  67.786 106.863  0.00  0.00    +0.000 C 
ATOM     27  O5  UNL     1      70.689  67.122 106.441  0.00  0.00    +0.000 OA
BRANCH  26  28
ATOM     28  S1  UNL     1      71.619  69.529 106.404  0.00  0.00    +0.000 S 
BRANCH  28  29
ATOM     29  C25 UNL     1      69.866  69.790 106.845  0.00  0.00    +0.000 C 
ATOM     30  F3  UNL     1      69.063  69.720 105.727  0.00  0.00    +0.000 F 
ENDBRANCH  28  29
ENDBRANCH  26  28
ENDBRANCH   1  26
BRANCH   1  31
ATOM     31  O2  UNL     1      73.442  66.112 107.239  0.00  0.00    +0.000 OA
BRANCH  31  32
ATOM     32  C3  UNL     1      73.301  65.380 106.045  0.00  0.00    +0.000 C 
ATOM     33  O1  UNL     1      73.533  65.889 104.919  0.00  0.00    +0.000 OA
BRANCH  32  35
ATOM     34  C1  UNL     1      71.313  63.836 106.003  0.00  0.00    +0.000 C 
ATOM     35  C2  UNL     1      72.834  63.955 106.095  0.00  0.00    +0.000 C 
ENDBRANCH  32  35
ENDBRANCH  31  32
ENDBRANCH   1  31
TORSDOF 7
ENDMDL
MODEL 5
REMARK VINA RESULT:      -6.1      8.613     11.631
REMARK  Name = ./S1992.pdb
REMARK  11 active torsions:
REMARK  status: ('A' for Active; 'I' for Inactive)
REMARK    1  A    between atoms: C1_1  and  C2_2
REMARK    2  A    between atoms: C2_2  and  C3_3
REMARK    3  A    between atoms: C3_3  and  O2_5
REMARK    4  A    between atoms: O2_5  and  C4_6
REMARK    5  A    between atoms: C4_6  and  C24_30
REMARK    6  A    between atoms: C5_7  and  C6_8
REMARK    7  A    between atoms: C17_21  and  C18_22
REMARK    8  A    between atoms: C20_25  and  O4_26
REMARK    9  A    between atoms: C22_28  and  C23_29
REMARK   10  A    between atoms: C24_30  and  S1_32
REMARK   11  A    between atoms: S1_32  and  C25_33
REMARK                            x       y       z     vdW  Elec       q    Type
REMARK                         _______ _______ _______ _____ _____    ______ ____
ROOT
ATOM      1  C4  UNL     1      70.592  60.061  98.024  0.00  0.00    +0.000 C 
ATOM      2  C5  UNL     1      71.346  59.079  97.084  0.00  0.00    +0.000 C 
ATOM      3  C6  UNL     1      70.607  57.758  96.800  0.00  0.00    +0.000 C 
ATOM      4  C7  UNL     1      72.685  58.851  97.755  0.00  0.00    +0.000 C 
ATOM      5  C8  UNL     1      73.114  60.249  98.198  0.00  0.00    +0.000 C 
ATOM      6  C9  UNL     1      74.266  60.310  99.268  0.00  0.00    +0.000 C 
ATOM      7  C10 UNL     1      75.439  59.390  98.847  0.00  0.00    +0.000 C 
ATOM      8  C11 UNL     1      76.571  59.366  99.863  0.00  0.00    +0.000 C 
ATOM      9  F1  UNL     1      77.241  60.580  99.842  0.00  0.00    +0.000 F 
ATOM     10  C12 UNL     1      76.087  59.076 101.263  0.00  0.00    +0.000 C 
ATOM     11  C13 UNL     1      77.024  58.803 102.189  0.00  0.00    +0.000 C 
ATOM     12  C14 UNL     1      76.662  58.615 103.590  0.00  0.00    +0.000 C 
ATOM     13  O3  UNL     1      77.519  58.231 104.426  0.00  0.00    +0.000 OA
ATOM     14  C15 UNL     1      75.299  58.905 104.017  0.00  0.00    +0.000 C 
ATOM     15  C16 UNL     1      74.362  59.205 103.119  0.00  0.00    +0.000 C 
ATOM     16  C17 UNL     1      74.576  59.047 101.602  0.00  0.00    +0.000 C 
ATOM     17  C18 UNL     1      74.008  57.650 101.264  0.00  0.00    +0.000 C 
ATOM     18  C19 UNL     1      73.865  60.228 100.805  0.00  0.00    +0.000 C 
ATOM     19  F2  UNL     1      74.348  61.401 101.388  0.00  0.00    +0.000 F 
ATOM     20  C20 UNL     1      72.306  60.281 100.938  0.00  0.00    +0.000 C 
ATOM     21  C21 UNL     1      71.731  61.386 100.026  0.00  0.00    +0.000 C 
ATOM     22  C22 UNL     1      71.784  61.024  98.519  0.00  0.00    +0.000 C 
ATOM     23  C23 UNL     1      71.806  62.369  97.736  0.00  0.00    +0.000 C 
ENDROOT
BRANCH  20  24
ATOM     24  O4  UNL     1      71.867  60.520 102.253  0.00  0.00    +0.000 OA
ATOM     25  H24 UNL     1      71.525  61.451 102.304  0.00  0.00    +0.000 HD
ENDBRANCH  20  24
BRANCH   1  26
ATOM     26  C24 UNL     1      69.474  60.730  97.180  0.00  0.00    +0.000 C 
ATOM     27  O5  UNL     1      68.610  61.386  97.742  0.00  0.00    +0.000 OA
BRANCH  26  28
ATOM     28  S1  UNL     1      69.442  60.770  95.378  0.00  0.00    +0.000 S 
BRANCH  28  29
ATOM     29  C25 UNL     1      67.739  60.119  95.250  0.00  0.00    +0.000 C 
ATOM     30  F3  UNL     1      67.567  59.030  96.077  0.00  0.00    +0.000 F 
ENDBRANCH  28  29
ENDBRANCH  26  28
ENDBRANCH   1  26
BRANCH   1  31
ATOM     31  O2  UNL     1      70.066  59.213  99.077  0.00  0.00    +0.000 OA
BRANCH  31  32
ATOM     32  C3  UNL     1      68.845  59.217  99.776  0.00  0.00    +0.000 C 
ATOM     33  O1  UNL     1      68.657  59.938 100.789  0.00  0.00    +0.000 OA
BRANCH  32  35
ATOM     34  C1  UNL     1      66.351  58.911  99.622  0.00  0.00    +0.000 C 
ATOM     35  C2  UNL     1      67.729  58.317  99.332  0.00  0.00    +0.000 C 
ENDBRANCH  32  35
ENDBRANCH  31  32
ENDBRANCH   1  31
TORSDOF 7
ENDMDL
MODEL 6
REMARK VINA RESULT:      -6.1      7.709     10.068
REMARK  Name = ./S1992.pdb
REMARK  11 active torsions:
REMARK  status: ('A' for Active; 'I' for Inactive)
REMARK    1  A    between atoms: C1_1  and  C2_2
REMARK    2  A    between atoms: C2_2  and  C3_3
REMARK    3  A    between atoms: C3_3  and  O2_5
REMARK    4  A    between atoms: O2_5  and  C4_6
REMARK    5  A    between atoms: C4_6  and  C24_30
REMARK    6  A    between atoms: C5_7  and  C6_8
REMARK    7  A    between atoms: C17_21  and  C18_22
REMARK    8  A    between atoms: C20_25  and  O4_26
REMARK    9  A    between atoms: C22_28  and  C23_29
REMARK   10  A    between atoms: C24_30  and  S1_32
REMARK   11  A    between atoms: S1_32  and  C25_33
REMARK                            x       y       z     vdW  Elec       q    Type
REMARK                         _______ _______ _______ _____ _____    ______ ____
ROOT
ATOM      1  C4  UNL     1      71.446  59.834  99.613  0.00  0.00    +0.000 C 
ATOM      2  C5  UNL     1      72.466  58.816 100.194  0.00  0.00    +0.000 C 
ATOM      3  C6  UNL     1      71.931  57.380 100.349  0.00  0.00    +0.000 C 
ATOM      4  C7  UNL     1      72.895  59.411 101.520  0.00  0.00    +0.000 C 
ATOM      5  C8  UNL     1      73.115  60.889 101.201  0.00  0.00    +0.000 C 
ATOM      6  C9  UNL     1      73.183  61.859 102.440  0.00  0.00    +0.000 C 
ATOM      7  C10 UNL     1      74.145  61.291 103.513  0.00  0.00    +0.000 C 
ATOM      8  C11 UNL     1      74.222  62.157 104.761  0.00  0.00    +0.000 C 
ATOM      9  F1  UNL     1      74.903  63.329 104.471  0.00  0.00    +0.000 F 
ATOM     10  C12 UNL     1      72.860  62.486 105.324  0.00  0.00    +0.000 C 
ATOM     11  C13 UNL     1      72.825  63.046 106.547  0.00  0.00    +0.000 C 
ATOM     12  C14 UNL     1      71.564  63.495 107.130  0.00  0.00    +0.000 C 
ATOM     13  O3  UNL     1      71.516  63.894 108.321  0.00  0.00    +0.000 OA
ATOM     14  C15 UNL     1      70.363  63.503 106.304  0.00  0.00    +0.000 C 
ATOM     15  C16 UNL     1      70.384  62.979 105.080  0.00  0.00    +0.000 C 
ATOM     16  C17 UNL     1      71.565  62.147 104.547  0.00  0.00    +0.000 C 
ATOM     17  C18 UNL     1      71.175  60.678 104.828  0.00  0.00    +0.000 C 
ATOM     18  C19 UNL     1      71.818  62.449 103.004  0.00  0.00    +0.000 C 
ATOM     19  F2  UNL     1      71.941  63.837 102.921  0.00  0.00    +0.000 F 
ATOM     20  C20 UNL     1      70.646  62.055 102.044  0.00  0.00    +0.000 C 
ATOM     21  C21 UNL     1      71.062  62.282 100.574  0.00  0.00    +0.000 C 
ATOM     22  C22 UNL     1      72.090  61.240 100.062  0.00  0.00    +0.000 C 
ATOM     23  C23 UNL     1      72.872  61.918  98.898  0.00  0.00    +0.000 C 
ENDROOT
BRANCH  20  24
ATOM     24  O4  UNL     1      69.462  62.776 102.284  0.00  0.00    +0.000 OA
ATOM     25  H24 UNL     1      69.616  63.382 103.055  0.00  0.00    +0.000 HD
ENDBRANCH  20  24
BRANCH   1  26
ATOM     26  C24 UNL     1      71.363  59.574  98.085  0.00  0.00    +0.000 C 
ATOM     27  O5  UNL     1      71.956  58.618  97.607  0.00  0.00    +0.000 OA
BRANCH  26  28
ATOM     28  S1  UNL     1      70.296  60.483  96.951  0.00  0.00    +0.000 S 
BRANCH  28  29
ATOM     29  C25 UNL     1      71.271  60.061  95.465  0.00  0.00    +0.000 C 
ATOM     30  F3  UNL     1      72.483  60.719  95.471  0.00  0.00    +0.000 F 
ENDBRANCH  28  29
ENDBRANCH  26  28
ENDBRANCH   1  26
BRANCH   1  31
ATOM     31  O2  UNL     1      70.205  59.528 100.299  0.00  0.00    +0.000 OA
BRANCH  31  32
ATOM     32  C3  UNL     1      68.895  59.306  99.837  0.00  0.00    +0.000 C 
ATOM     33  O1  UNL     1      68.545  58.215  99.320  0.00  0.00    +0.000 OA
BRANCH  32  35
ATOM     34  C1  UNL     1      66.464  59.871 100.168  0.00  0.00    +0.000 C 
ATOM     35  C2  UNL     1      67.876  60.404  99.930  0.00  0.00    +0.000 C 
ENDBRANCH  32  35
ENDBRANCH  31  32
ENDBRANCH   1  31
TORSDOF 7
ENDMDL
MODEL 7
REMARK VINA RESULT:      -6.0     10.109     13.583
REMARK  Name = ./S1992.pdb
REMARK  11 active torsions:
REMARK  status: ('A' for Active; 'I' for Inactive)
REMARK    1  A    between atoms: C1_1  and  C2_2
REMARK    2  A    between atoms: C2_2  and  C3_3
REMARK    3  A    between atoms: C3_3  and  O2_5
REMARK    4  A    between atoms: O2_5  and  C4_6
REMARK    5  A    between atoms: C4_6  and  C24_30
REMARK    6  A    between atoms: C5_7  and  C6_8
REMARK    7  A    between atoms: C17_21  and  C18_22
REMARK    8  A    between atoms: C20_25  and  O4_26
REMARK    9  A    between atoms: C22_28  and  C23_29
REMARK   10  A    between atoms: C24_30  and  S1_32
REMARK   11  A    between atoms: S1_32  and  C25_33
REMARK                            x       y       z     vdW  Elec       q    Type
REMARK                         _______ _______ _______ _____ _____    ______ ____
ROOT
ATOM      1  C4  UNL     1      73.344  66.314 108.910  0.00  0.00    +0.000 C 
ATOM      2  C5  UNL     1      74.708  66.571 108.211  0.00  0.00    +0.000 C 
ATOM      3  C6  UNL     1      74.885  67.990 107.637  0.00  0.00    +0.000 C 
ATOM      4  C7  UNL     1      74.799  65.505 107.137  0.00  0.00    +0.000 C 
ATOM      5  C8  UNL     1      74.325  64.236 107.842  0.00  0.00    +0.000 C 
ATOM      6  C9  UNL     1      73.926  63.035 106.906  0.00  0.00    +0.000 C 
ATOM      7  C10 UNL     1      75.025  62.797 105.841  0.00  0.00    +0.000 C 
ATOM      8  C11 UNL     1      74.680  61.677 104.871  0.00  0.00    +0.000 C 
ATOM      9  F1  UNL     1      74.756  60.456 105.524  0.00  0.00    +0.000 F 
ATOM     10  C12 UNL     1      73.310  61.842 104.258  0.00  0.00    +0.000 C 
ATOM     11  C13 UNL     1      73.005  61.040 103.221  0.00  0.00    +0.000 C 
ATOM     12  C14 UNL     1      71.670  61.052 102.631  0.00  0.00    +0.000 C 
ATOM     13  O3  UNL     1      71.428  60.402 101.583  0.00  0.00    +0.000 OA
ATOM     14  C15 UNL     1      70.610  61.806 103.289  0.00  0.00    +0.000 C 
ATOM     15  C16 UNL     1      70.886  62.583 104.335  0.00  0.00    +0.000 C 
ATOM     16  C17 UNL     1      72.324  62.919 104.771  0.00  0.00    +0.000 C 
ATOM     17  C18 UNL     1      72.643  64.267 104.084  0.00  0.00    +0.000 C 
ATOM     18  C19 UNL     1      72.433  62.978 106.359  0.00  0.00    +0.000 C 
ATOM     19  F2  UNL     1      71.911  61.762 106.804  0.00  0.00    +0.000 F 
ATOM     20  C20 UNL     1      71.585  64.098 107.047  0.00  0.00    +0.000 C 
ATOM     21  C21 UNL     1      71.873  64.129 108.563  0.00  0.00    +0.000 C 
ATOM     22  C22 UNL     1      73.270  64.706 108.909  0.00  0.00    +0.000 C 
ATOM     23  C23 UNL     1      73.674  64.105 110.288  0.00  0.00    +0.000 C 
ENDROOT
BRANCH  20  24
ATOM     24  O4  UNL     1      70.199  63.940 106.864  0.00  0.00    +0.000 OA
ATOM     25  H24 UNL     1      70.039  63.061 106.432  0.00  0.00    +0.000 HD
ENDBRANCH  20  24
BRANCH   1  26
ATOM     26  C24 UNL     1      73.412  66.997 110.303  0.00  0.00    +0.000 C 
ATOM     27  O5  UNL     1      72.491  66.844 111.091  0.00  0.00    +0.000 OA
BRANCH  26  28
ATOM     28  S1  UNL     1      74.853  67.875 110.939  0.00  0.00    +0.000 S 
BRANCH  28  29
ATOM     29  C25 UNL     1      74.694  67.206 112.631  0.00  0.00    +0.000 C 
ATOM     30  F3  UNL     1      75.490  67.907 113.512  0.00  0.00    +0.000 F 
ENDBRANCH  28  29
ENDBRANCH  26  28
ENDBRANCH   1  26
BRANCH   1  31
ATOM     31  O2  UNL     1      72.370  66.933 108.031  0.00  0.00    +0.000 OA
BRANCH  31  32
ATOM     32  C3  UNL     1      71.178  67.638 108.283  0.00  0.00    +0.000 C 
ATOM     33  O1  UNL     1      70.164  67.081 108.774  0.00  0.00    +0.000 OA
BRANCH  32  35
ATOM     34  C1  UNL     1      70.091  69.363 106.806  0.00  0.00    +0.000 C 
ATOM     35  C2  UNL     1      71.087  69.095 107.934  0.00  0.00    +0.000 C 
ENDBRANCH  32  35
ENDBRANCH  31  32
ENDBRANCH   1  31
TORSDOF 7
ENDMDL
MODEL 8
REMARK VINA RESULT:      -5.9      9.751     13.539
REMARK  Name = ./S1992.pdb
REMARK  11 active torsions:
REMARK  status: ('A' for Active; 'I' for Inactive)
REMARK    1  A    between atoms: C1_1  and  C2_2
REMARK    2  A    between atoms: C2_2  and  C3_3
REMARK    3  A    between atoms: C3_3  and  O2_5
REMARK    4  A    between atoms: O2_5  and  C4_6
REMARK    5  A    between atoms: C4_6  and  C24_30
REMARK    6  A    between atoms: C5_7  and  C6_8
REMARK    7  A    between atoms: C17_21  and  C18_22
REMARK    8  A    between atoms: C20_25  and  O4_26
REMARK    9  A    between atoms: C22_28  and  C23_29
REMARK   10  A    between atoms: C24_30  and  S1_32
REMARK   11  A    between atoms: S1_32  and  C25_33
REMARK                            x       y       z     vdW  Elec       q    Type
REMARK                         _______ _______ _______ _____ _____    ______ ____
ROOT
ATOM      1  C4  UNL     1      74.843  62.668 108.698  0.00  0.00    +0.000 C 
ATOM      2  C5  UNL     1      76.132  63.136 107.966  0.00  0.00    +0.000 C 
ATOM      3  C6  UNL     1      76.552  64.589 108.259  0.00  0.00    +0.000 C 
ATOM      4  C7  UNL     1      75.846  62.910 106.495  0.00  0.00    +0.000 C 
ATOM      5  C8  UNL     1      75.189  61.531 106.460  0.00  0.00    +0.000 C 
ATOM      6  C9  UNL     1      74.416  61.170 105.137  0.00  0.00    +0.000 C 
ATOM      7  C10 UNL     1      75.291  61.487 103.899  0.00  0.00    +0.000 C 
ATOM      8  C11 UNL     1      74.585  61.204 102.582  0.00  0.00    +0.000 C 
ATOM      9  F1  UNL     1      74.464  59.835 102.404  0.00  0.00    +0.000 F 
ATOM     10  C12 UNL     1      73.223  61.851 102.504  0.00  0.00    +0.000 C 
ATOM     11  C13 UNL     1      72.618  61.858 101.302  0.00  0.00    +0.000 C 
ATOM     12  C14 UNL     1      71.258  62.364 101.149  0.00  0.00    +0.000 C 
ATOM     13  O3  UNL     1      70.747  62.491 100.008  0.00  0.00    +0.000 OA
ATOM     14  C15 UNL     1      70.485  62.694 102.341  0.00  0.00    +0.000 C 
ATOM     15  C16 UNL     1      71.057  62.666 103.543  0.00  0.00    +0.000 C 
ATOM     16  C17 UNL     1      72.577  62.517 103.743  0.00  0.00    +0.000 C 
ATOM     17  C18 UNL     1      73.104  63.964 103.873  0.00  0.00    +0.000 C 
ATOM     18  C19 UNL     1      72.893  61.613 105.016  0.00  0.00    +0.000 C 
ATOM     19  F2  UNL     1      72.169  60.437 104.814  0.00  0.00    +0.000 F 
ATOM     20  C20 UNL     1      72.411  62.196 106.386  0.00  0.00    +0.000 C 
ATOM     21  C21 UNL     1      72.885  61.291 107.545  0.00  0.00    +0.000 C 
ATOM     22  C22 UNL     1      74.407  61.393 107.817  0.00  0.00    +0.000 C 
ATOM     23  C23 UNL     1      74.833  60.053 108.487  0.00  0.00    +0.000 C 
ENDROOT
BRANCH  20  24
ATOM     24  O4  UNL     1      71.014  62.331 106.475  0.00  0.00    +0.000 OA
ATOM     25  H24 UNL     1      70.794  62.752 107.346  0.00  0.00    +0.000 HD
ENDBRANCH  20  24
BRANCH   1  26
ATOM     26  C24 UNL     1      75.236  62.383 110.172  0.00  0.00    +0.000 C 
ATOM     27  O5  UNL     1      74.358  62.177 110.997  0.00  0.00    +0.000 OA
BRANCH  26  28
ATOM     28  S1  UNL     1      76.927  62.148 110.750  0.00  0.00    +0.000 S 
BRANCH  28  29
ATOM     29  C25 UNL     1      76.799  63.392 112.082  0.00  0.00    +0.000 C 
ATOM     30  F3  UNL     1      76.273  64.572 111.602  0.00  0.00    +0.000 F 
ENDBRANCH  28  29
ENDBRANCH  26  28
ENDBRANCH   1  26
BRANCH   1  31
ATOM     31  O2  UNL     1      73.933  63.790 108.569  0.00  0.00    +0.000 OA
BRANCH  31  32
ATOM     32  C3  UNL     1      73.035  64.392 109.471  0.00  0.00    +0.000 C 
ATOM     33  O1  UNL     1      71.880  63.934 109.669  0.00  0.00    +0.000 OA
BRANCH  32  35
ATOM     34  C1  UNL     1      73.044  65.594 111.683  0.00  0.00    +0.000 C 
ATOM     35  C2  UNL     1      73.440  65.635 110.207  0.00  0.00    +0.000 C 
ENDBRANCH  32  35
ENDBRANCH  31  32
ENDBRANCH   1  31
TORSDOF 7
ENDMDL
MODEL 9
REMARK VINA RESULT:      -5.9     11.085     14.066
REMARK  Name = ./S1992.pdb
REMARK  11 active torsions:
REMARK  status: ('A' for Active; 'I' for Inactive)
REMARK    1  A    between atoms: C1_1  and  C2_2
REMARK    2  A    between atoms: C2_2  and  C3_3
REMARK    3  A    between atoms: C3_3  and  O2_5
REMARK    4  A    between atoms: O2_5  and  C4_6
REMARK    5  A    between atoms: C4_6  and  C24_30
REMARK    6  A    between atoms: C5_7  and  C6_8
REMARK    7  A    between atoms: C17_21  and  C18_22
REMARK    8  A    between atoms: C20_25  and  O4_26
REMARK    9  A    between atoms: C22_28  and  C23_29
REMARK   10  A    between atoms: C24_30  and  S1_32
REMARK   11  A    between atoms: S1_32  and  C25_33
REMARK                            x       y       z     vdW  Elec       q    Type
REMARK                         _______ _______ _______ _____ _____    ______ ____
ROOT
ATOM      1  C4  UNL     1      73.202  64.541 107.803  0.00  0.00    +0.000 C 
ATOM      2  C5  UNL     1      74.635  64.989 107.402  0.00  0.00    +0.000 C 
ATOM      3  C6  UNL     1      75.673  64.936 108.539  0.00  0.00    +0.000 C 
ATOM      4  C7  UNL     1      74.463  66.391 106.851  0.00  0.00    +0.000 C 
ATOM      5  C8  UNL     1      73.225  66.283 105.962  0.00  0.00    +0.000 C 
ATOM      6  C9  UNL     1      72.548  67.645 105.555  0.00  0.00    +0.000 C 
ATOM      7  C10 UNL     1      73.615  68.642 105.040  0.00  0.00    +0.000 C 
ATOM      8  C11 UNL     1      73.034  69.998 104.672  0.00  0.00    +0.000 C 
ATOM      9  F1  UNL     1      72.280  69.883 103.514  0.00  0.00    +0.000 F 
ATOM     10  C12 UNL     1      72.185  70.584 105.776  0.00  0.00    +0.000 C 
ATOM     11  C13 UNL     1      71.819  71.872 105.646  0.00  0.00    +0.000 C 
ATOM     12  C14 UNL     1      70.913  72.494 106.606  0.00  0.00    +0.000 C 
ATOM     13  O3  UNL     1      70.678  73.728 106.557  0.00  0.00    +0.000 OA
ATOM     14  C15 UNL     1      70.257  71.662 107.607  0.00  0.00    +0.000 C 
ATOM     15  C16 UNL     1      70.585  70.376 107.733  0.00  0.00    +0.000 C 
ATOM     16  C17 UNL     1      71.798  69.749 107.021  0.00  0.00    +0.000 C 
ATOM     17  C18 UNL     1      72.945  69.819 108.054  0.00  0.00    +0.000 C 
ATOM     18  C19 UNL     1      71.467  68.267 106.543  0.00  0.00    +0.000 C 
ATOM     19  F2  UNL     1      70.292  68.379 105.798  0.00  0.00    +0.000 F 
ATOM     20  C20 UNL     1      71.164  67.246 107.690  0.00  0.00    +0.000 C 
ATOM     21  C21 UNL     1      70.983  65.828 107.107  0.00  0.00    +0.000 C 
ATOM     22  C22 UNL     1      72.312  65.189 106.628  0.00  0.00    +0.000 C 
ATOM     23  C23 UNL     1      71.939  64.142 105.538  0.00  0.00    +0.000 C 
ENDROOT
BRANCH  20  24
ATOM     24  O4  UNL     1      70.014  67.568 108.433  0.00  0.00    +0.000 OA
ATOM     25  H24 UNL     1      70.161  68.444 108.875  0.00  0.00    +0.000 HD
ENDBRANCH  20  24
BRANCH   1  26
ATOM     26  C24 UNL     1      73.215  62.991 107.879  0.00  0.00    +0.000 C 
ATOM     27  O5  UNL     1      72.170  62.392 108.084  0.00  0.00    +0.000 OA
BRANCH  26  28
ATOM     28  S1  UNL     1      74.648  61.963 107.504  0.00  0.00    +0.000 S 
BRANCH  28  29
ATOM     29  C25 UNL     1      74.774  61.271 109.190  0.00  0.00    +0.000 C 
ATOM     30  F3  UNL     1      75.825  61.841 109.876  0.00  0.00    +0.000 F 
ENDBRANCH  28  29
ENDBRANCH  26  28
ENDBRANCH   1  26
BRANCH   1  31
ATOM     31  O2  UNL     1      72.983  65.162 109.095  0.00  0.00    +0.000 OA
BRANCH  31  32
ATOM     32  C3  UNL     1      72.487  64.665 110.315  0.00  0.00    +0.000 C 
ATOM     33  O1  UNL     1      71.274  64.373 110.474  0.00  0.00    +0.000 OA
BRANCH  32  35
ATOM     34  C1  UNL     1      72.855  65.115 112.765  0.00  0.00    +0.000 C 
ATOM     35  C2  UNL     1      73.414  64.497 111.483  0.00  0.00    +0.000 C 
ENDBRANCH  32  35
ENDBRANCH  31  32
ENDBRANCH   1  31
TORSDOF 7
ENDMDL
MODEL 10
REMARK VINA RESULT:      -5.9     12.966     16.094
REMARK  Name = ./S1992.pdb
REMARK  11 active torsions:
REMARK  status: ('A' for Active; 'I' for Inactive)
REMARK    1  A    between atoms: C1_1  and  C2_2
REMARK    2  A    between atoms: C2_2  and  C3_3
REMARK    3  A    between atoms: C3_3  and  O2_5
REMARK    4  A    between atoms: O2_5  and  C4_6
REMARK    5  A    between atoms: C4_6  and  C24_30
REMARK    6  A    between atoms: C5_7  and  C6_8
REMARK    7  A    between atoms: C17_21  and  C18_22
REMARK    8  A    between atoms: C20_25  and  O4_26
REMARK    9  A    between atoms: C22_28  and  C23_29
REMARK   10  A    between atoms: C24_30  and  S1_32
REMARK   11  A    between atoms: S1_32  and  C25_33
REMARK                            x       y       z     vdW  Elec       q    Type
REMARK                         _______ _______ _______ _____ _____    ______ ____
ROOT
ATOM      1  C4  UNL     1      74.320  62.716 115.774  0.00  0.00    +0.000 C 
ATOM      2  C5  UNL     1      73.569  63.938 116.373  0.00  0.00    +0.000 C 
ATOM      3  C6  UNL     1      72.163  63.630 116.922  0.00  0.00    +0.000 C 
ATOM      4  C7  UNL     1      73.534  64.959 115.253  0.00  0.00    +0.000 C 
ATOM      5  C8  UNL     1      74.947  64.911 114.673  0.00  0.00    +0.000 C 
ATOM      6  C9  UNL     1      75.129  65.560 113.250  0.00  0.00    +0.000 C 
ATOM      7  C10 UNL     1      74.474  66.962 113.211  0.00  0.00    +0.000 C 
ATOM      8  C11 UNL     1      74.574  67.628 111.848  0.00  0.00    +0.000 C 
ATOM      9  F1  UNL     1      75.886  68.005 111.609  0.00  0.00    +0.000 F 
ATOM     10  C12 UNL     1      74.089  66.736 110.730  0.00  0.00    +0.000 C 
ATOM     11  C13 UNL     1      73.917  67.307 109.524  0.00  0.00    +0.000 C 
ATOM     12  C14 UNL     1      73.554  66.506 108.359  0.00  0.00    +0.000 C 
ATOM     13  O3  UNL     1      73.266  67.058 107.267  0.00  0.00    +0.000 OA
ATOM     14  C15 UNL     1      73.558  65.052 108.468  0.00  0.00    +0.000 C 
ATOM     15  C16 UNL     1      73.754  64.466 109.649  0.00  0.00    +0.000 C 
ATOM     16  C17 UNL     1      73.760  65.244 110.978  0.00  0.00    +0.000 C 
ATOM     17  C18 UNL     1      72.315  65.125 111.513  0.00  0.00    +0.000 C 
ATOM     18  C19 UNL     1      74.853  64.652 111.973  0.00  0.00    +0.000 C 
ATOM     19  F2  UNL     1      76.044  64.647 111.244  0.00  0.00    +0.000 F 
ATOM     20  C20 UNL     1      74.612  63.174 112.429  0.00  0.00    +0.000 C 
ATOM     21  C21 UNL     1      75.665  62.763 113.482  0.00  0.00    +0.000 C 
ATOM     22  C22 UNL     1      75.440  63.430 114.864  0.00  0.00    +0.000 C 
ATOM     23  C23 UNL     1      76.826  63.469 115.573  0.00  0.00    +0.000 C 
ENDROOT
BRANCH  20  24
ATOM     24  O4  UNL     1      74.662  62.249 111.371  0.00  0.00    +0.000 OA
ATOM     25  H24 UNL     1      74.477  61.344 111.737  0.00  0.00    +0.000 HD
ENDBRANCH  20  24
BRANCH   1  26
ATOM     26  C24 UNL     1      74.842  61.872 116.968  0.00  0.00    +0.000 C 
ATOM     27  O5  UNL     1      75.343  60.779 116.755  0.00  0.00    +0.000 OA
BRANCH  26  28
ATOM     28  S1  UNL     1      74.933  62.461 118.670  0.00  0.00    +0.000 S 
BRANCH  28  29
ATOM     29  C25 UNL     1      76.469  61.551 119.055  0.00  0.00    +0.000 C 
ATOM     30  F3  UNL     1      77.574  62.242 118.605  0.00  0.00    +0.000 F 
ENDBRANCH  28  29
ENDBRANCH  26  28
ENDBRANCH   1  26
BRANCH   1  31
ATOM     31  O2  UNL     1      73.310  62.022 114.998  0.00  0.00    +0.000 OA
BRANCH  31  32
ATOM     32  C3  UNL     1      72.991  60.658 114.860  0.00  0.00    +0.000 C 
ATOM     33  O1  UNL     1      73.498  59.942 113.960  0.00  0.00    +0.000 OA
BRANCH  32  35
ATOM     34  C1  UNL     1      70.552  60.375 115.418  0.00  0.00    +0.000 C 
ATOM     35  C2  UNL     1      71.994  60.028 115.788  0.00  0.00    +0.000 C 
ENDBRANCH  32  35
ENDBRANCH  31  32
ENDBRANCH   1  31
TORSDOF 7
ENDMDL
MODEL 11
REMARK VINA RESULT:      -5.8     13.087     14.932
REMARK  Name = ./S1992.pdb
REMARK  11 active torsions:
REMARK  status: ('A' for Active; 'I' for Inactive)
REMARK    1  A    between atoms: C1_1  and  C2_2
REMARK    2  A    between atoms: C2_2  and  C3_3
REMARK    3  A    between atoms: C3_3  and  O2_5
REMARK    4  A    between atoms: O2_5  and  C4_6
REMARK    5  A    between atoms: C4_6  and  C24_30
REMARK    6  A    between atoms: C5_7  and  C6_8
REMARK    7  A    between atoms: C17_21  and  C18_22
REMARK    8  A    between atoms: C20_25  and  O4_26
REMARK    9  A    between atoms: C22_28  and  C23_29
REMARK   10  A    between atoms: C24_30  and  S1_32
REMARK   11  A    between atoms: S1_32  and  C25_33
REMARK                            x       y       z     vdW  Elec       q    Type
REMARK                         _______ _______ _______ _____ _____    ______ ____
ROOT
ATOM      1  C4  UNL     1      72.019  71.697 103.926  0.00  0.00    +0.000 C 
ATOM      2  C5  UNL     1      73.479  71.248 103.637  0.00  0.00    +0.000 C 
ATOM      3  C6  UNL     1      73.711  70.666 102.230  0.00  0.00    +0.000 C 
ATOM      4  C7  UNL     1      73.798  70.245 104.729  0.00  0.00    +0.000 C 
ATOM      5  C8  UNL     1      73.245  70.897 105.995  0.00  0.00    +0.000 C 
ATOM      6  C9  UNL     1      73.062  69.946 107.236  0.00  0.00    +0.000 C 
ATOM      7  C10 UNL     1      74.344  69.107 107.462  0.00  0.00    +0.000 C 
ATOM      8  C11 UNL     1      74.218  68.130 108.621  0.00  0.00    +0.000 C 
ATOM      9  F1  UNL     1      74.213  68.827 109.819  0.00  0.00    +0.000 F 
ATOM     10  C12 UNL     1      72.979  67.273 108.526  0.00  0.00    +0.000 C 
ATOM     11  C13 UNL     1      72.894  66.226 109.367  0.00  0.00    +0.000 C 
ATOM     12  C14 UNL     1      71.689  65.404 109.423  0.00  0.00    +0.000 C 
ATOM     13  O3  UNL     1      71.664  64.353 110.111  0.00  0.00    +0.000 OA
ATOM     14  C15 UNL     1      70.503  65.833 108.693  0.00  0.00    +0.000 C 
ATOM     15  C16 UNL     1      70.558  66.884 107.876  0.00  0.00    +0.000 C 
ATOM     16  C17 UNL     1      71.881  67.561 107.473  0.00  0.00    +0.000 C 
ATOM     17  C18 UNL     1      72.276  66.897 106.134  0.00  0.00    +0.000 C 
ATOM     18  C19 UNL     1      71.697  69.140 107.366  0.00  0.00    +0.000 C 
ATOM     19  F2  UNL     1      71.142  69.524 108.587  0.00  0.00    +0.000 F 
ATOM     20  C20 UNL     1      70.702  69.623 106.259  0.00  0.00    +0.000 C 
ATOM     21  C21 UNL     1      70.707  71.165 106.175  0.00  0.00    +0.000 C 
ATOM     22  C22 UNL     1      71.998  71.738 105.535  0.00  0.00    +0.000 C 
ATOM     23  C23 UNL     1      72.164  73.187 106.081  0.00  0.00    +0.000 C 
ENDROOT
BRANCH  20  24
ATOM     24  O4  UNL     1      69.378  69.198 106.475  0.00  0.00    +0.000 OA
ATOM     25  H24 UNL     1      68.869  69.318 105.632  0.00  0.00    +0.000 HD
ENDBRANCH  20  24
BRANCH   1  26
ATOM     26  C24 UNL     1      71.810  73.054 103.202  0.00  0.00    +0.000 C 
ATOM     27  O5  UNL     1      70.700  73.565 103.196  0.00  0.00    +0.000 OA
BRANCH  26  28
ATOM     28  S1  UNL     1      73.138  74.052 102.503  0.00  0.00    +0.000 S 
BRANCH  28  29
ATOM     29  C25 UNL     1      72.378  74.165 100.846  0.00  0.00    +0.000 C 
ATOM     30  F3  UNL     1      72.608  73.015 100.121  0.00  0.00    +0.000 F 
ENDBRANCH  28  29
ENDBRANCH  26  28
ENDBRANCH   1  26
BRANCH   1  31
ATOM     31  O2  UNL     1      71.202  70.635 103.370  0.00  0.00    +0.000 OA
BRANCH  31  32
ATOM     32  C3  UNL     1      70.168  70.635 102.415  0.00  0.00    +0.000 C 
ATOM     33  O1  UNL     1      70.378  70.900 101.204  0.00  0.00    +0.000 OA
BRANCH  32  35
ATOM     34  C1  UNL     1      68.193  71.412 103.769  0.00  0.00    +0.000 C 
ATOM     35  C2  UNL     1      68.761  70.338 102.841  0.00  0.00    +0.000 C 
ENDBRANCH  32  35
ENDBRANCH  31  32
ENDBRANCH   1  31
TORSDOF 7
ENDMDL
MODEL 12
REMARK VINA RESULT:      -5.8     14.193     18.181
REMARK  Name = ./S1992.pdb
REMARK  11 active torsions:
REMARK  status: ('A' for Active; 'I' for Inactive)
REMARK    1  A    between atoms: C1_1  and  C2_2
REMARK    2  A    between atoms: C2_2  and  C3_3
REMARK    3  A    between atoms: C3_3  and  O2_5
REMARK    4  A    between atoms: O2_5  and  C4_6
REMARK    5  A    between atoms: C4_6  and  C24_30
REMARK    6  A    between atoms: C5_7  and  C6_8
REMARK    7  A    between atoms: C17_21  and  C18_22
REMARK    8  A    between atoms: C20_25  and  O4_26
REMARK    9  A    between atoms: C22_28  and  C23_29
REMARK   10  A    between atoms: C24_30  and  S1_32
REMARK   11  A    between atoms: S1_32  and  C25_33
REMARK                            x       y       z     vdW  Elec       q    Type
REMARK                         _______ _______ _______ _____ _____    ______ ____
ROOT
ATOM      1  C4  UNL     1      79.439  58.952 116.288  0.00  0.00    +0.000 C 
ATOM      2  C5  UNL     1      79.751  60.469 116.409  0.00  0.00    +0.000 C 
ATOM      3  C6  UNL     1      80.358  60.901 117.758  0.00  0.00    +0.000 C 
ATOM      4  C7  UNL     1      78.430  61.160 116.131  0.00  0.00    +0.000 C 
ATOM      5  C8  UNL     1      77.872  60.405 114.925  0.00  0.00    +0.000 C 
ATOM      6  C9  UNL     1      76.340  60.613 114.631  0.00  0.00    +0.000 C 
ATOM      7  C10 UNL     1      75.988  62.121 114.654  0.00  0.00    +0.000 C 
ATOM      8  C11 UNL     1      74.510  62.391 114.423  0.00  0.00    +0.000 C 
ATOM      9  F1  UNL     1      74.189  62.124 113.101  0.00  0.00    +0.000 F 
ATOM     10  C12 UNL     1      73.622  61.580 115.336  0.00  0.00    +0.000 C 
ATOM     11  C13 UNL     1      72.319  61.913 115.374  0.00  0.00    +0.000 C 
ATOM     12  C14 UNL     1      71.365  61.121 116.145  0.00  0.00    +0.000 C 
ATOM     13  O3  UNL     1      70.178  61.509 116.285  0.00  0.00    +0.000 OA
ATOM     14  C15 UNL     1      71.798  59.857 116.727  0.00  0.00    +0.000 C 
ATOM     15  C16 UNL     1      73.079  59.496 116.675  0.00  0.00    +0.000 C 
ATOM     16  C17 UNL     1      74.200  60.450 116.223  0.00  0.00    +0.000 C 
ATOM     17  C18 UNL     1      74.751  61.063 117.530  0.00  0.00    +0.000 C 
ATOM     18  C19 UNL     1      75.300  59.668 115.378  0.00  0.00    +0.000 C 
ATOM     19  F2  UNL     1      74.588  59.015 114.370  0.00  0.00    +0.000 F 
ATOM     20  C20 UNL     1      76.077  58.556 116.158  0.00  0.00    +0.000 C 
ATOM     21  C21 UNL     1      77.192  57.963 115.270  0.00  0.00    +0.000 C 
ATOM     22  C22 UNL     1      78.390  58.927 115.067  0.00  0.00    +0.000 C 
ATOM     23  C23 UNL     1      79.068  58.521 113.726  0.00  0.00    +0.000 C 
ENDROOT
BRANCH  20  24
ATOM     24  O4  UNL     1      75.253  57.502 116.595  0.00  0.00    +0.000 OA
ATOM     25  H24 UNL     1      74.719  57.181 115.822  0.00  0.00    +0.000 HD
ENDBRANCH  20  24
BRANCH   1  26
ATOM     26  C24 UNL     1      80.791  58.228 116.045  0.00  0.00    +0.000 C 
ATOM     27  O5  UNL     1      81.827  58.875 116.055  0.00  0.00    +0.000 OA
BRANCH  26  28
ATOM     28  S1  UNL     1      80.983  56.440 115.923  0.00  0.00    +0.000 S 
BRANCH  28  29
ATOM     29  C25 UNL     1      82.140  56.515 114.511  0.00  0.00    +0.000 C 
ATOM     30  F3  UNL     1      82.988  55.428 114.513  0.00  0.00    +0.000 F 
ENDBRANCH  28  29
ENDBRANCH  26  28
ENDBRANCH   1  26
BRANCH   1  31
ATOM     31  O2  UNL     1      78.842  58.607 117.563  0.00  0.00    +0.000 OA
BRANCH  31  32
ATOM     32  C3  UNL     1      79.017  57.510 118.427  0.00  0.00    +0.000 C 
ATOM     33  O1  UNL     1      78.387  56.432 118.275  0.00  0.00    +0.000 OA
BRANCH  32  35
ATOM     34  C1  UNL     1      80.876  56.403 119.715  0.00  0.00    +0.000 C 
ATOM     35  C2  UNL     1      79.959  57.620 119.590  0.00  0.00    +0.000 C 
ENDBRANCH  32  35
ENDBRANCH  31  32
ENDBRANCH   1  31
TORSDOF 7
ENDMDL
MODEL 13
REMARK VINA RESULT:      -5.8     12.126     15.594
REMARK  Name = ./S1992.pdb
REMARK  11 active torsions:
REMARK  status: ('A' for Active; 'I' for Inactive)
REMARK    1  A    between atoms: C1_1  and  C2_2
REMARK    2  A    between atoms: C2_2  and  C3_3
REMARK    3  A    between atoms: C3_3  and  O2_5
REMARK    4  A    between atoms: O2_5  and  C4_6
REMARK    5  A    between atoms: C4_6  and  C24_30
REMARK    6  A    between atoms: C5_7  and  C6_8
REMARK    7  A    between atoms: C17_21  and  C18_22
REMARK    8  A    between atoms: C20_25  and  O4_26
REMARK    9  A    between atoms: C22_28  and  C23_29
REMARK   10  A    between atoms: C24_30  and  S1_32
REMARK   11  A    between atoms: S1_32  and  C25_33
REMARK                            x       y       z     vdW  Elec       q    Type
REMARK                         _______ _______ _______ _____ _____    ______ ____
ROOT
ATOM      1  C4  UNL     1      75.448  62.261 114.049  0.00  0.00    +0.000 C 
ATOM      2  C5  UNL     1      75.154  63.581 114.815  0.00  0.00    +0.000 C 
ATOM      3  C6  UNL     1      74.044  63.481 115.878  0.00  0.00    +0.000 C 
ATOM      4  C7  UNL     1      74.820  64.590 113.734  0.00  0.00    +0.000 C 
ATOM      5  C8  UNL     1      75.878  64.337 112.661  0.00  0.00    +0.000 C 
ATOM      6  C9  UNL     1      75.577  64.945 111.240  0.00  0.00    +0.000 C 
ATOM      7  C10 UNL     1      75.146  66.427 111.370  0.00  0.00    +0.000 C 
ATOM      8  C11 UNL     1      74.795  67.063 110.034  0.00  0.00    +0.000 C 
ATOM      9  F1  UNL     1      75.949  67.248 109.289  0.00  0.00    +0.000 F 
ATOM     10  C12 UNL     1      73.803  66.243 109.244  0.00  0.00    +0.000 C 
ATOM     11  C13 UNL     1      73.253  66.826 108.163  0.00  0.00    +0.000 C 
ATOM     12  C14 UNL     1      72.366  66.078 107.278  0.00  0.00    +0.000 C 
ATOM     13  O3  UNL     1      71.752  66.659 106.348  0.00  0.00    +0.000 OA
ATOM     14  C15 UNL     1      72.223  64.639 107.465  0.00  0.00    +0.000 C 
ATOM     15  C16 UNL     1      72.784  64.038 108.514  0.00  0.00    +0.000 C 
ATOM     16  C17 UNL     1      73.406  64.815 109.689  0.00  0.00    +0.000 C 
ATOM     17  C18 UNL     1      72.279  64.908 110.743  0.00  0.00    +0.000 C 
ATOM     18  C19 UNL     1      74.712  64.078 110.224  0.00  0.00    +0.000 C 
ATOM     19  F2  UNL     1      75.516  63.900 109.097  0.00  0.00    +0.000 F 
ATOM     20  C20 UNL     1      74.478  62.653 110.827  0.00  0.00    +0.000 C 
ATOM     21  C21 UNL     1      75.793  62.102 111.419  0.00  0.00    +0.000 C 
ATOM     22  C22 UNL     1      76.210  62.802 112.738  0.00  0.00    +0.000 C 
ATOM     23  C23 UNL     1      77.755  62.646 112.858  0.00  0.00    +0.000 C 
ENDROOT
BRANCH  20  24
ATOM     24  O4  UNL     1      73.993  61.724 109.888  0.00  0.00    +0.000 OA
ATOM     25  H24 UNL     1      73.664  60.926 110.379  0.00  0.00    +0.000 HD
ENDBRANCH  20  24
BRANCH   1  26
ATOM     26  C24 UNL     1      76.278  61.358 115.001  0.00  0.00    +0.000 C 
ATOM     27  O5  UNL     1      76.543  60.215 114.663  0.00  0.00    +0.000 OA
BRANCH  26  28
ATOM     28  S1  UNL     1      77.054  61.926 116.526  0.00  0.00    +0.000 S 
BRANCH  28  29
ATOM     29  C25 UNL     1      78.698  61.244 116.115  0.00  0.00    +0.000 C 
ATOM     30  F3  UNL     1      79.546  62.240 115.679  0.00  0.00    +0.000 F 
ENDBRANCH  28  29
ENDBRANCH  26  28
ENDBRANCH   1  26
BRANCH   1  31
ATOM     31  O2  UNL     1      74.136  61.714 113.764  0.00  0.00    +0.000 OA
BRANCH  31  32
ATOM     32  C3  UNL     1      73.545  60.469 114.046  0.00  0.00    +0.000 C 
ATOM     33  O1  UNL     1      73.559  59.520 113.221  0.00  0.00    +0.000 OA
BRANCH  32  35
ATOM     34  C1  UNL     1      71.371  60.657 115.303  0.00  0.00    +0.000 C 
ATOM     35  C2  UNL     1      72.846  60.256 115.357  0.00  0.00    +0.000 C 
ENDBRANCH  32  35
ENDBRANCH  31  32
ENDBRANCH   1  31
TORSDOF 7
ENDMDL
MODEL 14
REMARK VINA RESULT:      -5.7     12.153     13.694
REMARK  Name = ./S1992.pdb
REMARK  11 active torsions:
REMARK  status: ('A' for Active; 'I' for Inactive)
REMARK    1  A    between atoms: C1_1  and  C2_2
REMARK    2  A    between atoms: C2_2  and  C3_3
REMARK    3  A    between atoms: C3_3  and  O2_5
REMARK    4  A    between atoms: O2_5  and  C4_6
REMARK    5  A    between atoms: C4_6  and  C24_30
REMARK    6  A    between atoms: C5_7  and  C6_8
REMARK    7  A    between atoms: C17_21  and  C18_22
REMARK    8  A    between atoms: C20_25  and  O4_26
REMARK    9  A    between atoms: C22_28  and  C23_29
REMARK   10  A    between atoms: C24_30  and  S1_32
REMARK   11  A    between atoms: S1_32  and  C25_33
REMARK                            x       y       z     vdW  Elec       q    Type
REMARK                         _______ _______ _______ _____ _____    ______ ____
ROOT
ATOM      1  C4  UNL     1      72.453  67.888 107.716  0.00  0.00    +0.000 C 
ATOM      2  C5  UNL     1      73.304  68.951 108.465  0.00  0.00    +0.000 C 
ATOM      3  C6  UNL     1      74.204  69.816 107.563  0.00  0.00    +0.000 C 
ATOM      4  C7  UNL     1      74.105  68.160 109.481  0.00  0.00    +0.000 C 
ATOM      5  C8  UNL     1      73.087  67.183 110.066  0.00  0.00    +0.000 C 
ATOM      6  C9  UNL     1      73.682  65.960 110.859  0.00  0.00    +0.000 C 
ATOM      7  C10 UNL     1      74.751  66.445 111.870  0.00  0.00    +0.000 C 
ATOM      8  C11 UNL     1      75.402  65.307 112.640  0.00  0.00    +0.000 C 
ATOM      9  F1  UNL     1      74.492  64.773 113.539  0.00  0.00    +0.000 F 
ATOM     10  C12 UNL     1      75.921  64.217 111.733  0.00  0.00    +0.000 C 
ATOM     11  C13 UNL     1      76.715  63.285 112.292  0.00  0.00    +0.000 C 
ATOM     12  C14 UNL     1      77.179  62.135 111.522  0.00  0.00    +0.000 C 
ATOM     13  O3  UNL     1      78.023  61.340 112.005  0.00  0.00    +0.000 OA
ATOM     14  C15 UNL     1      76.628  61.901 110.192  0.00  0.00    +0.000 C 
ATOM     15  C16 UNL     1      75.817  62.799 109.633  0.00  0.00    +0.000 C 
ATOM     16  C17 UNL     1      75.592  64.204 110.220  0.00  0.00    +0.000 C 
ATOM     17  C18 UNL     1      76.597  65.112 109.475  0.00  0.00    +0.000 C 
ATOM     18  C19 UNL     1      74.076  64.656 110.038  0.00  0.00    +0.000 C 
ATOM     19  F2  UNL     1      73.319  63.618 110.585  0.00  0.00    +0.000 F 
ATOM     20  C20 UNL     1      73.599  64.812 108.555  0.00  0.00    +0.000 C 
ATOM     21  C21 UNL     1      72.160  65.371 108.515  0.00  0.00    +0.000 C 
ATOM     22  C22 UNL     1      72.075  66.870 108.904  0.00  0.00    +0.000 C 
ATOM     23  C23 UNL     1      70.633  67.112 109.439  0.00  0.00    +0.000 C 
ENDROOT
BRANCH  20  24
ATOM     24  O4  UNL     1      73.625  63.607 107.831  0.00  0.00    +0.000 OA
ATOM     25  H24 UNL     1      73.959  63.798 106.916  0.00  0.00    +0.000 HD
ENDBRANCH  20  24
BRANCH   1  26
ATOM     26  C24 UNL     1      71.267  68.640 107.053  0.00  0.00    +0.000 C 
ATOM     27  O5  UNL     1      70.545  68.046 106.267  0.00  0.00    +0.000 OA
BRANCH  26  28
ATOM     28  S1  UNL     1      70.746  70.310 107.490  0.00  0.00    +0.000 S 
BRANCH  28  29
ATOM     29  C25 UNL     1      69.433  70.388 106.223  0.00  0.00    +0.000 C 
ATOM     30  F3  UNL     1      68.273  70.916 106.751  0.00  0.00    +0.000 F 
ENDBRANCH  28  29
ENDBRANCH  26  28
ENDBRANCH   1  26
BRANCH   1  31
ATOM     31  O2  UNL     1      73.367  67.320 106.744  0.00  0.00    +0.000 OA
BRANCH  31  32
ATOM     32  C3  UNL     1      73.211  66.956 105.394  0.00  0.00    +0.000 C 
ATOM     33  O1  UNL     1      72.830  65.807 105.052  0.00  0.00    +0.000 OA
BRANCH  32  35
ATOM     34  C1  UNL     1      75.032  68.060 104.052  0.00  0.00    +0.000 C 
ATOM     35  C2  UNL     1      73.530  67.947 104.313  0.00  0.00    +0.000 C 
ENDBRANCH  32  35
ENDBRANCH  31  32
ENDBRANCH   1  31
TORSDOF 7
ENDMDL
MODEL 15
REMARK VINA RESULT:      -5.7     10.291     12.560
REMARK  Name = ./S1992.pdb
REMARK  11 active torsions:
REMARK  status: ('A' for Active; 'I' for Inactive)
REMARK    1  A    between atoms: C1_1  and  C2_2
REMARK    2  A    between atoms: C2_2  and  C3_3
REMARK    3  A    between atoms: C3_3  and  O2_5
REMARK    4  A    between atoms: O2_5  and  C4_6
REMARK    5  A    between atoms: C4_6  and  C24_30
REMARK    6  A    between atoms: C5_7  and  C6_8
REMARK    7  A    between atoms: C17_21  and  C18_22
REMARK    8  A    between atoms: C20_25  and  O4_26
REMARK    9  A    between atoms: C22_28  and  C23_29
REMARK   10  A    between atoms: C24_30  and  S1_32
REMARK   11  A    between atoms: S1_32  and  C25_33
REMARK                            x       y       z     vdW  Elec       q    Type
REMARK                         _______ _______ _______ _____ _____    ______ ____
ROOT
ATOM      1  C4  UNL     1      73.625  61.646 106.063  0.00  0.00    +0.000 C 
ATOM      2  C5  UNL     1      73.380  60.563 107.150  0.00  0.00    +0.000 C 
ATOM      3  C6  UNL     1      71.940  60.021 107.213  0.00  0.00    +0.000 C 
ATOM      4  C7  UNL     1      73.800  61.218 108.451  0.00  0.00    +0.000 C 
ATOM      5  C8  UNL     1      75.110  61.921 108.098  0.00  0.00    +0.000 C 
ATOM      6  C9  UNL     1      75.601  63.016 109.118  0.00  0.00    +0.000 C 
ATOM      7  C10 UNL     1      75.545  62.466 110.564  0.00  0.00    +0.000 C 
ATOM      8  C11 UNL     1      75.963  63.491 111.607  0.00  0.00    +0.000 C 
ATOM      9  F1  UNL     1      77.329  63.712 111.521  0.00  0.00    +0.000 F 
ATOM     10  C12 UNL     1      75.226  64.801 111.461  0.00  0.00    +0.000 C 
ATOM     11  C13 UNL     1      75.350  65.686 112.467  0.00  0.00    +0.000 C 
ATOM     12  C14 UNL     1      74.762  67.019 112.369  0.00  0.00    +0.000 C 
ATOM     13  O3  UNL     1      74.766  67.793 113.359  0.00  0.00    +0.000 OA
ATOM     14  C15 UNL     1      74.194  67.454 111.099  0.00  0.00    +0.000 C 
ATOM     15  C16 UNL     1      74.089  66.600 110.082  0.00  0.00    +0.000 C 
ATOM     16  C17 UNL     1      74.330  65.086 110.231  0.00  0.00    +0.000 C 
ATOM     17  C18 UNL     1      72.928  64.482 110.473  0.00  0.00    +0.000 C 
ATOM     18  C19 UNL     1      75.056  64.501 108.940  0.00  0.00    +0.000 C 
ATOM     19  F2  UNL     1      76.186  65.302 108.764  0.00  0.00    +0.000 F 
ATOM     20  C20 UNL     1      74.237  64.598 107.610  0.00  0.00    +0.000 C 
ATOM     21  C21 UNL     1      74.994  63.888 106.466  0.00  0.00    +0.000 C 
ATOM     22  C22 UNL     1      74.978  62.343 106.589  0.00  0.00    +0.000 C 
ATOM     23  C23 UNL     1      76.233  61.820 105.829  0.00  0.00    +0.000 C 
ENDROOT
BRANCH  20  24
ATOM     24  O4  UNL     1      73.975  65.922 107.212  0.00  0.00    +0.000 OA
ATOM     25  H24 UNL     1      74.208  66.526 107.964  0.00  0.00    +0.000 HD
ENDBRANCH  20  24
BRANCH   1  26
ATOM     26  C24 UNL     1      73.718  60.909 104.700  0.00  0.00    +0.000 C 
ATOM     27  O5  UNL     1      74.088  61.523 103.711  0.00  0.00    +0.000 OA
BRANCH  26  28
ATOM     28  S1  UNL     1      73.487  59.134 104.483  0.00  0.00    +0.000 S 
BRANCH  28  29
ATOM     29  C25 UNL     1      75.273  58.751 104.517  0.00  0.00    +0.000 C 
ATOM     30  F3  UNL     1      75.709  58.559 105.811  0.00  0.00    +0.000 F 
ENDBRANCH  28  29
ENDBRANCH  26  28
ENDBRANCH   1  26
BRANCH   1  31
ATOM     31  O2  UNL     1      72.464  62.511 106.153  0.00  0.00    +0.000 OA
BRANCH  31  32
ATOM     32  C3  UNL     1      71.700  63.178 105.178  0.00  0.00    +0.000 C 
ATOM     33  O1  UNL     1      72.172  64.118 104.488  0.00  0.00    +0.000 OA
BRANCH  32  35
ATOM     34  C1  UNL     1      69.979  62.420 103.504  0.00  0.00    +0.000 C 
ATOM     35  C2  UNL     1      70.268  62.789 104.959  0.00  0.00    +0.000 C 
ENDBRANCH  32  35
ENDBRANCH  31  32
ENDBRANCH   1  31
TORSDOF 7
ENDMDL
MODEL 16
REMARK VINA RESULT:      -5.7     11.489     14.384
REMARK  Name = ./S1992.pdb
REMARK  11 active torsions:
REMARK  status: ('A' for Active; 'I' for Inactive)
REMARK    1  A    between atoms: C1_1  and  C2_2
REMARK    2  A    between atoms: C2_2  and  C3_3
REMARK    3  A    between atoms: C3_3  and  O2_5
REMARK    4  A    between atoms: O2_5  and  C4_6
REMARK    5  A    between atoms: C4_6  and  C24_30
REMARK    6  A    between atoms: C5_7  and  C6_8
REMARK    7  A    between atoms: C17_21  and  C18_22
REMARK    8  A    between atoms: C20_25  and  O4_26
REMARK    9  A    between atoms: C22_28  and  C23_29
REMARK   10  A    between atoms: C24_30  and  S1_32
REMARK   11  A    between atoms: S1_32  and  C25_33
REMARK                            x       y       z     vdW  Elec       q    Type
REMARK                         _______ _______ _______ _____ _____    ______ ____
ROOT
ATOM      1  C4  UNL     1      74.002  68.863 108.090  0.00  0.00    +0.000 C 
ATOM      2  C5  UNL     1      75.328  68.366 107.452  0.00  0.00    +0.000 C 
ATOM      3  C6  UNL     1      75.772  69.138 106.195  0.00  0.00    +0.000 C 
ATOM      4  C7  UNL     1      75.093  66.896 107.165  0.00  0.00    +0.000 C 
ATOM      5  C8  UNL     1      74.405  66.384 108.429  0.00  0.00    +0.000 C 
ATOM      6  C9  UNL     1      73.675  64.996 108.302  0.00  0.00    +0.000 C 
ATOM      7  C10 UNL     1      74.604  63.960 107.622  0.00  0.00    +0.000 C 
ATOM      8  C11 UNL     1      73.942  62.605 107.425  0.00  0.00    +0.000 C 
ATOM      9  F1  UNL     1      73.795  61.977 108.652  0.00  0.00    +0.000 F 
ATOM     10  C12 UNL     1      72.600  62.709 106.742  0.00  0.00    +0.000 C 
ATOM     11  C13 UNL     1      72.042  61.562 106.314  0.00  0.00    +0.000 C 
ATOM     12  C14 UNL     1      70.701  61.549 105.738  0.00  0.00    +0.000 C 
ATOM     13  O3  UNL     1      70.237  60.502 105.220  0.00  0.00    +0.000 OA
ATOM     14  C15 UNL     1      69.891  62.760 105.796  0.00  0.00    +0.000 C 
ATOM     15  C16 UNL     1      70.416  63.900 106.243  0.00  0.00    +0.000 C 
ATOM     16  C17 UNL     1      71.923  64.081 106.504  0.00  0.00    +0.000 C 
ATOM     17  C18 UNL     1      72.479  64.702 105.202  0.00  0.00    +0.000 C 
ATOM     18  C19 UNL     1      72.168  64.987 107.790  0.00  0.00    +0.000 C 
ATOM     19  F2  UNL     1      71.425  64.384 108.806  0.00  0.00    +0.000 F 
ATOM     20  C20 UNL     1      71.649  66.459 107.681  0.00  0.00    +0.000 C 
ATOM     21  C21 UNL     1      72.056  67.262 108.936  0.00  0.00    +0.000 C 
ATOM     22  C22 UNL     1      73.569  67.596 108.984  0.00  0.00    +0.000 C 
ATOM     23  C23 UNL     1      73.937  67.791 110.484  0.00  0.00    +0.000 C 
ENDROOT
BRANCH  20  24
ATOM     24  O4  UNL     1      70.253  66.549 107.533  0.00  0.00    +0.000 OA
ATOM     25  H24 UNL     1      70.036  67.429 107.129  0.00  0.00    +0.000 HD
ENDBRANCH  20  24
BRANCH   1  26
ATOM     26  C24 UNL     1      74.331  70.168 108.864  0.00  0.00    +0.000 C 
ATOM     27  O5  UNL     1      73.418  70.885 109.246  0.00  0.00    +0.000 OA
BRANCH  26  28
ATOM     28  S1  UNL     1      75.981  70.638 109.416  0.00  0.00    +0.000 S 
BRANCH  28  29
ATOM     29  C25 UNL     1      75.941  72.279 108.614  0.00  0.00    +0.000 C 
ATOM     30  F3  UNL     1      75.486  73.242 109.490  0.00  0.00    +0.000 F 
ENDBRANCH  28  29
ENDBRANCH  26  28
ENDBRANCH   1  26
BRANCH   1  31
ATOM     31  O2  UNL     1      73.124  69.091 106.958  0.00  0.00    +0.000 OA
BRANCH  31  32
ATOM     32  C3  UNL     1      72.262  70.152 106.625  0.00  0.00    +0.000 C 
ATOM     33  O1  UNL     1      72.631  71.109 105.897  0.00  0.00    +0.000 OA
BRANCH  32  35
ATOM     34  C1  UNL     1      69.823  69.795 106.113  0.00  0.00    +0.000 C 
ATOM     35  C2  UNL     1      70.863  70.174 107.167  0.00  0.00    +0.000 C 
ENDBRANCH  32  35
ENDBRANCH  31  32
ENDBRANCH   1  31
TORSDOF 7
ENDMDL
MODEL 17
REMARK VINA RESULT:      -5.7     10.684     14.188
REMARK  Name = ./S1992.pdb
REMARK  11 active torsions:
REMARK  status: ('A' for Active; 'I' for Inactive)
REMARK    1  A    between atoms: C1_1  and  C2_2
REMARK    2  A    between atoms: C2_2  and  C3_3
REMARK    3  A    between atoms: C3_3  and  O2_5
REMARK    4  A    between atoms: O2_5  and  C4_6
REMARK    5  A    between atoms: C4_6  and  C24_30
REMARK    6  A    between atoms: C5_7  and  C6_8
REMARK    7  A    between atoms: C17_21  and  C18_22
REMARK    8  A    between atoms: C20_25  and  O4_26
REMARK    9  A    between atoms: C22_28  and  C23_29
REMARK   10  A    between atoms: C24_30  and  S1_32
REMARK   11  A    between atoms: S1_32  and  C25_33
REMARK                            x       y       z     vdW  Elec       q    Type
REMARK                         _______ _______ _______ _____ _____    ______ ____
ROOT
ATOM      1  C4  UNL     1      74.845  65.197 109.113  0.00  0.00    +0.000 C 
ATOM      2  C5  UNL     1      75.232  65.991 107.835  0.00  0.00    +0.000 C 
ATOM      3  C6  UNL     1      74.272  67.138 107.468  0.00  0.00    +0.000 C 
ATOM      4  C7  UNL     1      75.318  64.946 106.740  0.00  0.00    +0.000 C 
ATOM      5  C8  UNL     1      76.071  63.791 107.398  0.00  0.00    +0.000 C 
ATOM      6  C9  UNL     1      75.982  62.402 106.662  0.00  0.00    +0.000 C 
ATOM      7  C10 UNL     1      76.277  62.575 105.152  0.00  0.00    +0.000 C 
ATOM      8  C11 UNL     1      76.162  61.275 104.371  0.00  0.00    +0.000 C 
ATOM      9  F1  UNL     1      77.220  60.441 104.695  0.00  0.00    +0.000 F 
ATOM     10  C12 UNL     1      74.855  60.561 104.623  0.00  0.00    +0.000 C 
ATOM     11  C13 UNL     1      74.556  59.531 103.811  0.00  0.00    +0.000 C 
ATOM     12  C14 UNL     1      73.369  58.714 104.042  0.00  0.00    +0.000 C 
ATOM     13  O3  UNL     1      73.022  57.839 103.209  0.00  0.00    +0.000 OA
ATOM     14  C15 UNL     1      72.604  58.903 105.269  0.00  0.00    +0.000 C 
ATOM     15  C16 UNL     1      72.902  59.900 106.100  0.00  0.00    +0.000 C 
ATOM     16  C17 UNL     1      73.886  61.028 105.736  0.00  0.00    +0.000 C 
ATOM     17  C18 UNL     1      72.998  62.168 105.189  0.00  0.00    +0.000 C 
ATOM     18  C19 UNL     1      74.752  61.453 107.003  0.00  0.00    +0.000 C 
ATOM     19  F2  UNL     1      75.308  60.264 107.478  0.00  0.00    +0.000 F 
ATOM     20  C20 UNL     1      73.939  62.064 108.193  0.00  0.00    +0.000 C 
ATOM     21  C21 UNL     1      74.900  62.547 109.302  0.00  0.00    +0.000 C 
ATOM     22  C22 UNL     1      75.678  63.832 108.920  0.00  0.00    +0.000 C 
ATOM     23  C23 UNL     1      76.989  63.829 109.759  0.00  0.00    +0.000 C 
ENDROOT
BRANCH  20  24
ATOM     24  O4  UNL     1      73.024  61.161 108.765  0.00  0.00    +0.000 OA
ATOM     25  H24 UNL     1      72.926  61.383 109.728  0.00  0.00    +0.000 HD
ENDBRANCH  20  24
BRANCH   1  26
ATOM     26  C24 UNL     1      75.239  66.075 110.331  0.00  0.00    +0.000 C 
ATOM     27  O5  UNL     1      75.629  67.218 110.144  0.00  0.00    +0.000 OA
BRANCH  26  28
ATOM     28  S1  UNL     1      74.996  65.599 112.053  0.00  0.00    +0.000 S 
BRANCH  28  29
ATOM     29  C25 UNL     1      74.685  67.304 112.632  0.00  0.00    +0.000 C 
ATOM     30  F3  UNL     1      75.655  67.702 113.527  0.00  0.00    +0.000 F 
ENDBRANCH  28  29
ENDBRANCH  26  28
ENDBRANCH   1  26
BRANCH   1  31
ATOM     31  O2  UNL     1      73.411  65.013 108.997  0.00  0.00    +0.000 OA
BRANCH  31  32
ATOM     32  C3  UNL     1      72.362  65.125 109.929  0.00  0.00    +0.000 C 
ATOM     33  O1  UNL     1      71.997  64.156 110.644  0.00  0.00    +0.000 OA
BRANCH  32  35
ATOM     34  C1  UNL     1      70.607  66.640 108.948  0.00  0.00    +0.000 C 
ATOM     35  C2  UNL     1      71.624  66.424 110.069  0.00  0.00    +0.000 C 
ENDBRANCH  32  35
ENDBRANCH  31  32
ENDBRANCH   1  31
TORSDOF 7
ENDMDL
MODEL 18
REMARK VINA RESULT:      -5.7     11.466     14.050
REMARK  Name = ./S1992.pdb
REMARK  11 active torsions:
REMARK  status: ('A' for Active; 'I' for Inactive)
REMARK    1  A    between atoms: C1_1  and  C2_2
REMARK    2  A    between atoms: C2_2  and  C3_3
REMARK    3  A    between atoms: C3_3  and  O2_5
REMARK    4  A    between atoms: O2_5  and  C4_6
REMARK    5  A    between atoms: C4_6  and  C24_30
REMARK    6  A    between atoms: C5_7  and  C6_8
REMARK    7  A    between atoms: C17_21  and  C18_22
REMARK    8  A    between atoms: C20_25  and  O4_26
REMARK    9  A    between atoms: C22_28  and  C23_29
REMARK   10  A    between atoms: C24_30  and  S1_32
REMARK   11  A    between atoms: S1_32  and  C25_33
REMARK                            x       y       z     vdW  Elec       q    Type
REMARK                         _______ _______ _______ _____ _____    ______ ____
ROOT
ATOM      1  C4  UNL     1      73.905  65.771 107.338  0.00  0.00    +0.000 C 
ATOM      2  C5  UNL     1      74.681  64.783 106.424  0.00  0.00    +0.000 C 
ATOM      3  C6  UNL     1      73.796  63.893 105.532  0.00  0.00    +0.000 C 
ATOM      4  C7  UNL     1      75.537  63.967 107.374  0.00  0.00    +0.000 C 
ATOM      5  C8  UNL     1      76.107  65.008 108.336  0.00  0.00    +0.000 C 
ATOM      6  C9  UNL     1      76.716  64.448 109.675  0.00  0.00    +0.000 C 
ATOM      7  C10 UNL     1      77.674  63.268 109.377  0.00  0.00    +0.000 C 
ATOM      8  C11 UNL     1      78.263  62.648 110.634  0.00  0.00    +0.000 C 
ATOM      9  F1  UNL     1      79.180  63.522 111.198  0.00  0.00    +0.000 F 
ATOM     10  C12 UNL     1      77.209  62.290 111.653  0.00  0.00    +0.000 C 
ATOM     11  C13 UNL     1      77.598  61.529 112.693  0.00  0.00    +0.000 C 
ATOM     12  C14 UNL     1      76.677  61.219 113.782  0.00  0.00    +0.000 C 
ATOM     13  O3  UNL     1      77.002  60.403 114.681  0.00  0.00    +0.000 OA
ATOM     14  C15 UNL     1      75.384  61.891 113.832  0.00  0.00    +0.000 C 
ATOM     15  C16 UNL     1      74.992  62.671 112.826  0.00  0.00    +0.000 C 
ATOM     16  C17 UNL     1      75.737  62.738 111.480  0.00  0.00    +0.000 C 
ATOM     17  C18 UNL     1      75.003  61.729 110.569  0.00  0.00    +0.000 C 
ATOM     18  C19 UNL     1      75.735  64.225 110.907  0.00  0.00    +0.000 C 
ATOM     19  F2  UNL     1      76.238  65.014 111.943  0.00  0.00    +0.000 F 
ATOM     20  C20 UNL     1      74.324  64.805 110.559  0.00  0.00    +0.000 C 
ATOM     21  C21 UNL     1      74.467  66.194 109.901  0.00  0.00    +0.000 C 
ATOM     22  C22 UNL     1      75.012  66.131 108.451  0.00  0.00    +0.000 C 
ATOM     23  C23 UNL     1      75.693  67.503 108.168  0.00  0.00    +0.000 C 
ENDROOT
BRANCH  20  24
ATOM     24  O4  UNL     1      73.481  64.931 111.678  0.00  0.00    +0.000 OA
ATOM     25  H24 UNL     1      73.935  64.520 112.460  0.00  0.00    +0.000 HD
ENDBRANCH  20  24
BRANCH   1  26
ATOM     26  C24 UNL     1      73.429  66.943 106.439  0.00  0.00    +0.000 C 
ATOM     27  O5  UNL     1      73.332  66.773 105.233  0.00  0.00    +0.000 OA
BRANCH  26  28
ATOM     28  S1  UNL     1      72.820  68.523 107.060  0.00  0.00    +0.000 S 
BRANCH  28  29
ATOM     29  C25 UNL     1      71.443  68.628 105.864  0.00  0.00    +0.000 C 
ATOM     30  F3  UNL     1      70.235  68.396 106.486  0.00  0.00    +0.000 F 
ENDBRANCH  28  29
ENDBRANCH  26  28
ENDBRANCH   1  26
BRANCH   1  31
ATOM     31  O2  UNL     1      72.804  64.984 107.860  0.00  0.00    +0.000 OA
BRANCH  31  32
ATOM     32  C3  UNL     1      71.427  65.245 107.986  0.00  0.00    +0.000 C 
ATOM     33  O1  UNL     1      70.650  65.221 106.997  0.00  0.00    +0.000 OA
BRANCH  32  35
ATOM     34  C1  UNL     1      70.612  67.094 109.488  0.00  0.00    +0.000 C 
ATOM     35  C2  UNL     1      70.854  65.593 109.328  0.00  0.00    +0.000 C 
ENDBRANCH  32  35
ENDBRANCH  31  32
ENDBRANCH   1  31
TORSDOF 7
ENDMDL
MODEL 19
REMARK VINA RESULT:      -5.6     14.675     16.826
REMARK  Name = ./S1992.pdb
REMARK  11 active torsions:
REMARK  status: ('A' for Active; 'I' for Inactive)
REMARK    1  A    between atoms: C1_1  and  C2_2
REMARK    2  A    between atoms: C2_2  and  C3_3
REMARK    3  A    between atoms: C3_3  and  O2_5
REMARK    4  A    between atoms: O2_5  and  C4_6
REMARK    5  A    between atoms: C4_6  and  C24_30
REMARK    6  A    between atoms: C5_7  and  C6_8
REMARK    7  A    between atoms: C17_21  and  C18_22
REMARK    8  A    between atoms: C20_25  and  O4_26
REMARK    9  A    between atoms: C22_28  and  C23_29
REMARK   10  A    between atoms: C24_30  and  S1_32
REMARK   11  A    between atoms: S1_32  and  C25_33
REMARK                            x       y       z     vdW  Elec       q    Type
REMARK                         _______ _______ _______ _____ _____    ______ ____
ROOT
ATOM      1  C4  UNL     1      76.305  60.175 115.558  0.00  0.00    +0.000 C 
ATOM      2  C5  UNL     1      77.182  60.760 114.415  0.00  0.00    +0.000 C 
ATOM      3  C6  UNL     1      78.692  60.800 114.713  0.00  0.00    +0.000 C 
ATOM      4  C7  UNL     1      76.613  62.142 114.160  0.00  0.00    +0.000 C 
ATOM      5  C8  UNL     1      75.102  61.922 114.171  0.00  0.00    +0.000 C 
ATOM      6  C9  UNL     1      74.218  63.215 114.328  0.00  0.00    +0.000 C 
ATOM      7  C10 UNL     1      74.692  64.312 113.344  0.00  0.00    +0.000 C 
ATOM      8  C11 UNL     1      73.909  65.609 113.476  0.00  0.00    +0.000 C 
ATOM      9  F1  UNL     1      72.626  65.430 112.983  0.00  0.00    +0.000 F 
ATOM     10  C12 UNL     1      73.843  66.105 114.900  0.00  0.00    +0.000 C 
ATOM     11  C13 UNL     1      73.378  67.352 115.092  0.00  0.00    +0.000 C 
ATOM     12  C14 UNL     1      73.177  67.880 116.438  0.00  0.00    +0.000 C 
ATOM     13  O3  UNL     1      72.870  69.086 116.613  0.00  0.00    +0.000 OA
ATOM     14  C15 UNL     1      73.309  66.983 117.580  0.00  0.00    +0.000 C 
ATOM     15  C16 UNL     1      73.741  65.734 117.408  0.00  0.00    +0.000 C 
ATOM     16  C17 UNL     1      74.334  65.230 116.079  0.00  0.00    +0.000 C 
ATOM     17  C18 UNL     1      75.862  65.402 116.236  0.00  0.00    +0.000 C 
ATOM     18  C19 UNL     1      73.894  63.725 115.800  0.00  0.00    +0.000 C 
ATOM     19  F2  UNL     1      72.502  63.729 115.903  0.00  0.00    +0.000 F 
ATOM     20  C20 UNL     1      74.408  62.673 116.839  0.00  0.00    +0.000 C 
ATOM     21  C21 UNL     1      74.020  61.248 116.389  0.00  0.00    +0.000 C 
ATOM     22  C22 UNL     1      74.846  60.742 115.179  0.00  0.00    +0.000 C 
ATOM     23  C23 UNL     1      73.976  59.670 114.459  0.00  0.00    +0.000 C 
ENDROOT
BRANCH  20  24
ATOM     24  O4  UNL     1      73.905  62.880 118.136  0.00  0.00    +0.000 OA
ATOM     25  H24 UNL     1      73.857  63.857 118.302  0.00  0.00    +0.000 HD
ENDBRANCH  20  24
BRANCH   1  26
ATOM     26  C24 UNL     1      76.474  58.633 115.516  0.00  0.00    +0.000 C 
ATOM     27  O5  UNL     1      77.352  58.144 114.821  0.00  0.00    +0.000 OA
BRANCH  26  28
ATOM     28  S1  UNL     1      75.576  57.479 116.571  0.00  0.00    +0.000 S 
BRANCH  28  29
ATOM     29  C25 UNL     1      75.865  56.037 115.487  0.00  0.00    +0.000 C 
ATOM     30  F3  UNL     1      74.737  55.744 114.750  0.00  0.00    +0.000 F 
ENDBRANCH  28  29
ENDBRANCH  26  28
ENDBRANCH   1  26
BRANCH   1  31
ATOM     31  O2  UNL     1      76.852  60.765 116.765  0.00  0.00    +0.000 OA
BRANCH  31  32
ATOM     32  C3  UNL     1      77.207  60.217 118.012  0.00  0.00    +0.000 C 
ATOM     33  O1  UNL     1      76.351  59.956 118.895  0.00  0.00    +0.000 OA
BRANCH  32  35
ATOM     34  C1  UNL     1      79.073  58.527 117.983  0.00  0.00    +0.000 C 
ATOM     35  C2  UNL     1      78.651  59.955 118.327  0.00  0.00    +0.000 C 
ENDBRANCH  32  35
ENDBRANCH  31  32
ENDBRANCH   1  31
TORSDOF 7
ENDMDL
MODEL 20
REMARK VINA RESULT:      -5.6     10.184     13.241
REMARK  Name = ./S1992.pdb
REMARK  11 active torsions:
REMARK  status: ('A' for Active; 'I' for Inactive)
REMARK    1  A    between atoms: C1_1  and  C2_2
REMARK    2  A    between atoms: C2_2  and  C3_3
REMARK    3  A    between atoms: C3_3  and  O2_5
REMARK    4  A    between atoms: O2_5  and  C4_6
REMARK    5  A    between atoms: C4_6  and  C24_30
REMARK    6  A    between atoms: C5_7  and  C6_8
REMARK    7  A    between atoms: C17_21  and  C18_22
REMARK    8  A    between atoms: C20_25  and  O4_26
REMARK    9  A    between atoms: C22_28  and  C23_29
REMARK   10  A    between atoms: C24_30  and  S1_32
REMARK   11  A    between atoms: S1_32  and  C25_33
REMARK                            x       y       z     vdW  Elec       q    Type
REMARK                         _______ _______ _______ _____ _____    ______ ____
ROOT
ATOM      1  C4  UNL     1      73.087  65.955 108.158  0.00  0.00    +0.000 C 
ATOM      2  C5  UNL     1      71.646  65.574 108.598  0.00  0.00    +0.000 C 
ATOM      3  C6  UNL     1      71.410  65.580 110.120  0.00  0.00    +0.000 C 
ATOM      4  C7  UNL     1      71.404  64.207 107.989  0.00  0.00    +0.000 C 
ATOM      5  C8  UNL     1      71.952  64.339 106.569  0.00  0.00    +0.000 C 
ATOM      6  C9  UNL     1      72.212  62.989 105.802  0.00  0.00    +0.000 C 
ATOM      7  C10 UNL     1      70.981  62.057 105.923  0.00  0.00    +0.000 C 
ATOM      8  C11 UNL     1      71.184  60.713 105.242  0.00  0.00    +0.000 C 
ATOM      9  F1  UNL     1      71.181  60.883 103.866  0.00  0.00    +0.000 F 
ATOM     10  C12 UNL     1      72.464  60.033 105.668  0.00  0.00    +0.000 C 
ATOM     11  C13 UNL     1      72.622  58.747 105.306  0.00  0.00    +0.000 C 
ATOM     12  C14 UNL     1      73.868  58.039 105.580  0.00  0.00    +0.000 C 
ATOM     13  O3  UNL     1      73.964  56.805 105.361  0.00  0.00    +0.000 OA
ATOM     14  C15 UNL     1      75.014  58.786 106.084  0.00  0.00    +0.000 C 
ATOM     15  C16 UNL     1      74.885  60.069 106.422  0.00  0.00    +0.000 C 
ATOM     16  C17 UNL     1      73.520  60.774 106.524  0.00  0.00    +0.000 C 
ATOM     17  C18 UNL     1      73.129  60.668 108.015  0.00  0.00    +0.000 C 
ATOM     18  C19 UNL     1      73.620  62.275 106.002  0.00  0.00    +0.000 C 
ATOM     19  F2  UNL     1      74.183  62.180 104.728  0.00  0.00    +0.000 F 
ATOM     20  C20 UNL     1      74.563  63.210 106.830  0.00  0.00    +0.000 C 
ATOM     21  C21 UNL     1      74.476  64.658 106.301  0.00  0.00    +0.000 C 
ATOM     22  C22 UNL     1      73.143  65.362 106.662  0.00  0.00    +0.000 C 
ATOM     23  C23 UNL     1      72.916  66.468 105.590  0.00  0.00    +0.000 C 
ENDROOT
BRANCH  20  24
ATOM     24  O4  UNL     1      75.912  62.809 106.800  0.00  0.00    +0.000 OA
ATOM     25  H24 UNL     1      75.984  61.921 107.238  0.00  0.00    +0.000 HD
ENDBRANCH  20  24
BRANCH   1  26
ATOM     26  C24 UNL     1      73.209  67.497 108.289  0.00  0.00    +0.000 C 
ATOM     27  O5  UNL     1      72.310  68.126 108.828  0.00  0.00    +0.000 OA
BRANCH  26  28
ATOM     28  S1  UNL     1      74.682  68.444 107.862  0.00  0.00    +0.000 S 
BRANCH  28  29
ATOM     29  C25 UNL     1      74.095  69.987 108.644  0.00  0.00    +0.000 C 
ATOM     30  F3  UNL     1      74.861  70.301 109.746  0.00  0.00    +0.000 F 
ENDBRANCH  28  29
ENDBRANCH  26  28
ENDBRANCH   1  26
BRANCH   1  31
ATOM     31  O2  UNL     1      73.944  65.245 109.088  0.00  0.00    +0.000 OA
BRANCH  31  32
ATOM     32  C3  UNL     1      75.087  65.634 109.810  0.00  0.00    +0.000 C 
ATOM     33  O1  UNL     1      76.226  65.687 109.280  0.00  0.00    +0.000 OA
BRANCH  32  35
ATOM     34  C1  UNL     1      75.002  67.481 111.520  0.00  0.00    +0.000 C 
ATOM     35  C2  UNL     1      74.968  65.973 111.267  0.00  0.00    +0.000 C 
ENDBRANCH  32  35
ENDBRANCH  31  32
ENDBRANCH   1  31
TORSDOF 7
ENDMDL
