MODEL 1
REMARK VINA RESULT:      -6.7      0.000      0.000
REMARK  Name = ./S2077.pdb
REMARK  16 active torsions:
REMARK  status: ('A' for Active; 'I' for Inactive)
REMARK    1  A    between atoms: C1_1  and  C2_2
REMARK    2  A    between atoms: C2_2  and  C3_3
REMARK    3  A    between atoms: C2_2  and  C4_4
REMARK    4  A    between atoms: C5_5  and  C6_6
REMARK    5  A    between atoms: N1_8  and  C7_9
REMARK    6  A    between atoms: C13_15  and  C28_36
REMARK    7  A    between atoms: C14_16  and  C22_29
REMARK    8  A    between atoms: N2_17  and  C15_18
REMARK    9  A    between atoms: C15_18  and  C16_19
REMARK   10  A    between atoms: C16_19  and  C17_20
REMARK   11  A    between atoms: C17_20  and  O2_21
REMARK   12  A    between atoms: C17_20  and  C18_22
REMARK   13  A    between atoms: C18_22  and  C19_23
REMARK   14  A    between atoms: C19_23  and  O3_24
REMARK   15  A    between atoms: C19_23  and  C20_25
REMARK   16  A    between atoms: C20_25  and  C21_26
REMARK                            x       y       z     vdW  Elec       q    Type
REMARK                         _______ _______ _______ _____ _____    ______ ____
ROOT
ATOM      1  C4  UNL     1      74.494  65.797 107.382  0.00  0.00    +0.000 A 
ATOM      2  C5  UNL     1      74.905  64.535 107.828  0.00  0.00    +0.000 A 
ATOM      3  C13 UNL     1      74.112  63.601 107.181  0.00  0.00    +0.000 A 
ATOM      4  C14 UNL     1      73.259  64.313 106.356  0.00  0.00    +0.000 A 
ATOM      5  N2  UNL     1      73.483  65.643 106.482  0.00  0.00    +0.000 N 
ENDROOT
BRANCH   4   6
ATOM      6  C22 UNL     1      72.310  63.707 105.400  0.00  0.00    +0.000 A 
ATOM      7  C23 UNL     1      72.675  63.516 104.058  0.00  0.00    +0.000 A 
ATOM      8  C24 UNL     1      71.765  62.959 103.156  0.00  0.00    +0.000 A 
ATOM      9  C25 UNL     1      70.484  62.601 103.585  0.00  0.00    +0.000 A 
ATOM     10  F1  UNL     1      69.603  62.054 102.710  0.00  0.00    +0.000 F 
ATOM     11  C26 UNL     1      70.112  62.807 104.916  0.00  0.00    +0.000 A 
ATOM     12  C27 UNL     1      71.020  63.357 105.823  0.00  0.00    +0.000 A 
ENDBRANCH   4   6
BRANCH   3  13
ATOM     13  C28 UNL     1      74.159  62.129 107.343  0.00  0.00    +0.000 A 
ATOM     14  C29 UNL     1      74.959  61.341 106.497  0.00  0.00    +0.000 A 
ATOM     15  C30 UNL     1      74.983  59.951 106.645  0.00  0.00    +0.000 A 
ATOM     16  C31 UNL     1      74.208  59.337 107.633  0.00  0.00    +0.000 A 
ATOM     17  C32 UNL     1      73.411  60.112 108.477  0.00  0.00    +0.000 A 
ATOM     18  C33 UNL     1      73.388  61.502 108.337  0.00  0.00    +0.000 A 
ENDBRANCH   3  13
BRANCH   2  19
ATOM     19  C6  UNL     1      75.909  64.218 108.856  0.00  0.00    +0.000 C 
ATOM     20  O1  UNL     1      77.126  64.428 108.608  0.00  0.00    +0.000 OA
ATOM     21  N1  UNL     1      75.494  63.789 110.162  0.00  0.00    +0.000 N 
ATOM     22  H8  UNL     1      74.527  64.049 110.462  0.00  0.00    +0.000 HD
BRANCH  21  23
ATOM     23  C7  UNL     1      76.329  63.079 111.096  0.00  0.00    +0.000 A 
ATOM     24  C8  UNL     1      76.442  63.472 112.445  0.00  0.00    +0.000 A 
ATOM     25  C9  UNL     1      77.297  62.783 113.313  0.00  0.00    +0.000 A 
ATOM     26  C10 UNL     1      78.053  61.708 112.842  0.00  0.00    +0.000 A 
ATOM     27  C11 UNL     1      77.961  61.322 111.503  0.00  0.00    +0.000 A 
ATOM     28  C12 UNL     1      77.109  62.008 110.633  0.00  0.00    +0.000 A 
ENDBRANCH  21  23
ENDBRANCH   2  19
BRANCH   1  30
ATOM     29  C1  UNL     1      76.411  67.471 107.297  0.00  0.00    +0.000 C 
ATOM     30  C2  UNL     1      75.019  67.150 107.856  0.00  0.00    +0.000 C 
ATOM     31  C3  UNL     1      74.984  67.273 109.382  0.00  0.00    +0.000 C 
ENDBRANCH   1  30
BRANCH   5  32
ATOM     32  C15 UNL     1      72.821  66.696 105.696  0.00  0.00    +0.000 C 
BRANCH  32  33
ATOM     33  C16 UNL     1      72.117  67.697 106.627  0.00  0.00    +0.000 C 
BRANCH  33  34
ATOM     34  C17 UNL     1      70.638  67.348 106.940  0.00  0.00    +0.000 C 
BRANCH  34  35
ATOM     35  O2  UNL     1      69.930  68.457 107.434  0.00  0.00    +0.000 OA
ATOM     36  H19 UNL     1      69.032  68.439 107.011  0.00  0.00    +0.000 HD
ENDBRANCH  34  35
BRANCH  34  37
ATOM     37  C18 UNL     1      70.470  66.137 107.887  0.00  0.00    +0.000 C 
BRANCH  37  38
ATOM     38  C19 UNL     1      71.124  66.284 109.283  0.00  0.00    +0.000 C 
BRANCH  38  39
ATOM     39  O3  UNL     1      70.231  66.869 110.200  0.00  0.00    +0.000 OA
ATOM     40  H23 UNL     1      69.312  66.743 109.844  0.00  0.00    +0.000 HD
ENDBRANCH  38  39
BRANCH  38  41
ATOM     41  C20 UNL     1      71.612  64.928 109.836  0.00  0.00    +0.000 C 
BRANCH  41  42
ATOM     42  C21 UNL     1      72.396  65.073 111.103  0.00  0.00    +0.000 C 
ATOM     43  O4  UNL     1      72.895  63.946 111.745  0.00  0.00    +0.000 OA
ATOM     44  O5  UNL     1      72.591  66.213 111.602  0.00  0.00    +0.000 OA
ENDBRANCH  41  42
ENDBRANCH  38  41
ENDBRANCH  37  38
ENDBRANCH  34  37
ENDBRANCH  33  34
ENDBRANCH  32  33
ENDBRANCH   5  32
TORSDOF 14
ENDMDL
MODEL 2
REMARK VINA RESULT:      -6.5     11.508     15.966
REMARK  Name = ./S2077.pdb
REMARK  16 active torsions:
REMARK  status: ('A' for Active; 'I' for Inactive)
REMARK    1  A    between atoms: C1_1  and  C2_2
REMARK    2  A    between atoms: C2_2  and  C3_3
REMARK    3  A    between atoms: C2_2  and  C4_4
REMARK    4  A    between atoms: C5_5  and  C6_6
REMARK    5  A    between atoms: N1_8  and  C7_9
REMARK    6  A    between atoms: C13_15  and  C28_36
REMARK    7  A    between atoms: C14_16  and  C22_29
REMARK    8  A    between atoms: N2_17  and  C15_18
REMARK    9  A    between atoms: C15_18  and  C16_19
REMARK   10  A    between atoms: C16_19  and  C17_20
REMARK   11  A    between atoms: C17_20  and  O2_21
REMARK   12  A    between atoms: C17_20  and  C18_22
REMARK   13  A    between atoms: C18_22  and  C19_23
REMARK   14  A    between atoms: C19_23  and  O3_24
REMARK   15  A    between atoms: C19_23  and  C20_25
REMARK   16  A    between atoms: C20_25  and  C21_26
REMARK                            x       y       z     vdW  Elec       q    Type
REMARK                         _______ _______ _______ _____ _____    ______ ____
ROOT
ATOM      1  C4  UNL     1      60.359  55.792 104.106  0.00  0.00    +0.000 A 
ATOM      2  C5  UNL     1      60.872  56.449 102.981  0.00  0.00    +0.000 A 
ATOM      3  C13 UNL     1      61.866  57.304 103.431  0.00  0.00    +0.000 A 
ATOM      4  C14 UNL     1      61.939  57.135 104.802  0.00  0.00    +0.000 A 
ATOM      5  N2  UNL     1      61.022  56.226 105.214  0.00  0.00    +0.000 N 
ENDROOT
BRANCH   4   6
ATOM      6  C22 UNL     1      62.940  57.776 105.679  0.00  0.00    +0.000 A 
ATOM      7  C23 UNL     1      62.772  59.104 106.099  0.00  0.00    +0.000 A 
ATOM      8  C24 UNL     1      63.733  59.708 106.914  0.00  0.00    +0.000 A 
ATOM      9  C25 UNL     1      64.870  58.996 107.302  0.00  0.00    +0.000 A 
ATOM     10  F1  UNL     1      65.800  59.580 108.099  0.00  0.00    +0.000 F 
ATOM     11  C26 UNL     1      65.049  57.679 106.870  0.00  0.00    +0.000 A 
ATOM     12  C27 UNL     1      64.088  57.068 106.062  0.00  0.00    +0.000 A 
ENDBRANCH   4   6
BRANCH   3  13
ATOM     13  C28 UNL     1      62.685  58.226 102.609  0.00  0.00    +0.000 A 
ATOM     14  C29 UNL     1      63.854  57.772 101.975  0.00  0.00    +0.000 A 
ATOM     15  C30 UNL     1      64.632  58.653 101.218  0.00  0.00    +0.000 A 
ATOM     16  C31 UNL     1      64.252  59.993 101.091  0.00  0.00    +0.000 A 
ATOM     17  C32 UNL     1      63.092  60.451 101.718  0.00  0.00    +0.000 A 
ATOM     18  C33 UNL     1      62.309  59.573 102.471  0.00  0.00    +0.000 A 
ENDBRANCH   3  13
BRANCH   2  19
ATOM     19  C6  UNL     1      60.410  56.357 101.587  0.00  0.00    +0.000 C 
ATOM     20  O1  UNL     1      60.866  55.441 100.851  0.00  0.00    +0.000 OA
ATOM     21  N1  UNL     1      59.369  57.223 101.112  0.00  0.00    +0.000 N 
ATOM     22  H8  UNL     1      58.731  57.637 101.829  0.00  0.00    +0.000 HD
BRANCH  21  23
ATOM     23  C7  UNL     1      59.114  57.516  99.725  0.00  0.00    +0.000 A 
ATOM     24  C8  UNL     1      57.878  57.225  99.115  0.00  0.00    +0.000 A 
ATOM     25  C9  UNL     1      57.681  57.485  97.754  0.00  0.00    +0.000 A 
ATOM     26  C10 UNL     1      58.717  58.025  96.989  0.00  0.00    +0.000 A 
ATOM     27  C11 UNL     1      59.952  58.301  97.581  0.00  0.00    +0.000 A 
ATOM     28  C12 UNL     1      60.152  58.043  98.939  0.00  0.00    +0.000 A 
ENDBRANCH  21  23
ENDBRANCH   2  19
BRANCH   1  30
ATOM     29  C1  UNL     1      59.588  53.422 103.589  0.00  0.00    +0.000 C 
ATOM     30  C2  UNL     1      59.199  54.801 104.136  0.00  0.00    +0.000 C 
ATOM     31  C3  UNL     1      57.956  55.354 103.434  0.00  0.00    +0.000 C 
ENDBRANCH   1  30
BRANCH   5  32
ATOM     32  C15 UNL     1      60.871  55.734 106.592  0.00  0.00    +0.000 C 
BRANCH  32  33
ATOM     33  C16 UNL     1      60.148  56.778 107.458  0.00  0.00    +0.000 C 
BRANCH  33  34
ATOM     34  C17 UNL     1      60.961  57.263 108.688  0.00  0.00    +0.000 C 
BRANCH  34  35
ATOM     35  O2  UNL     1      61.395  56.192 109.488  0.00  0.00    +0.000 OA
ATOM     36  H19 UNL     1      60.617  55.904 110.033  0.00  0.00    +0.000 HD
ENDBRANCH  34  35
BRANCH  34  37
ATOM     37  C18 UNL     1      60.221  58.312 109.550  0.00  0.00    +0.000 C 
BRANCH  37  38
ATOM     38  C19 UNL     1      61.031  58.900 110.732  0.00  0.00    +0.000 C 
BRANCH  38  39
ATOM     39  O3  UNL     1      61.319  57.911 111.689  0.00  0.00    +0.000 OA
ATOM     40  H23 UNL     1      62.079  57.371 111.343  0.00  0.00    +0.000 HD
ENDBRANCH  38  39
BRANCH  38  41
ATOM     41  C20 UNL     1      62.348  59.554 110.258  0.00  0.00    +0.000 C 
BRANCH  41  42
ATOM     42  C21 UNL     1      63.559  58.868 110.809  0.00  0.00    +0.000 C 
ATOM     43  O4  UNL     1      64.217  59.400 111.912  0.00  0.00    +0.000 OA
ATOM     44  O5  UNL     1      63.997  57.819 110.267  0.00  0.00    +0.000 OA
ENDBRANCH  41  42
ENDBRANCH  38  41
ENDBRANCH  37  38
ENDBRANCH  34  37
ENDBRANCH  33  34
ENDBRANCH  32  33
ENDBRANCH   5  32
TORSDOF 14
ENDMDL
MODEL 3
REMARK VINA RESULT:      -6.5      3.952      8.488
REMARK  Name = ./S2077.pdb
REMARK  16 active torsions:
REMARK  status: ('A' for Active; 'I' for Inactive)
REMARK    1  A    between atoms: C1_1  and  C2_2
REMARK    2  A    between atoms: C2_2  and  C3_3
REMARK    3  A    between atoms: C2_2  and  C4_4
REMARK    4  A    between atoms: C5_5  and  C6_6
REMARK    5  A    between atoms: N1_8  and  C7_9
REMARK    6  A    between atoms: C13_15  and  C28_36
REMARK    7  A    between atoms: C14_16  and  C22_29
REMARK    8  A    between atoms: N2_17  and  C15_18
REMARK    9  A    between atoms: C15_18  and  C16_19
REMARK   10  A    between atoms: C16_19  and  C17_20
REMARK   11  A    between atoms: C17_20  and  O2_21
REMARK   12  A    between atoms: C17_20  and  C18_22
REMARK   13  A    between atoms: C18_22  and  C19_23
REMARK   14  A    between atoms: C19_23  and  O3_24
REMARK   15  A    between atoms: C19_23  and  C20_25
REMARK   16  A    between atoms: C20_25  and  C21_26
REMARK                            x       y       z     vdW  Elec       q    Type
REMARK                         _______ _______ _______ _____ _____    ______ ____
ROOT
ATOM      1  C4  UNL     1      73.548  64.014 108.570  0.00  0.00    +0.000 A 
ATOM      2  C5  UNL     1      73.329  65.087 109.442  0.00  0.00    +0.000 A 
ATOM      3  C13 UNL     1      74.055  64.827 110.594  0.00  0.00    +0.000 A 
ATOM      4  C14 UNL     1      74.699  63.619 110.388  0.00  0.00    +0.000 A 
ATOM      5  N2  UNL     1      74.388  63.122 109.166  0.00  0.00    +0.000 N 
ENDROOT
BRANCH   4   6
ATOM      6  C22 UNL     1      75.668  63.011 111.321  0.00  0.00    +0.000 A 
ATOM      7  C23 UNL     1      75.225  62.208 112.384  0.00  0.00    +0.000 A 
ATOM      8  C24 UNL     1      76.147  61.650 113.273  0.00  0.00    +0.000 A 
ATOM      9  C25 UNL     1      77.513  61.900 113.114  0.00  0.00    +0.000 A 
ATOM     10  F1  UNL     1      78.409  61.353 113.974  0.00  0.00    +0.000 F 
ATOM     11  C26 UNL     1      77.956  62.714 112.068  0.00  0.00    +0.000 A 
ATOM     12  C27 UNL     1      77.038  63.267 111.172  0.00  0.00    +0.000 A 
ENDBRANCH   4   6
BRANCH   3  13
ATOM     13  C28 UNL     1      74.122  65.667 111.812  0.00  0.00    +0.000 A 
ATOM     14  C29 UNL     1      75.137  66.628 111.963  0.00  0.00    +0.000 A 
ATOM     15  C30 UNL     1      75.205  67.404 113.124  0.00  0.00    +0.000 A 
ATOM     16  C31 UNL     1      74.266  67.225 114.144  0.00  0.00    +0.000 A 
ATOM     17  C32 UNL     1      73.255  66.273 114.001  0.00  0.00    +0.000 A 
ATOM     18  C33 UNL     1      73.179  65.499 112.841  0.00  0.00    +0.000 A 
ENDBRANCH   3  13
BRANCH   2  19
ATOM     19  C6  UNL     1      72.435  66.241 109.256  0.00  0.00    +0.000 C 
ATOM     20  O1  UNL     1      71.320  66.251 109.844  0.00  0.00    +0.000 OA
ATOM     21  N1  UNL     1      72.878  67.386 108.513  0.00  0.00    +0.000 N 
ATOM     22  H8  UNL     1      73.910  67.529 108.430  0.00  0.00    +0.000 HD
BRANCH  21  23
ATOM     23  C7  UNL     1      72.006  68.370 107.924  0.00  0.00    +0.000 A 
ATOM     24  C8  UNL     1      70.991  68.018 107.012  0.00  0.00    +0.000 A 
ATOM     25  C9  UNL     1      70.191  69.006 106.427  0.00  0.00    +0.000 A 
ATOM     26  C10 UNL     1      70.404  70.351 106.737  0.00  0.00    +0.000 A 
ATOM     27  C11 UNL     1      71.419  70.711 107.626  0.00  0.00    +0.000 A 
ATOM     28  C12 UNL     1      72.220  69.727 108.212  0.00  0.00    +0.000 A 
ENDBRANCH  21  23
ENDBRANCH   2  19
BRANCH   1  30
ATOM     29  C1  UNL     1      73.409  64.815 106.158  0.00  0.00    +0.000 C 
ATOM     30  C2  UNL     1      72.911  63.804 107.199  0.00  0.00    +0.000 C 
ATOM     31  C3  UNL     1      71.381  63.785 107.277  0.00  0.00    +0.000 C 
ENDBRANCH   1  30
BRANCH   5  32
ATOM     32  C15 UNL     1      74.955  61.900 108.575  0.00  0.00    +0.000 C 
BRANCH  32  33
ATOM     33  C16 UNL     1      74.291  60.653 109.180  0.00  0.00    +0.000 C 
BRANCH  33  34
ATOM     34  C17 UNL     1      73.872  59.582 108.138  0.00  0.00    +0.000 C 
BRANCH  34  35
ATOM     35  O2  UNL     1      74.156  58.279 108.579  0.00  0.00    +0.000 OA
ATOM     36  H19 UNL     1      73.721  57.655 107.941  0.00  0.00    +0.000 HD
ENDBRANCH  34  35
BRANCH  34  37
ATOM     37  C18 UNL     1      74.468  59.815 106.730  0.00  0.00    +0.000 C 
BRANCH  37  38
ATOM     38  C19 UNL     1      74.025  58.807 105.641  0.00  0.00    +0.000 C 
BRANCH  38  39
ATOM     39  O3  UNL     1      74.579  57.535 105.873  0.00  0.00    +0.000 OA
ATOM     40  H23 UNL     1      74.410  57.305 106.825  0.00  0.00    +0.000 HD
ENDBRANCH  38  39
BRANCH  38  41
ATOM     41  C20 UNL     1      72.487  58.690 105.556  0.00  0.00    +0.000 C 
BRANCH  41  42
ATOM     42  C21 UNL     1      72.001  57.304 105.846  0.00  0.00    +0.000 C 
ATOM     43  O4  UNL     1      71.897  56.864 107.160  0.00  0.00    +0.000 OA
ATOM     44  O5  UNL     1      71.701  56.526 104.902  0.00  0.00    +0.000 OA
ENDBRANCH  41  42
ENDBRANCH  38  41
ENDBRANCH  37  38
ENDBRANCH  34  37
ENDBRANCH  33  34
ENDBRANCH  32  33
ENDBRANCH   5  32
TORSDOF 14
ENDMDL
MODEL 4
REMARK VINA RESULT:      -6.5      3.770      8.154
REMARK  Name = ./S2077.pdb
REMARK  16 active torsions:
REMARK  status: ('A' for Active; 'I' for Inactive)
REMARK    1  A    between atoms: C1_1  and  C2_2
REMARK    2  A    between atoms: C2_2  and  C3_3
REMARK    3  A    between atoms: C2_2  and  C4_4
REMARK    4  A    between atoms: C5_5  and  C6_6
REMARK    5  A    between atoms: N1_8  and  C7_9
REMARK    6  A    between atoms: C13_15  and  C28_36
REMARK    7  A    between atoms: C14_16  and  C22_29
REMARK    8  A    between atoms: N2_17  and  C15_18
REMARK    9  A    between atoms: C15_18  and  C16_19
REMARK   10  A    between atoms: C16_19  and  C17_20
REMARK   11  A    between atoms: C17_20  and  O2_21
REMARK   12  A    between atoms: C17_20  and  C18_22
REMARK   13  A    between atoms: C18_22  and  C19_23
REMARK   14  A    between atoms: C19_23  and  O3_24
REMARK   15  A    between atoms: C19_23  and  C20_25
REMARK   16  A    between atoms: C20_25  and  C21_26
REMARK                            x       y       z     vdW  Elec       q    Type
REMARK                         _______ _______ _______ _____ _____    ______ ____
ROOT
ATOM      1  C4  UNL     1      73.468  64.124 108.556  0.00  0.00    +0.000 A 
ATOM      2  C5  UNL     1      73.264  65.192 109.438  0.00  0.00    +0.000 A 
ATOM      3  C13 UNL     1      73.998  64.918 110.582  0.00  0.00    +0.000 A 
ATOM      4  C14 UNL     1      74.634  63.708 110.360  0.00  0.00    +0.000 A 
ATOM      5  N2  UNL     1      74.308  63.222 109.138  0.00  0.00    +0.000 N 
ENDROOT
BRANCH   4   6
ATOM      6  C22 UNL     1      75.606  63.087 111.281  0.00  0.00    +0.000 A 
ATOM      7  C23 UNL     1      76.982  63.310 111.119  0.00  0.00    +0.000 A 
ATOM      8  C24 UNL     1      77.898  62.703 111.984  0.00  0.00    +0.000 A 
ATOM      9  C25 UNL     1      77.445  61.863 113.005  0.00  0.00    +0.000 A 
ATOM     10  F1  UNL     1      78.334  61.280 113.849  0.00  0.00    +0.000 F 
ATOM     11  C26 UNL     1      76.077  61.625 113.157  0.00  0.00    +0.000 A 
ATOM     12  C27 UNL     1      75.158  62.234 112.300  0.00  0.00    +0.000 A 
ENDBRANCH   4   6
BRANCH   3  13
ATOM     13  C28 UNL     1      74.081  65.749 111.806  0.00  0.00    +0.000 A 
ATOM     14  C29 UNL     1      75.118  66.683 111.967  0.00  0.00    +0.000 A 
ATOM     15  C30 UNL     1      75.200  67.449 113.134  0.00  0.00    +0.000 A 
ATOM     16  C31 UNL     1      74.253  67.286 114.148  0.00  0.00    +0.000 A 
ATOM     17  C32 UNL     1      73.220  66.360 113.996  0.00  0.00    +0.000 A 
ATOM     18  C33 UNL     1      73.130  65.596 112.829  0.00  0.00    +0.000 A 
ENDBRANCH   3  13
BRANCH   2  19
ATOM     19  C6  UNL     1      72.374  66.352 109.269  0.00  0.00    +0.000 C 
ATOM     20  O1  UNL     1      71.266  66.365 109.868  0.00  0.00    +0.000 OA
ATOM     21  N1  UNL     1      72.817  67.500 108.530  0.00  0.00    +0.000 N 
ATOM     22  H8  UNL     1      73.849  67.637 108.438  0.00  0.00    +0.000 HD
BRANCH  21  23
ATOM     23  C7  UNL     1      71.945  68.492 107.957  0.00  0.00    +0.000 A 
ATOM     24  C8  UNL     1      70.871  68.145 107.113  0.00  0.00    +0.000 A 
ATOM     25  C9  UNL     1      70.071  69.141 106.540  0.00  0.00    +0.000 A 
ATOM     26  C10 UNL     1      70.342  70.487 106.792  0.00  0.00    +0.000 A 
ATOM     27  C11 UNL     1      71.416  70.841 107.613  0.00  0.00    +0.000 A 
ATOM     28  C12 UNL     1      72.217  69.850 108.187  0.00  0.00    +0.000 A 
ENDBRANCH  21  23
ENDBRANCH   2  19
BRANCH   1  30
ATOM     29  C1  UNL     1      73.248  64.997 106.175  0.00  0.00    +0.000 C 
ATOM     30  C2  UNL     1      72.818  63.929 107.189  0.00  0.00    +0.000 C 
ATOM     31  C3  UNL     1      71.293  63.831 107.291  0.00  0.00    +0.000 C 
ENDBRANCH   1  30
BRANCH   5  32
ATOM     32  C15 UNL     1      74.864  62.002 108.532  0.00  0.00    +0.000 C 
BRANCH  32  33
ATOM     33  C16 UNL     1      73.946  60.800 108.809  0.00  0.00    +0.000 C 
BRANCH  33  34
ATOM     34  C17 UNL     1      73.040  60.398 107.614  0.00  0.00    +0.000 C 
BRANCH  34  35
ATOM     35  O2  UNL     1      71.969  59.583 108.018  0.00  0.00    +0.000 OA
ATOM     36  H19 UNL     1      72.040  59.478 109.002  0.00  0.00    +0.000 HD
ENDBRANCH  34  35
BRANCH  34  37
ATOM     37  C18 UNL     1      73.807  59.740 106.444  0.00  0.00    +0.000 C 
BRANCH  37  38
ATOM     38  C19 UNL     1      73.074  59.741 105.080  0.00  0.00    +0.000 C 
BRANCH  38  39
ATOM     39  O3  UNL     1      72.095  58.732 105.031  0.00  0.00    +0.000 OA
ATOM     40  H23 UNL     1      71.394  59.027 104.390  0.00  0.00    +0.000 HD
ENDBRANCH  38  39
BRANCH  38  41
ATOM     41  C20 UNL     1      72.421  61.107 104.778  0.00  0.00    +0.000 C 
BRANCH  41  42
ATOM     42  C21 UNL     1      70.935  61.008 104.617  0.00  0.00    +0.000 C 
ATOM     43  O4  UNL     1      70.357  61.210 103.369  0.00  0.00    +0.000 OA
ATOM     44  O5  UNL     1      70.204  60.760 105.611  0.00  0.00    +0.000 OA
ENDBRANCH  41  42
ENDBRANCH  38  41
ENDBRANCH  37  38
ENDBRANCH  34  37
ENDBRANCH  33  34
ENDBRANCH  32  33
ENDBRANCH   5  32
TORSDOF 14
ENDMDL
MODEL 5
REMARK VINA RESULT:      -6.4      3.597      5.790
REMARK  Name = ./S2077.pdb
REMARK  16 active torsions:
REMARK  status: ('A' for Active; 'I' for Inactive)
REMARK    1  A    between atoms: C1_1  and  C2_2
REMARK    2  A    between atoms: C2_2  and  C3_3
REMARK    3  A    between atoms: C2_2  and  C4_4
REMARK    4  A    between atoms: C5_5  and  C6_6
REMARK    5  A    between atoms: N1_8  and  C7_9
REMARK    6  A    between atoms: C13_15  and  C28_36
REMARK    7  A    between atoms: C14_16  and  C22_29
REMARK    8  A    between atoms: N2_17  and  C15_18
REMARK    9  A    between atoms: C15_18  and  C16_19
REMARK   10  A    between atoms: C16_19  and  C17_20
REMARK   11  A    between atoms: C17_20  and  O2_21
REMARK   12  A    between atoms: C17_20  and  C18_22
REMARK   13  A    between atoms: C18_22  and  C19_23
REMARK   14  A    between atoms: C19_23  and  O3_24
REMARK   15  A    between atoms: C19_23  and  C20_25
REMARK   16  A    between atoms: C20_25  and  C21_26
REMARK                            x       y       z     vdW  Elec       q    Type
REMARK                         _______ _______ _______ _____ _____    ______ ____
ROOT
ATOM      1  C4  UNL     1      73.146  66.075 109.618  0.00  0.00    +0.000 A 
ATOM      2  C5  UNL     1      73.959  65.755 110.711  0.00  0.00    +0.000 A 
ATOM      3  C13 UNL     1      74.487  64.496 110.468  0.00  0.00    +0.000 A 
ATOM      4  C14 UNL     1      73.996  64.095 109.238  0.00  0.00    +0.000 A 
ATOM      5  N2  UNL     1      73.178  65.046 108.725  0.00  0.00    +0.000 N 
ENDROOT
BRANCH   4   6
ATOM      6  C22 UNL     1      74.387  62.856 108.537  0.00  0.00    +0.000 A 
ATOM      7  C23 UNL     1      75.142  62.913 107.356  0.00  0.00    +0.000 A 
ATOM      8  C24 UNL     1      75.493  61.735 106.690  0.00  0.00    +0.000 A 
ATOM      9  C25 UNL     1      75.082  60.498 107.192  0.00  0.00    +0.000 A 
ATOM     10  F1  UNL     1      75.428  59.354 106.549  0.00  0.00    +0.000 F 
ATOM     11  C26 UNL     1      74.314  60.439 108.358  0.00  0.00    +0.000 A 
ATOM     12  C27 UNL     1      73.967  61.612 109.032  0.00  0.00    +0.000 A 
ENDBRANCH   4   6
BRANCH   3  13
ATOM     13  C28 UNL     1      75.391  63.725 111.352  0.00  0.00    +0.000 A 
ATOM     14  C29 UNL     1      76.777  63.708 111.119  0.00  0.00    +0.000 A 
ATOM     15  C30 UNL     1      77.621  62.961 111.946  0.00  0.00    +0.000 A 
ATOM     16  C31 UNL     1      77.090  62.224 113.008  0.00  0.00    +0.000 A 
ATOM     17  C32 UNL     1      75.715  62.236 113.247  0.00  0.00    +0.000 A 
ATOM     18  C33 UNL     1      74.868  62.984 112.426  0.00  0.00    +0.000 A 
ENDBRANCH   3  13
BRANCH   2  19
ATOM     19  C6  UNL     1      74.165  66.527 111.947  0.00  0.00    +0.000 C 
ATOM     20  O1  UNL     1      74.839  67.591 111.898  0.00  0.00    +0.000 OA
ATOM     21  N1  UNL     1      73.507  66.137 113.161  0.00  0.00    +0.000 N 
ATOM     22  H8  UNL     1      72.645  65.552 113.068  0.00  0.00    +0.000 HD
BRANCH  21  23
ATOM     23  C7  UNL     1      73.920  66.533 114.482  0.00  0.00    +0.000 A 
ATOM     24  C8  UNL     1      73.196  67.476 115.239  0.00  0.00    +0.000 A 
ATOM     25  C9  UNL     1      73.651  67.870 116.503  0.00  0.00    +0.000 A 
ATOM     26  C10 UNL     1      74.836  67.337 117.016  0.00  0.00    +0.000 A 
ATOM     27  C11 UNL     1      75.570  66.415 116.266  0.00  0.00    +0.000 A 
ATOM     28  C12 UNL     1      75.118  66.020 115.004  0.00  0.00    +0.000 A 
ENDBRANCH  21  23
ENDBRANCH   2  19
BRANCH   1  30
ATOM     29  C1  UNL     1      70.788  67.029 109.512  0.00  0.00    +0.000 C 
ATOM     30  C2  UNL     1      72.291  67.328 109.449  0.00  0.00    +0.000 C 
ATOM     31  C3  UNL     1      72.658  68.103 108.179  0.00  0.00    +0.000 C 
ENDBRANCH   1  30
BRANCH   5  32
ATOM     32  C15 UNL     1      72.546  64.999 107.397  0.00  0.00    +0.000 C 
BRANCH  32  33
ATOM     33  C16 UNL     1      71.211  64.241 107.465  0.00  0.00    +0.000 C 
BRANCH  33  34
ATOM     34  C17 UNL     1      70.928  63.332 106.239  0.00  0.00    +0.000 C 
BRANCH  34  35
ATOM     35  O2  UNL     1      69.557  63.063 106.089  0.00  0.00    +0.000 OA
ATOM     36  H19 UNL     1      69.472  62.096 105.884  0.00  0.00    +0.000 HD
ENDBRANCH  34  35
BRANCH  34  37
ATOM     37  C18 UNL     1      71.737  62.014 106.240  0.00  0.00    +0.000 C 
BRANCH  37  38
ATOM     38  C19 UNL     1      71.516  61.093 105.014  0.00  0.00    +0.000 C 
BRANCH  38  39
ATOM     39  O3  UNL     1      70.245  60.491 105.056  0.00  0.00    +0.000 OA
ATOM     40  H23 UNL     1      70.038  60.296 106.009  0.00  0.00    +0.000 HD
ENDBRANCH  38  39
BRANCH  38  41
ATOM     41  C20 UNL     1      71.679  61.857 103.683  0.00  0.00    +0.000 C 
BRANCH  41  42
ATOM     42  C21 UNL     1      70.417  61.881 102.877  0.00  0.00    +0.000 C 
ATOM     43  O4  UNL     1      69.498  62.908 103.056  0.00  0.00    +0.000 OA
ATOM     44  O5  UNL     1      70.176  60.964 102.048  0.00  0.00    +0.000 OA
ENDBRANCH  41  42
ENDBRANCH  38  41
ENDBRANCH  37  38
ENDBRANCH  34  37
ENDBRANCH  33  34
ENDBRANCH  32  33
ENDBRANCH   5  32
TORSDOF 14
ENDMDL
MODEL 6
REMARK VINA RESULT:      -6.4      3.529      6.333
REMARK  Name = ./S2077.pdb
REMARK  16 active torsions:
REMARK  status: ('A' for Active; 'I' for Inactive)
REMARK    1  A    between atoms: C1_1  and  C2_2
REMARK    2  A    between atoms: C2_2  and  C3_3
REMARK    3  A    between atoms: C2_2  and  C4_4
REMARK    4  A    between atoms: C5_5  and  C6_6
REMARK    5  A    between atoms: N1_8  and  C7_9
REMARK    6  A    between atoms: C13_15  and  C28_36
REMARK    7  A    between atoms: C14_16  and  C22_29
REMARK    8  A    between atoms: N2_17  and  C15_18
REMARK    9  A    between atoms: C15_18  and  C16_19
REMARK   10  A    between atoms: C16_19  and  C17_20
REMARK   11  A    between atoms: C17_20  and  O2_21
REMARK   12  A    between atoms: C17_20  and  C18_22
REMARK   13  A    between atoms: C18_22  and  C19_23
REMARK   14  A    between atoms: C19_23  and  O3_24
REMARK   15  A    between atoms: C19_23  and  C20_25
REMARK   16  A    between atoms: C20_25  and  C21_26
REMARK                            x       y       z     vdW  Elec       q    Type
REMARK                         _______ _______ _______ _____ _____    ______ ____
ROOT
ATOM      1  C4  UNL     1      73.307  62.856 107.686  0.00  0.00    +0.000 A 
ATOM      2  C5  UNL     1      73.796  63.234 108.942  0.00  0.00    +0.000 A 
ATOM      3  C13 UNL     1      73.414  64.551 109.146  0.00  0.00    +0.000 A 
ATOM      4  C14 UNL     1      72.698  64.930 108.023  0.00  0.00    +0.000 A 
ATOM      5  N2  UNL     1      72.639  63.908 107.135  0.00  0.00    +0.000 N 
ENDROOT
BRANCH   4   6
ATOM      6  C22 UNL     1      72.009  66.226 107.861  0.00  0.00    +0.000 A 
ATOM      7  C23 UNL     1      72.582  67.244 107.084  0.00  0.00    +0.000 A 
ATOM      8  C24 UNL     1      71.933  68.474 106.950  0.00  0.00    +0.000 A 
ATOM      9  C25 UNL     1      70.716  68.698 107.599  0.00  0.00    +0.000 A 
ATOM     10  F1  UNL     1      70.082  69.890 107.463  0.00  0.00    +0.000 F 
ATOM     11  C26 UNL     1      70.152  67.692 108.388  0.00  0.00    +0.000 A 
ATOM     12  C27 UNL     1      70.794  66.459 108.519  0.00  0.00    +0.000 A 
ENDBRANCH   4   6
BRANCH   3  13
ATOM     13  C28 UNL     1      73.718  65.393 110.326  0.00  0.00    +0.000 A 
ATOM     14  C29 UNL     1      74.825  66.258 110.322  0.00  0.00    +0.000 A 
ATOM     15  C30 UNL     1      75.116  67.035 111.447  0.00  0.00    +0.000 A 
ATOM     16  C31 UNL     1      74.308  66.953 112.585  0.00  0.00    +0.000 A 
ATOM     17  C32 UNL     1      73.206  66.096 112.596  0.00  0.00    +0.000 A 
ATOM     18  C33 UNL     1      72.908  65.322 111.473  0.00  0.00    +0.000 A 
ENDBRANCH   3  13
BRANCH   2  19
ATOM     19  C6  UNL     1      74.641  62.453 109.860  0.00  0.00    +0.000 C 
ATOM     20  O1  UNL     1      74.219  61.344 110.285  0.00  0.00    +0.000 OA
ATOM     21  N1  UNL     1      75.972  62.894 110.168  0.00  0.00    +0.000 N 
ATOM     22  H8  UNL     1      76.429  63.538 109.484  0.00  0.00    +0.000 HD
BRANCH  21  23
ATOM     23  C7  UNL     1      76.729  62.474 111.318  0.00  0.00    +0.000 A 
ATOM     24  C8  UNL     1      77.696  61.451 111.242  0.00  0.00    +0.000 A 
ATOM     25  C9  UNL     1      78.382  61.039 112.391  0.00  0.00    +0.000 A 
ATOM     26  C10 UNL     1      78.104  61.635 113.623  0.00  0.00    +0.000 A 
ATOM     27  C11 UNL     1      77.135  62.637 113.711  0.00  0.00    +0.000 A 
ATOM     28  C12 UNL     1      76.447  63.050 112.567  0.00  0.00    +0.000 A 
ENDBRANCH  21  23
ENDBRANCH   2  19
BRANCH   1  30
ATOM     29  C1  UNL     1      72.695  60.387 107.595  0.00  0.00    +0.000 C 
ATOM     30  C2  UNL     1      73.528  61.520 106.982  0.00  0.00    +0.000 C 
ATOM     31  C3  UNL     1      75.012  61.150 106.910  0.00  0.00    +0.000 C 
ENDBRANCH   1  30
BRANCH   5  32
ATOM     32  C15 UNL     1      71.888  63.923 105.870  0.00  0.00    +0.000 C 
BRANCH  32  33
ATOM     33  C16 UNL     1      70.480  63.341 106.075  0.00  0.00    +0.000 C 
BRANCH  33  34
ATOM     34  C17 UNL     1      70.034  62.342 104.974  0.00  0.00    +0.000 C 
BRANCH  34  35
ATOM     35  O2  UNL     1      70.006  61.019 105.444  0.00  0.00    +0.000 OA
ATOM     36  H19 UNL     1      70.322  61.039 106.385  0.00  0.00    +0.000 HD
ENDBRANCH  34  35
BRANCH  34  37
ATOM     37  C18 UNL     1      70.866  62.434 103.674  0.00  0.00    +0.000 C 
BRANCH  37  38
ATOM     38  C19 UNL     1      70.100  62.123 102.365  0.00  0.00    +0.000 C 
BRANCH  38  39
ATOM     39  O3  UNL     1      69.691  63.308 101.725  0.00  0.00    +0.000 OA
ATOM     40  H23 UNL     1      70.094  64.070 102.220  0.00  0.00    +0.000 HD
ENDBRANCH  38  39
BRANCH  38  41
ATOM     41  C20 UNL     1      70.947  61.279 101.388  0.00  0.00    +0.000 C 
BRANCH  41  42
ATOM     42  C21 UNL     1      70.864  61.776  99.979  0.00  0.00    +0.000 C 
ATOM     43  O4  UNL     1      69.783  61.424  99.180  0.00  0.00    +0.000 OA
ATOM     44  O5  UNL     1      71.779  62.500  99.506  0.00  0.00    +0.000 OA
ENDBRANCH  41  42
ENDBRANCH  38  41
ENDBRANCH  37  38
ENDBRANCH  34  37
ENDBRANCH  33  34
ENDBRANCH  32  33
ENDBRANCH   5  32
TORSDOF 14
ENDMDL
MODEL 7
REMARK VINA RESULT:      -6.3      3.116      6.018
REMARK  Name = ./S2077.pdb
REMARK  16 active torsions:
REMARK  status: ('A' for Active; 'I' for Inactive)
REMARK    1  A    between atoms: C1_1  and  C2_2
REMARK    2  A    between atoms: C2_2  and  C3_3
REMARK    3  A    between atoms: C2_2  and  C4_4
REMARK    4  A    between atoms: C5_5  and  C6_6
REMARK    5  A    between atoms: N1_8  and  C7_9
REMARK    6  A    between atoms: C13_15  and  C28_36
REMARK    7  A    between atoms: C14_16  and  C22_29
REMARK    8  A    between atoms: N2_17  and  C15_18
REMARK    9  A    between atoms: C15_18  and  C16_19
REMARK   10  A    between atoms: C16_19  and  C17_20
REMARK   11  A    between atoms: C17_20  and  O2_21
REMARK   12  A    between atoms: C17_20  and  C18_22
REMARK   13  A    between atoms: C18_22  and  C19_23
REMARK   14  A    between atoms: C19_23  and  O3_24
REMARK   15  A    between atoms: C19_23  and  C20_25
REMARK   16  A    between atoms: C20_25  and  C21_26
REMARK                            x       y       z     vdW  Elec       q    Type
REMARK                         _______ _______ _______ _____ _____    ______ ____
ROOT
ATOM      1  C4  UNL     1      74.121  62.631 109.071  0.00  0.00    +0.000 A 
ATOM      2  C5  UNL     1      74.354  63.070 110.380  0.00  0.00    +0.000 A 
ATOM      3  C13 UNL     1      73.839  64.353 110.474  0.00  0.00    +0.000 A 
ATOM      4  C14 UNL     1      73.300  64.652 109.234  0.00  0.00    +0.000 A 
ATOM      5  N2  UNL     1      73.477  63.614 108.382  0.00  0.00    +0.000 N 
ENDROOT
BRANCH   4   6
ATOM      6  C22 UNL     1      72.550  65.883 108.916  0.00  0.00    +0.000 A 
ATOM      7  C23 UNL     1      73.211  67.007 108.398  0.00  0.00    +0.000 A 
ATOM      8  C24 UNL     1      72.496  68.174 108.116  0.00  0.00    +0.000 A 
ATOM      9  C25 UNL     1      71.122  68.229 108.361  0.00  0.00    +0.000 A 
ATOM     10  F1  UNL     1      70.426  69.360 108.081  0.00  0.00    +0.000 F 
ATOM     11  C26 UNL     1      70.463  67.118 108.894  0.00  0.00    +0.000 A 
ATOM     12  C27 UNL     1      71.172  65.947 109.170  0.00  0.00    +0.000 A 
ENDBRANCH   4   6
BRANCH   3  13
ATOM     13  C28 UNL     1      73.866  65.238 111.662  0.00  0.00    +0.000 A 
ATOM     14  C29 UNL     1      74.896  66.179 111.829  0.00  0.00    +0.000 A 
ATOM     15  C30 UNL     1      74.925  66.997 112.963  0.00  0.00    +0.000 A 
ATOM     16  C31 UNL     1      73.931  66.880 113.938  0.00  0.00    +0.000 A 
ATOM     17  C32 UNL     1      72.904  65.948 113.779  0.00  0.00    +0.000 A 
ATOM     18  C33 UNL     1      72.868  65.132 112.645  0.00  0.00    +0.000 A 
ENDBRANCH   3  13
BRANCH   2  19
ATOM     19  C6  UNL     1      75.087  62.378 111.453  0.00  0.00    +0.000 C 
ATOM     20  O1  UNL     1      74.616  61.308 111.923  0.00  0.00    +0.000 OA
ATOM     21  N1  UNL     1      76.376  62.853 111.869  0.00  0.00    +0.000 N 
ATOM     22  H8  UNL     1      76.911  63.436 111.186  0.00  0.00    +0.000 HD
BRANCH  21  23
ATOM     23  C7  UNL     1      76.997  62.540 113.129  0.00  0.00    +0.000 A 
ATOM     24  C8  UNL     1      77.885  61.455 113.276  0.00  0.00    +0.000 A 
ATOM     25  C9  UNL     1      78.437  61.156 114.527  0.00  0.00    +0.000 A 
ATOM     26  C10 UNL     1      78.100  61.926 115.642  0.00  0.00    +0.000 A 
ATOM     27  C11 UNL     1      77.207  62.992 115.510  0.00  0.00    +0.000 A 
ATOM     28  C12 UNL     1      76.654  63.294 114.263  0.00  0.00    +0.000 A 
ENDBRANCH  21  23
ENDBRANCH   2  19
BRANCH   1  30
ATOM     29  C1  UNL     1      75.092  61.467 107.025  0.00  0.00    +0.000 C 
ATOM     30  C2  UNL     1      74.566  61.306 108.457  0.00  0.00    +0.000 C 
ATOM     31  C3  UNL     1      73.466  60.243 108.536  0.00  0.00    +0.000 C 
ENDBRANCH   1  30
BRANCH   5  32
ATOM     32  C15 UNL     1      72.957  63.544 107.007  0.00  0.00    +0.000 C 
BRANCH  32  33
ATOM     33  C16 UNL     1      71.579  62.865 106.988  0.00  0.00    +0.000 C 
BRANCH  33  34
ATOM     34  C17 UNL     1      70.668  63.298 105.808  0.00  0.00    +0.000 C 
BRANCH  34  35
ATOM     35  O2  UNL     1      69.769  64.310 106.182  0.00  0.00    +0.000 OA
ATOM     36  H19 UNL     1      70.307  65.125 106.360  0.00  0.00    +0.000 HD
ENDBRANCH  34  35
BRANCH  34  37
ATOM     37  C18 UNL     1      69.911  62.125 105.142  0.00  0.00    +0.000 C 
BRANCH  37  38
ATOM     38  C19 UNL     1      69.992  62.068 103.597  0.00  0.00    +0.000 C 
BRANCH  38  39
ATOM     39  O3  UNL     1      69.564  63.279 103.023  0.00  0.00    +0.000 OA
ATOM     40  H23 UNL     1      68.713  63.099 102.542  0.00  0.00    +0.000 HD
ENDBRANCH  38  39
BRANCH  38  41
ATOM     41  C20 UNL     1      71.420  61.744 103.106  0.00  0.00    +0.000 C 
BRANCH  41  42
ATOM     42  C21 UNL     1      71.985  62.821 102.235  0.00  0.00    +0.000 C 
ATOM     43  O4  UNL     1      72.746  63.841 102.795  0.00  0.00    +0.000 OA
ATOM     44  O5  UNL     1      71.761  62.818 100.995  0.00  0.00    +0.000 OA
ENDBRANCH  41  42
ENDBRANCH  38  41
ENDBRANCH  37  38
ENDBRANCH  34  37
ENDBRANCH  33  34
ENDBRANCH  32  33
ENDBRANCH   5  32
TORSDOF 14
ENDMDL
MODEL 8
REMARK VINA RESULT:      -6.3      3.522      6.506
REMARK  Name = ./S2077.pdb
REMARK  16 active torsions:
REMARK  status: ('A' for Active; 'I' for Inactive)
REMARK    1  A    between atoms: C1_1  and  C2_2
REMARK    2  A    between atoms: C2_2  and  C3_3
REMARK    3  A    between atoms: C2_2  and  C4_4
REMARK    4  A    between atoms: C5_5  and  C6_6
REMARK    5  A    between atoms: N1_8  and  C7_9
REMARK    6  A    between atoms: C13_15  and  C28_36
REMARK    7  A    between atoms: C14_16  and  C22_29
REMARK    8  A    between atoms: N2_17  and  C15_18
REMARK    9  A    between atoms: C15_18  and  C16_19
REMARK   10  A    between atoms: C16_19  and  C17_20
REMARK   11  A    between atoms: C17_20  and  O2_21
REMARK   12  A    between atoms: C17_20  and  C18_22
REMARK   13  A    between atoms: C18_22  and  C19_23
REMARK   14  A    between atoms: C19_23  and  O3_24
REMARK   15  A    between atoms: C19_23  and  C20_25
REMARK   16  A    between atoms: C20_25  and  C21_26
REMARK                            x       y       z     vdW  Elec       q    Type
REMARK                         _______ _______ _______ _____ _____    ______ ____
ROOT
ATOM      1  C4  UNL     1      75.077  63.619 110.406  0.00  0.00    +0.000 A 
ATOM      2  C5  UNL     1      74.353  64.809 110.546  0.00  0.00    +0.000 A 
ATOM      3  C13 UNL     1      73.595  64.959 109.395  0.00  0.00    +0.000 A 
ATOM      4  C14 UNL     1      73.866  63.859 108.600  0.00  0.00    +0.000 A 
ATOM      5  N2  UNL     1      74.769  63.050 109.207  0.00  0.00    +0.000 N 
ENDROOT
BRANCH   4   6
ATOM      6  C22 UNL     1      73.193  63.556 107.321  0.00  0.00    +0.000 A 
ATOM      7  C23 UNL     1      71.979  62.853 107.304  0.00  0.00    +0.000 A 
ATOM      8  C24 UNL     1      71.357  62.556 106.088  0.00  0.00    +0.000 A 
ATOM      9  C25 UNL     1      71.949  62.947 104.885  0.00  0.00    +0.000 A 
ATOM     10  F1  UNL     1      71.342  62.664 103.705  0.00  0.00    +0.000 F 
ATOM     11  C26 UNL     1      73.168  63.632 104.898  0.00  0.00    +0.000 A 
ATOM     12  C27 UNL     1      73.789  63.938 106.110  0.00  0.00    +0.000 A 
ENDBRANCH   4   6
BRANCH   3  13
ATOM     13  C28 UNL     1      72.681  66.079 109.071  0.00  0.00    +0.000 A 
ATOM     14  C29 UNL     1      71.332  66.038 109.463  0.00  0.00    +0.000 A 
ATOM     15  C30 UNL     1      70.471  67.090 109.137  0.00  0.00    +0.000 A 
ATOM     16  C31 UNL     1      70.948  68.188 108.414  0.00  0.00    +0.000 A 
ATOM     17  C32 UNL     1      72.286  68.236 108.021  0.00  0.00    +0.000 A 
ATOM     18  C33 UNL     1      73.151  67.189 108.349  0.00  0.00    +0.000 A 
ENDBRANCH   3  13
BRANCH   2  19
ATOM     19  C6  UNL     1      74.424  65.792 111.638  0.00  0.00    +0.000 C 
ATOM     20  O1  UNL     1      74.925  66.926 111.409  0.00  0.00    +0.000 OA
ATOM     21  N1  UNL     1      73.824  65.505 112.910  0.00  0.00    +0.000 N 
ATOM     22  H8  UNL     1      73.064  64.786 112.925  0.00  0.00    +0.000 HD
BRANCH  21  23
ATOM     23  C7  UNL     1      74.157  66.167 114.143  0.00  0.00    +0.000 A 
ATOM     24  C8  UNL     1      75.305  65.828 114.887  0.00  0.00    +0.000 A 
ATOM     25  C9  UNL     1      75.574  66.464 116.104  0.00  0.00    +0.000 A 
ATOM     26  C10 UNL     1      74.698  67.434 116.595  0.00  0.00    +0.000 A 
ATOM     27  C11 UNL     1      73.548  67.765 115.873  0.00  0.00    +0.000 A 
ATOM     28  C12 UNL     1      73.276  67.131 114.658  0.00  0.00    +0.000 A 
ENDBRANCH  21  23
ENDBRANCH   2  19
BRANCH   1  30
ATOM     29  C1  UNL     1      77.348  62.500 110.671  0.00  0.00    +0.000 C 
ATOM     30  C2  UNL     1      76.106  63.054 111.381  0.00  0.00    +0.000 C 
ATOM     31  C3  UNL     1      75.490  62.018 112.326  0.00  0.00    +0.000 C 
ENDBRANCH   1  30
BRANCH   5  32
ATOM     32  C15 UNL     1      75.226  61.749 108.694  0.00  0.00    +0.000 C 
BRANCH  32  33
ATOM     33  C16 UNL     1      74.328  60.619 109.221  0.00  0.00    +0.000 C 
BRANCH  33  34
ATOM     34  C17 UNL     1      73.879  59.600 108.139  0.00  0.00    +0.000 C 
BRANCH  34  35
ATOM     35  O2  UNL     1      74.302  58.294 108.439  0.00  0.00    +0.000 OA
ATOM     36  H19 UNL     1      73.601  57.888 109.013  0.00  0.00    +0.000 HD
ENDBRANCH  34  35
BRANCH  34  37
ATOM     37  C18 UNL     1      74.306  59.987 106.704  0.00  0.00    +0.000 C 
BRANCH  37  38
ATOM     38  C19 UNL     1      73.825  59.032 105.583  0.00  0.00    +0.000 C 
BRANCH  38  39
ATOM     39  O3  UNL     1      74.490  57.795 105.652  0.00  0.00    +0.000 OA
ATOM     40  H23 UNL     1      75.444  57.980 105.866  0.00  0.00    +0.000 HD
ENDBRANCH  38  39
BRANCH  38  41
ATOM     41  C20 UNL     1      72.299  58.799 105.641  0.00  0.00    +0.000 C 
BRANCH  41  42
ATOM     42  C21 UNL     1      71.948  57.364 105.887  0.00  0.00    +0.000 C 
ATOM     43  O4  UNL     1      71.900  56.873 107.187  0.00  0.00    +0.000 OA
ATOM     44  O5  UNL     1      71.711  56.594 104.920  0.00  0.00    +0.000 OA
ENDBRANCH  41  42
ENDBRANCH  38  41
ENDBRANCH  37  38
ENDBRANCH  34  37
ENDBRANCH  33  34
ENDBRANCH  32  33
ENDBRANCH   5  32
TORSDOF 14
ENDMDL
MODEL 9
REMARK VINA RESULT:      -6.3      2.652      5.636
REMARK  Name = ./S2077.pdb
REMARK  16 active torsions:
REMARK  status: ('A' for Active; 'I' for Inactive)
REMARK    1  A    between atoms: C1_1  and  C2_2
REMARK    2  A    between atoms: C2_2  and  C3_3
REMARK    3  A    between atoms: C2_2  and  C4_4
REMARK    4  A    between atoms: C5_5  and  C6_6
REMARK    5  A    between atoms: N1_8  and  C7_9
REMARK    6  A    between atoms: C13_15  and  C28_36
REMARK    7  A    between atoms: C14_16  and  C22_29
REMARK    8  A    between atoms: N2_17  and  C15_18
REMARK    9  A    between atoms: C15_18  and  C16_19
REMARK   10  A    between atoms: C16_19  and  C17_20
REMARK   11  A    between atoms: C17_20  and  O2_21
REMARK   12  A    between atoms: C17_20  and  C18_22
REMARK   13  A    between atoms: C18_22  and  C19_23
REMARK   14  A    between atoms: C19_23  and  O3_24
REMARK   15  A    between atoms: C19_23  and  C20_25
REMARK   16  A    between atoms: C20_25  and  C21_26
REMARK                            x       y       z     vdW  Elec       q    Type
REMARK                         _______ _______ _______ _____ _____    ______ ____
ROOT
ATOM      1  C4  UNL     1      73.639  64.997 106.386  0.00  0.00    +0.000 A 
ATOM      2  C5  UNL     1      74.401  64.069 107.105  0.00  0.00    +0.000 A 
ATOM      3  C13 UNL     1      75.338  64.789 107.829  0.00  0.00    +0.000 A 
ATOM      4  C14 UNL     1      75.113  66.124 107.544  0.00  0.00    +0.000 A 
ATOM      5  N2  UNL     1      74.090  66.252 106.665  0.00  0.00    +0.000 N 
ENDROOT
BRANCH   4   6
ATOM      6  C22 UNL     1      75.817  67.253 108.184  0.00  0.00    +0.000 A 
ATOM      7  C23 UNL     1      75.403  67.735 109.435  0.00  0.00    +0.000 A 
ATOM      8  C24 UNL     1      76.064  68.815 110.026  0.00  0.00    +0.000 A 
ATOM      9  C25 UNL     1      77.133  69.426 109.367  0.00  0.00    +0.000 A 
ATOM     10  F1  UNL     1      77.780  70.471 109.943  0.00  0.00    +0.000 F 
ATOM     11  C26 UNL     1      77.537  68.961 108.112  0.00  0.00    +0.000 A 
ATOM     12  C27 UNL     1      76.884  67.877 107.521  0.00  0.00    +0.000 A 
ENDBRANCH   4   6
BRANCH   3  13
ATOM     13  C28 UNL     1      76.382  64.240 108.726  0.00  0.00    +0.000 A 
ATOM     14  C29 UNL     1      77.696  64.053 108.263  0.00  0.00    +0.000 A 
ATOM     15  C30 UNL     1      78.671  63.517 109.110  0.00  0.00    +0.000 A 
ATOM     16  C31 UNL     1      78.342  63.161 110.421  0.00  0.00    +0.000 A 
ATOM     17  C32 UNL     1      77.040  63.344 110.888  0.00  0.00    +0.000 A 
ATOM     18  C33 UNL     1      76.063  63.884 110.047  0.00  0.00    +0.000 A 
ENDBRANCH   3  13
BRANCH   2  19
ATOM     19  C6  UNL     1      74.325  62.600 107.056  0.00  0.00    +0.000 C 
ATOM     20  O1  UNL     1      75.071  61.975 106.255  0.00  0.00    +0.000 OA
ATOM     21  N1  UNL     1      73.501  61.888 107.991  0.00  0.00    +0.000 N 
ATOM     22  H8  UNL     1      73.264  62.377 108.884  0.00  0.00    +0.000 HD
BRANCH  21  23
ATOM     23  C7  UNL     1      73.028  60.540 107.807  0.00  0.00    +0.000 A 
ATOM     24  C8  UNL     1      72.064  60.215 106.832  0.00  0.00    +0.000 A 
ATOM     25  C9  UNL     1      71.595  58.901 106.711  0.00  0.00    +0.000 A 
ATOM     26  C10 UNL     1      72.074  57.907 107.567  0.00  0.00    +0.000 A 
ATOM     27  C11 UNL     1      73.016  58.224 108.548  0.00  0.00    +0.000 A 
ATOM     28  C12 UNL     1      73.486  59.534 108.672  0.00  0.00    +0.000 A 
ENDBRANCH  21  23
ENDBRANCH   2  19
BRANCH   1  30
ATOM     29  C1  UNL     1      71.436  63.788 105.981  0.00  0.00    +0.000 C 
ATOM     30  C2  UNL     1      72.525  64.690 105.388  0.00  0.00    +0.000 C 
ATOM     31  C3  UNL     1      73.075  64.122 104.076  0.00  0.00    +0.000 C 
ENDBRANCH   1  30
BRANCH   5  32
ATOM     32  C15 UNL     1      73.519  67.527 106.203  0.00  0.00    +0.000 C 
BRANCH  32  33
ATOM     33  C16 UNL     1      72.438  68.016 107.180  0.00  0.00    +0.000 C 
BRANCH  33  34
ATOM     34  C17 UNL     1      70.986  67.663 106.758  0.00  0.00    +0.000 C 
BRANCH  34  35
ATOM     35  O2  UNL     1      70.217  68.812 106.508  0.00  0.00    +0.000 OA
ATOM     36  H19 UNL     1      69.313  68.502 106.240  0.00  0.00    +0.000 HD
ENDBRANCH  34  35
BRANCH  34  37
ATOM     37  C18 UNL     1      70.256  66.734 107.755  0.00  0.00    +0.000 C 
BRANCH  37  38
ATOM     38  C19 UNL     1      71.002  66.461 109.085  0.00  0.00    +0.000 C 
BRANCH  38  39
ATOM     39  O3  UNL     1      70.261  66.929 110.186  0.00  0.00    +0.000 OA
ATOM     40  H23 UNL     1      69.857  67.800 109.925  0.00  0.00    +0.000 HD
ENDBRANCH  38  39
BRANCH  38  41
ATOM     41  C20 UNL     1      71.310  64.960 109.275  0.00  0.00    +0.000 C 
BRANCH  41  42
ATOM     42  C21 UNL     1      72.423  64.721 110.247  0.00  0.00    +0.000 C 
ATOM     43  O4  UNL     1      72.923  65.775 111.004  0.00  0.00    +0.000 OA
ATOM     44  O5  UNL     1      72.922  63.572 110.372  0.00  0.00    +0.000 OA
ENDBRANCH  41  42
ENDBRANCH  38  41
ENDBRANCH  37  38
ENDBRANCH  34  37
ENDBRANCH  33  34
ENDBRANCH  32  33
ENDBRANCH   5  32
TORSDOF 14
ENDMDL
MODEL 10
REMARK VINA RESULT:      -6.2      3.460      6.131
REMARK  Name = ./S2077.pdb
REMARK  16 active torsions:
REMARK  status: ('A' for Active; 'I' for Inactive)
REMARK    1  A    between atoms: C1_1  and  C2_2
REMARK    2  A    between atoms: C2_2  and  C3_3
REMARK    3  A    between atoms: C2_2  and  C4_4
REMARK    4  A    between atoms: C5_5  and  C6_6
REMARK    5  A    between atoms: N1_8  and  C7_9
REMARK    6  A    between atoms: C13_15  and  C28_36
REMARK    7  A    between atoms: C14_16  and  C22_29
REMARK    8  A    between atoms: N2_17  and  C15_18
REMARK    9  A    between atoms: C15_18  and  C16_19
REMARK   10  A    between atoms: C16_19  and  C17_20
REMARK   11  A    between atoms: C17_20  and  O2_21
REMARK   12  A    between atoms: C17_20  and  C18_22
REMARK   13  A    between atoms: C18_22  and  C19_23
REMARK   14  A    between atoms: C19_23  and  O3_24
REMARK   15  A    between atoms: C19_23  and  C20_25
REMARK   16  A    between atoms: C20_25  and  C21_26
REMARK                            x       y       z     vdW  Elec       q    Type
REMARK                         _______ _______ _______ _____ _____    ______ ____
ROOT
ATOM      1  C4  UNL     1      74.186  62.758 109.197  0.00  0.00    +0.000 A 
ATOM      2  C5  UNL     1      74.409  63.188 110.510  0.00  0.00    +0.000 A 
ATOM      3  C13 UNL     1      73.896  64.472 110.607  0.00  0.00    +0.000 A 
ATOM      4  C14 UNL     1      73.367  64.779 109.365  0.00  0.00    +0.000 A 
ATOM      5  N2  UNL     1      73.548  63.745 108.508  0.00  0.00    +0.000 N 
ENDROOT
BRANCH   4   6
ATOM      6  C22 UNL     1      72.621  66.013 109.048  0.00  0.00    +0.000 A 
ATOM      7  C23 UNL     1      71.250  66.109 109.327  0.00  0.00    +0.000 A 
ATOM      8  C24 UNL     1      70.548  67.274 109.007  0.00  0.00    +0.000 A 
ATOM      9  C25 UNL     1      71.208  68.344 108.398  0.00  0.00    +0.000 A 
ATOM     10  F1  UNL     1      70.528  69.478 108.093  0.00  0.00    +0.000 F 
ATOM     11  C26 UNL     1      72.571  68.246 108.102  0.00  0.00    +0.000 A 
ATOM     12  C27 UNL     1      73.278  67.085 108.427  0.00  0.00    +0.000 A 
ENDBRANCH   4   6
BRANCH   3  13
ATOM     13  C28 UNL     1      73.915  65.350 111.800  0.00  0.00    +0.000 A 
ATOM     14  C29 UNL     1      74.949  66.283 111.985  0.00  0.00    +0.000 A 
ATOM     15  C30 UNL     1      74.971  67.094 113.124  0.00  0.00    +0.000 A 
ATOM     16  C31 UNL     1      73.964  66.979 114.087  0.00  0.00    +0.000 A 
ATOM     17  C32 UNL     1      72.933  66.055 113.910  0.00  0.00    +0.000 A 
ATOM     18  C33 UNL     1      72.904  65.246 112.771  0.00  0.00    +0.000 A 
ENDBRANCH   3  13
BRANCH   2  19
ATOM     19  C6  UNL     1      75.131  62.489 111.585  0.00  0.00    +0.000 C 
ATOM     20  O1  UNL     1      74.658  61.414 112.041  0.00  0.00    +0.000 OA
ATOM     21  N1  UNL     1      76.415  62.963 112.019  0.00  0.00    +0.000 N 
ATOM     22  H8  UNL     1      76.956  63.553 111.347  0.00  0.00    +0.000 HD
BRANCH  21  23
ATOM     23  C7  UNL     1      77.023  62.641 113.283  0.00  0.00    +0.000 A 
ATOM     24  C8  UNL     1      77.931  61.571 113.425  0.00  0.00    +0.000 A 
ATOM     25  C9  UNL     1      78.469  61.261 114.679  0.00  0.00    +0.000 A 
ATOM     26  C10 UNL     1      78.100  62.005 115.801  0.00  0.00    +0.000 A 
ATOM     27  C11 UNL     1      77.188  63.056 115.674  0.00  0.00    +0.000 A 
ATOM     28  C12 UNL     1      76.648  63.368 114.424  0.00  0.00    +0.000 A 
ENDBRANCH  21  23
ENDBRANCH   2  19
BRANCH   1  30
ATOM     29  C1  UNL     1      75.110  61.593 107.131  0.00  0.00    +0.000 C 
ATOM     30  C2  UNL     1      74.632  61.435 108.579  0.00  0.00    +0.000 C 
ATOM     31  C3  UNL     1      73.553  60.355 108.700  0.00  0.00    +0.000 C 
ENDBRANCH   1  30
BRANCH   5  32
ATOM     32  C15 UNL     1      73.040  63.684 107.129  0.00  0.00    +0.000 C 
BRANCH  32  33
ATOM     33  C16 UNL     1      71.606  63.130 107.109  0.00  0.00    +0.000 C 
BRANCH  33  34
ATOM     34  C17 UNL     1      71.058  62.822 105.690  0.00  0.00    +0.000 C 
BRANCH  34  35
ATOM     35  O2  UNL     1      69.662  62.664 105.689  0.00  0.00    +0.000 OA
ATOM     36  H19 UNL     1      69.467  61.803 106.141  0.00  0.00    +0.000 HD
ENDBRANCH  34  35
BRANCH  34  37
ATOM     37  C18 UNL     1      71.737  61.610 105.010  0.00  0.00    +0.000 C 
BRANCH  37  38
ATOM     38  C19 UNL     1      71.624  60.266 105.771  0.00  0.00    +0.000 C 
BRANCH  38  39
ATOM     39  O3  UNL     1      70.299  59.794 105.771  0.00  0.00    +0.000 OA
ATOM     40  H23 UNL     1      70.299  58.903 105.331  0.00  0.00    +0.000 HD
ENDBRANCH  38  39
BRANCH  38  41
ATOM     41  C20 UNL     1      72.553  59.187 105.173  0.00  0.00    +0.000 C 
BRANCH  41  42
ATOM     42  C21 UNL     1      72.428  57.870 105.875  0.00  0.00    +0.000 C 
ATOM     43  O4  UNL     1      71.274  57.109 105.725  0.00  0.00    +0.000 OA
ATOM     44  O5  UNL     1      73.358  57.454 106.615  0.00  0.00    +0.000 OA
ENDBRANCH  41  42
ENDBRANCH  38  41
ENDBRANCH  37  38
ENDBRANCH  34  37
ENDBRANCH  33  34
ENDBRANCH  32  33
ENDBRANCH   5  32
TORSDOF 14
ENDMDL
MODEL 11
REMARK VINA RESULT:      -6.2      3.625      5.690
REMARK  Name = ./S2077.pdb
REMARK  16 active torsions:
REMARK  status: ('A' for Active; 'I' for Inactive)
REMARK    1  A    between atoms: C1_1  and  C2_2
REMARK    2  A    between atoms: C2_2  and  C3_3
REMARK    3  A    between atoms: C2_2  and  C4_4
REMARK    4  A    between atoms: C5_5  and  C6_6
REMARK    5  A    between atoms: N1_8  and  C7_9
REMARK    6  A    between atoms: C13_15  and  C28_36
REMARK    7  A    between atoms: C14_16  and  C22_29
REMARK    8  A    between atoms: N2_17  and  C15_18
REMARK    9  A    between atoms: C15_18  and  C16_19
REMARK   10  A    between atoms: C16_19  and  C17_20
REMARK   11  A    between atoms: C17_20  and  O2_21
REMARK   12  A    between atoms: C17_20  and  C18_22
REMARK   13  A    between atoms: C18_22  and  C19_23
REMARK   14  A    between atoms: C19_23  and  O3_24
REMARK   15  A    between atoms: C19_23  and  C20_25
REMARK   16  A    between atoms: C20_25  and  C21_26
REMARK                            x       y       z     vdW  Elec       q    Type
REMARK                         _______ _______ _______ _____ _____    ______ ____
ROOT
ATOM      1  C4  UNL     1      73.108  66.018 109.534  0.00  0.00    +0.000 A 
ATOM      2  C5  UNL     1      73.958  65.704 110.601  0.00  0.00    +0.000 A 
ATOM      3  C13 UNL     1      74.480  64.446 110.345  0.00  0.00    +0.000 A 
ATOM      4  C14 UNL     1      73.949  64.039 109.133  0.00  0.00    +0.000 A 
ATOM      5  N2  UNL     1      73.113  64.987 108.644  0.00  0.00    +0.000 N 
ENDROOT
BRANCH   4   6
ATOM      6  C22 UNL     1      74.320  62.798 108.424  0.00  0.00    +0.000 A 
ATOM      7  C23 UNL     1      73.889  61.550 108.900  0.00  0.00    +0.000 A 
ATOM      8  C24 UNL     1      74.259  60.379 108.233  0.00  0.00    +0.000 A 
ATOM      9  C25 UNL     1      75.069  60.447 107.097  0.00  0.00    +0.000 A 
ATOM     10  F1  UNL     1      75.423  59.310 106.445  0.00  0.00    +0.000 F 
ATOM     11  C26 UNL     1      75.515  61.687 106.631  0.00  0.00    +0.000 A 
ATOM     12  C27 UNL     1      75.142  62.860 107.290  0.00  0.00    +0.000 A 
ENDBRANCH   4   6
BRANCH   3  13
ATOM     13  C28 UNL     1      75.416  63.679 111.201  0.00  0.00    +0.000 A 
ATOM     14  C29 UNL     1      76.799  63.712 110.957  0.00  0.00    +0.000 A 
ATOM     15  C30 UNL     1      77.673  62.970 111.757  0.00  0.00    +0.000 A 
ATOM     16  C31 UNL     1      77.174  62.189 112.803  0.00  0.00    +0.000 A 
ATOM     17  C32 UNL     1      75.801  62.151 113.052  0.00  0.00    +0.000 A 
ATOM     18  C33 UNL     1      74.925  62.894 112.258  0.00  0.00    +0.000 A 
ENDBRANCH   3  13
BRANCH   2  19
ATOM     19  C6  UNL     1      74.203  66.481 111.827  0.00  0.00    +0.000 C 
ATOM     20  O1  UNL     1      74.901  67.528 111.757  0.00  0.00    +0.000 OA
ATOM     21  N1  UNL     1      73.557  66.116 113.055  0.00  0.00    +0.000 N 
ATOM     22  H8  UNL     1      72.680  65.551 112.981  0.00  0.00    +0.000 HD
BRANCH  21  23
ATOM     23  C7  UNL     1      74.002  66.513 114.366  0.00  0.00    +0.000 A 
ATOM     24  C8  UNL     1      75.176  65.993 114.945  0.00  0.00    +0.000 A 
ATOM     25  C9  UNL     1      75.554  66.370 116.239  0.00  0.00    +0.000 A 
ATOM     26  C10 UNL     1      74.761  67.258 116.968  0.00  0.00    +0.000 A 
ATOM     27  C11 UNL     1      73.585  67.766 116.408  0.00  0.00    +0.000 A 
ATOM     28  C12 UNL     1      73.205  67.391 115.117  0.00  0.00    +0.000 A 
ENDBRANCH  21  23
ENDBRANCH   2  19
BRANCH   1  30
ATOM     29  C1  UNL     1      70.746  66.967 109.506  0.00  0.00    +0.000 C 
ATOM     30  C2  UNL     1      72.245  67.269 109.390  0.00  0.00    +0.000 C 
ATOM     31  C3  UNL     1      72.565  68.038 108.104  0.00  0.00    +0.000 C 
ENDBRANCH   1  30
BRANCH   5  32
ATOM     32  C15 UNL     1      72.437  64.933 107.338  0.00  0.00    +0.000 C 
BRANCH  32  33
ATOM     33  C16 UNL     1      71.185  64.045 107.418  0.00  0.00    +0.000 C 
BRANCH  33  34
ATOM     34  C17 UNL     1      70.889  63.239 106.125  0.00  0.00    +0.000 C 
BRANCH  34  35
ATOM     35  O2  UNL     1      69.523  62.933 105.998  0.00  0.00    +0.000 OA
ATOM     36  H19 UNL     1      69.086  63.202 106.847  0.00  0.00    +0.000 HD
ENDBRANCH  34  35
BRANCH  34  37
ATOM     37  C18 UNL     1      71.742  61.958 105.981  0.00  0.00    +0.000 C 
BRANCH  37  38
ATOM     38  C19 UNL     1      71.017  60.737 105.361  0.00  0.00    +0.000 C 
BRANCH  38  39
ATOM     39  O3  UNL     1      70.600  61.011 104.046  0.00  0.00    +0.000 OA
ATOM     40  H23 UNL     1      70.107  61.874 104.062  0.00  0.00    +0.000 HD
ENDBRANCH  38  39
BRANCH  38  41
ATOM     41  C20 UNL     1      71.908  59.476 105.365  0.00  0.00    +0.000 C 
BRANCH  41  42
ATOM     42  C21 UNL     1      71.445  58.450 106.351  0.00  0.00    +0.000 C 
ATOM     43  O4  UNL     1      71.173  57.153 105.930  0.00  0.00    +0.000 OA
ATOM     44  O5  UNL     1      71.283  58.759 107.561  0.00  0.00    +0.000 OA
ENDBRANCH  41  42
ENDBRANCH  38  41
ENDBRANCH  37  38
ENDBRANCH  34  37
ENDBRANCH  33  34
ENDBRANCH  32  33
ENDBRANCH   5  32
TORSDOF 14
ENDMDL
MODEL 12
REMARK VINA RESULT:      -6.2      4.931      9.559
REMARK  Name = ./S2077.pdb
REMARK  16 active torsions:
REMARK  status: ('A' for Active; 'I' for Inactive)
REMARK    1  A    between atoms: C1_1  and  C2_2
REMARK    2  A    between atoms: C2_2  and  C3_3
REMARK    3  A    between atoms: C2_2  and  C4_4
REMARK    4  A    between atoms: C5_5  and  C6_6
REMARK    5  A    between atoms: N1_8  and  C7_9
REMARK    6  A    between atoms: C13_15  and  C28_36
REMARK    7  A    between atoms: C14_16  and  C22_29
REMARK    8  A    between atoms: N2_17  and  C15_18
REMARK    9  A    between atoms: C15_18  and  C16_19
REMARK   10  A    between atoms: C16_19  and  C17_20
REMARK   11  A    between atoms: C17_20  and  O2_21
REMARK   12  A    between atoms: C17_20  and  C18_22
REMARK   13  A    between atoms: C18_22  and  C19_23
REMARK   14  A    between atoms: C19_23  and  O3_24
REMARK   15  A    between atoms: C19_23  and  C20_25
REMARK   16  A    between atoms: C20_25  and  C21_26
REMARK                            x       y       z     vdW  Elec       q    Type
REMARK                         _______ _______ _______ _____ _____    ______ ____
ROOT
ATOM      1  C4  UNL     1      75.321  60.805 102.651  0.00  0.00    +0.000 A 
ATOM      2  C5  UNL     1      73.984  61.216 102.713  0.00  0.00    +0.000 A 
ATOM      3  C13 UNL     1      73.665  61.354 104.055  0.00  0.00    +0.000 A 
ATOM      4  C14 UNL     1      74.811  61.040 104.765  0.00  0.00    +0.000 A 
ATOM      5  N2  UNL     1      75.812  60.700 103.918  0.00  0.00    +0.000 N 
ENDROOT
BRANCH   4   6
ATOM      6  C22 UNL     1      74.954  61.158 106.230  0.00  0.00    +0.000 A 
ATOM      7  C23 UNL     1      75.418  62.350 106.807  0.00  0.00    +0.000 A 
ATOM      8  C24 UNL     1      75.567  62.447 108.194  0.00  0.00    +0.000 A 
ATOM      9  C25 UNL     1      75.265  61.353 109.008  0.00  0.00    +0.000 A 
ATOM     10  F1  UNL     1      75.402  61.449 110.355  0.00  0.00    +0.000 F 
ATOM     11  C26 UNL     1      74.819  60.158 108.435  0.00  0.00    +0.000 A 
ATOM     12  C27 UNL     1      74.662  60.059 107.051  0.00  0.00    +0.000 A 
ENDBRANCH   4   6
BRANCH   3  13
ATOM     13  C28 UNL     1      72.355  61.751 104.622  0.00  0.00    +0.000 A 
ATOM     14  C29 UNL     1      72.030  63.107 104.791  0.00  0.00    +0.000 A 
ATOM     15  C30 UNL     1      70.800  63.473 105.345  0.00  0.00    +0.000 A 
ATOM     16  C31 UNL     1      69.887  62.490 105.738  0.00  0.00    +0.000 A 
ATOM     17  C32 UNL     1      70.203  61.140 105.574  0.00  0.00    +0.000 A 
ATOM     18  C33 UNL     1      71.429  60.770 105.016  0.00  0.00    +0.000 A 
ENDBRANCH   3  13
BRANCH   2  19
ATOM     19  C6  UNL     1      73.033  61.384 101.603  0.00  0.00    +0.000 C 
ATOM     20  O1  UNL     1      73.091  62.429 100.901  0.00  0.00    +0.000 OA
ATOM     21  N1  UNL     1      72.136  60.319 101.252  0.00  0.00    +0.000 N 
ATOM     22  H8  UNL     1      72.410  59.353 101.541  0.00  0.00    +0.000 HD
BRANCH  21  23
ATOM     23  C7  UNL     1      70.924  60.484 100.492  0.00  0.00    +0.000 A 
ATOM     24  C8  UNL     1      70.855  60.171  99.120  0.00  0.00    +0.000 A 
ATOM     25  C9  UNL     1      69.671  60.385  98.404  0.00  0.00    +0.000 A 
ATOM     26  C10 UNL     1      68.554  60.922  99.046  0.00  0.00    +0.000 A 
ATOM     27  C11 UNL     1      68.618  61.252 100.402  0.00  0.00    +0.000 A 
ATOM     28  C12 UNL     1      69.798  61.040 101.120  0.00  0.00    +0.000 A 
ENDBRANCH  21  23
ENDBRANCH   2  19
BRANCH   1  30
ATOM     29  C1  UNL     1      76.425  61.682 100.532  0.00  0.00    +0.000 C 
ATOM     30  C2  UNL     1      76.112  60.453 101.394  0.00  0.00    +0.000 C 
ATOM     31  C3  UNL     1      75.428  59.352 100.578  0.00  0.00    +0.000 C 
ENDBRANCH   1  30
BRANCH   5  32
ATOM     32  C15 UNL     1      77.195  60.391 104.314  0.00  0.00    +0.000 C 
BRANCH  32  33
ATOM     33  C16 UNL     1      77.445  58.875 104.249  0.00  0.00    +0.000 C 
BRANCH  33  34
ATOM     34  C17 UNL     1      76.185  58.007 104.510  0.00  0.00    +0.000 C 
BRANCH  34  35
ATOM     35  O2  UNL     1      76.292  57.270 105.701  0.00  0.00    +0.000 OA
ATOM     36  H19 UNL     1      75.560  56.600 105.695  0.00  0.00    +0.000 HD
ENDBRANCH  34  35
BRANCH  34  37
ATOM     37  C18 UNL     1      75.815  57.075 103.333  0.00  0.00    +0.000 C 
BRANCH  37  38
ATOM     38  C19 UNL     1      74.414  56.419 103.413  0.00  0.00    +0.000 C 
BRANCH  38  39
ATOM     39  O3  UNL     1      74.432  55.291 104.254  0.00  0.00    +0.000 OA
ATOM     40  H23 UNL     1      75.022  55.503 105.026  0.00  0.00    +0.000 HD
ENDBRANCH  38  39
BRANCH  38  41
ATOM     41  C20 UNL     1      73.341  57.412 103.909  0.00  0.00    +0.000 C 
BRANCH  41  42
ATOM     42  C21 UNL     1      72.694  56.968 105.183  0.00  0.00    +0.000 C 
ATOM     43  O4  UNL     1      71.491  56.272 105.146  0.00  0.00    +0.000 OA
ATOM     44  O5  UNL     1      73.225  57.237 106.293  0.00  0.00    +0.000 OA
ENDBRANCH  41  42
ENDBRANCH  38  41
ENDBRANCH  37  38
ENDBRANCH  34  37
ENDBRANCH  33  34
ENDBRANCH  32  33
ENDBRANCH   5  32
TORSDOF 14
ENDMDL
MODEL 13
REMARK VINA RESULT:      -6.2      3.762      8.053
REMARK  Name = ./S2077.pdb
REMARK  16 active torsions:
REMARK  status: ('A' for Active; 'I' for Inactive)
REMARK    1  A    between atoms: C1_1  and  C2_2
REMARK    2  A    between atoms: C2_2  and  C3_3
REMARK    3  A    between atoms: C2_2  and  C4_4
REMARK    4  A    between atoms: C5_5  and  C6_6
REMARK    5  A    between atoms: N1_8  and  C7_9
REMARK    6  A    between atoms: C13_15  and  C28_36
REMARK    7  A    between atoms: C14_16  and  C22_29
REMARK    8  A    between atoms: N2_17  and  C15_18
REMARK    9  A    between atoms: C15_18  and  C16_19
REMARK   10  A    between atoms: C16_19  and  C17_20
REMARK   11  A    between atoms: C17_20  and  O2_21
REMARK   12  A    between atoms: C17_20  and  C18_22
REMARK   13  A    between atoms: C18_22  and  C19_23
REMARK   14  A    between atoms: C19_23  and  O3_24
REMARK   15  A    between atoms: C19_23  and  C20_25
REMARK   16  A    between atoms: C20_25  and  C21_26
REMARK                            x       y       z     vdW  Elec       q    Type
REMARK                         _______ _______ _______ _____ _____    ______ ____
ROOT
ATOM      1  C4  UNL     1      73.123  64.775 107.553  0.00  0.00    +0.000 A 
ATOM      2  C5  UNL     1      73.073  65.755 108.552  0.00  0.00    +0.000 A 
ATOM      3  C13 UNL     1      73.931  65.347 109.561  0.00  0.00    +0.000 A 
ATOM      4  C14 UNL     1      74.485  64.149 109.146  0.00  0.00    +0.000 A 
ATOM      5  N2  UNL     1      73.991  63.797 107.934  0.00  0.00    +0.000 N 
ENDROOT
BRANCH   4   6
ATOM      6  C22 UNL     1      75.539  63.411 109.871  0.00  0.00    +0.000 A 
ATOM      7  C23 UNL     1      76.893  63.634 109.580  0.00  0.00    +0.000 A 
ATOM      8  C24 UNL     1      77.883  62.919 110.259  0.00  0.00    +0.000 A 
ATOM      9  C25 UNL     1      77.527  61.970 111.220  0.00  0.00    +0.000 A 
ATOM     10  F1  UNL     1      78.489  61.280 111.884  0.00  0.00    +0.000 F 
ATOM     11  C26 UNL     1      76.178  61.732 111.499  0.00  0.00    +0.000 A 
ATOM     12  C27 UNL     1      75.185  62.450 110.829  0.00  0.00    +0.000 A 
ENDBRANCH   4   6
BRANCH   3  13
ATOM     13  C28 UNL     1      74.199  66.048 110.839  0.00  0.00    +0.000 A 
ATOM     14  C29 UNL     1      73.467  65.731 111.995  0.00  0.00    +0.000 A 
ATOM     15  C30 UNL     1      73.713  66.411 113.192  0.00  0.00    +0.000 A 
ATOM     16  C31 UNL     1      74.685  67.414 113.243  0.00  0.00    +0.000 A 
ATOM     17  C32 UNL     1      75.416  67.735 112.097  0.00  0.00    +0.000 A 
ATOM     18  C33 UNL     1      75.178  67.054 110.901  0.00  0.00    +0.000 A 
ENDBRANCH   3  13
BRANCH   2  19
ATOM     19  C6  UNL     1      72.216  66.950 108.609  0.00  0.00    +0.000 C 
ATOM     20  O1  UNL     1      71.267  66.983 109.437  0.00  0.00    +0.000 OA
ATOM     21  N1  UNL     1      72.534  68.105 107.818  0.00  0.00    +0.000 N 
ATOM     22  H8  UNL     1      73.526  68.208 107.506  0.00  0.00    +0.000 HD
BRANCH  21  23
ATOM     23  C7  UNL     1      71.601  69.146 107.474  0.00  0.00    +0.000 A 
ATOM     24  C8  UNL     1      71.707  70.449 108.002  0.00  0.00    +0.000 A 
ATOM     25  C9  UNL     1      70.756  71.423 107.678  0.00  0.00    +0.000 A 
ATOM     26  C10 UNL     1      69.688  71.105 106.837  0.00  0.00    +0.000 A 
ATOM     27  C11 UNL     1      69.564  69.811 106.323  0.00  0.00    +0.000 A 
ATOM     28  C12 UNL     1      70.512  68.836 106.644  0.00  0.00    +0.000 A 
ENDBRANCH  21  23
ENDBRANCH   2  19
BRANCH   1  30
ATOM     29  C1  UNL     1      72.745  65.797 105.252  0.00  0.00    +0.000 C 
ATOM     30  C2  UNL     1      72.301  64.737 106.267  0.00  0.00    +0.000 C 
ATOM     31  C3  UNL     1      70.798  64.822 106.548  0.00  0.00    +0.000 C 
ENDBRANCH   1  30
BRANCH   5  32
ATOM     32  C15 UNL     1      74.417  62.629 107.148  0.00  0.00    +0.000 C 
BRANCH  32  33
ATOM     33  C16 UNL     1      73.555  61.404 107.496  0.00  0.00    +0.000 C 
BRANCH  33  34
ATOM     34  C17 UNL     1      72.789  60.797 106.291  0.00  0.00    +0.000 C 
BRANCH  34  35
ATOM     35  O2  UNL     1      73.070  59.431 106.123  0.00  0.00    +0.000 OA
ATOM     36  H19 UNL     1      72.402  58.930 106.660  0.00  0.00    +0.000 HD
ENDBRANCH  34  35
BRANCH  34  37
ATOM     37  C18 UNL     1      73.011  61.559 104.963  0.00  0.00    +0.000 C 
BRANCH  37  38
ATOM     38  C19 UNL     1      71.921  61.352 103.883  0.00  0.00    +0.000 C 
BRANCH  38  39
ATOM     39  O3  UNL     1      70.826  60.634 104.399  0.00  0.00    +0.000 OA
ATOM     40  H23 UNL     1      70.619  61.010 105.296  0.00  0.00    +0.000 HD
ENDBRANCH  38  39
BRANCH  38  41
ATOM     41  C20 UNL     1      71.426  62.694 103.300  0.00  0.00    +0.000 C 
BRANCH  41  42
ATOM     42  C21 UNL     1      70.564  62.510 102.090  0.00  0.00    +0.000 C 
ATOM     43  O4  UNL     1      69.592  61.516 102.073  0.00  0.00    +0.000 OA
ATOM     44  O5  UNL     1      70.726  63.242 101.078  0.00  0.00    +0.000 OA
ENDBRANCH  41  42
ENDBRANCH  38  41
ENDBRANCH  37  38
ENDBRANCH  34  37
ENDBRANCH  33  34
ENDBRANCH  32  33
ENDBRANCH   5  32
TORSDOF 14
ENDMDL
MODEL 14
REMARK VINA RESULT:      -6.1      3.417      6.226
REMARK  Name = ./S2077.pdb
REMARK  16 active torsions:
REMARK  status: ('A' for Active; 'I' for Inactive)
REMARK    1  A    between atoms: C1_1  and  C2_2
REMARK    2  A    between atoms: C2_2  and  C3_3
REMARK    3  A    between atoms: C2_2  and  C4_4
REMARK    4  A    between atoms: C5_5  and  C6_6
REMARK    5  A    between atoms: N1_8  and  C7_9
REMARK    6  A    between atoms: C13_15  and  C28_36
REMARK    7  A    between atoms: C14_16  and  C22_29
REMARK    8  A    between atoms: N2_17  and  C15_18
REMARK    9  A    between atoms: C15_18  and  C16_19
REMARK   10  A    between atoms: C16_19  and  C17_20
REMARK   11  A    between atoms: C17_20  and  O2_21
REMARK   12  A    between atoms: C17_20  and  C18_22
REMARK   13  A    between atoms: C18_22  and  C19_23
REMARK   14  A    between atoms: C19_23  and  O3_24
REMARK   15  A    between atoms: C19_23  and  C20_25
REMARK   16  A    between atoms: C20_25  and  C21_26
REMARK                            x       y       z     vdW  Elec       q    Type
REMARK                         _______ _______ _______ _____ _____    ______ ____
ROOT
ATOM      1  C4  UNL     1      74.818  63.038 109.607  0.00  0.00    +0.000 A 
ATOM      2  C5  UNL     1      74.296  64.310 109.871  0.00  0.00    +0.000 A 
ATOM      3  C13 UNL     1      73.403  64.600 108.852  0.00  0.00    +0.000 A 
ATOM      4  C14 UNL     1      73.396  63.501 108.010  0.00  0.00    +0.000 A 
ATOM      5  N2  UNL     1      74.258  62.558 108.461  0.00  0.00    +0.000 N 
ENDROOT
BRANCH   4   6
ATOM      6  C22 UNL     1      72.504  63.337 106.845  0.00  0.00    +0.000 A 
ATOM      7  C23 UNL     1      72.937  63.695 105.560  0.00  0.00    +0.000 A 
ATOM      8  C24 UNL     1      72.080  63.552 104.465  0.00  0.00    +0.000 A 
ATOM      9  C25 UNL     1      70.784  63.065 104.650  0.00  0.00    +0.000 A 
ATOM     10  F1  UNL     1      69.954  62.920 103.586  0.00  0.00    +0.000 F 
ATOM     11  C26 UNL     1      70.343  62.724 105.932  0.00  0.00    +0.000 A 
ATOM     12  C27 UNL     1      71.199  62.858 107.027  0.00  0.00    +0.000 A 
ENDBRANCH   4   6
BRANCH   3  13
ATOM     13  C28 UNL     1      72.615  65.844 108.686  0.00  0.00    +0.000 A 
ATOM     14  C29 UNL     1      73.126  66.921 107.943  0.00  0.00    +0.000 A 
ATOM     15  C30 UNL     1      72.384  68.099 107.808  0.00  0.00    +0.000 A 
ATOM     16  C31 UNL     1      71.131  68.212 108.416  0.00  0.00    +0.000 A 
ATOM     17  C32 UNL     1      70.616  67.146 109.156  0.00  0.00    +0.000 A 
ATOM     18  C33 UNL     1      71.351  65.966 109.290  0.00  0.00    +0.000 A 
ENDBRANCH   3  13
BRANCH   2  19
ATOM     19  C6  UNL     1      74.666  65.237 110.953  0.00  0.00    +0.000 C 
ATOM     20  O1  UNL     1      75.515  66.139 110.722  0.00  0.00    +0.000 OA
ATOM     21  N1  UNL     1      73.980  65.187 112.213  0.00  0.00    +0.000 N 
ATOM     22  H8  UNL     1      73.026  64.758 112.218  0.00  0.00    +0.000 HD
BRANCH  21  23
ATOM     23  C7  UNL     1      74.489  65.728 113.446  0.00  0.00    +0.000 A 
ATOM     24  C8  UNL     1      74.504  67.113 113.704  0.00  0.00    +0.000 A 
ATOM     25  C9  UNL     1      75.047  67.605 114.897  0.00  0.00    +0.000 A 
ATOM     26  C10 UNL     1      75.588  66.723 115.835  0.00  0.00    +0.000 A 
ATOM     27  C11 UNL     1      75.594  65.350 115.580  0.00  0.00    +0.000 A 
ATOM     28  C12 UNL     1      75.053  64.855 114.390  0.00  0.00    +0.000 A 
ENDBRANCH  21  23
ENDBRANCH   2  19
BRANCH   1  30
ATOM     29  C1  UNL     1      75.455  62.005 111.844  0.00  0.00    +0.000 C 
ATOM     30  C2  UNL     1      75.893  62.307 110.406  0.00  0.00    +0.000 C 
ATOM     31  C3  UNL     1      77.234  63.046 110.370  0.00  0.00    +0.000 C 
ENDBRANCH   1  30
BRANCH   5  32
ATOM     32  C15 UNL     1      74.449  61.226 107.867  0.00  0.00    +0.000 C 
BRANCH  32  33
ATOM     33  C16 UNL     1      73.635  60.173 108.637  0.00  0.00    +0.000 C 
BRANCH  33  34
ATOM     34  C17 UNL     1      73.265  58.916 107.806  0.00  0.00    +0.000 C 
BRANCH  34  35
ATOM     35  O2  UNL     1      74.391  58.128 107.514  0.00  0.00    +0.000 OA
ATOM     36  H19 UNL     1      75.016  58.697 106.995  0.00  0.00    +0.000 HD
ENDBRANCH  34  35
BRANCH  34  37
ATOM     37  C18 UNL     1      72.481  59.234 106.512  0.00  0.00    +0.000 C 
BRANCH  37  38
ATOM     38  C19 UNL     1      73.220  58.919 105.187  0.00  0.00    +0.000 C 
BRANCH  38  39
ATOM     39  O3  UNL     1      72.506  57.982 104.419  0.00  0.00    +0.000 OA
ATOM     40  H23 UNL     1      73.013  57.836 103.577  0.00  0.00    +0.000 HD
ENDBRANCH  38  39
BRANCH  38  41
ATOM     41  C20 UNL     1      73.463  60.192 104.348  0.00  0.00    +0.000 C 
BRANCH  41  42
ATOM     42  C21 UNL     1      73.007  60.040 102.930  0.00  0.00    +0.000 C 
ATOM     43  O4  UNL     1      71.701  60.364 102.582  0.00  0.00    +0.000 OA
ATOM     44  O5  UNL     1      73.797  59.603 102.052  0.00  0.00    +0.000 OA
ENDBRANCH  41  42
ENDBRANCH  38  41
ENDBRANCH  37  38
ENDBRANCH  34  37
ENDBRANCH  33  34
ENDBRANCH  32  33
ENDBRANCH   5  32
TORSDOF 14
ENDMDL
MODEL 15
REMARK VINA RESULT:      -6.1      3.779      8.338
REMARK  Name = ./S2077.pdb
REMARK  16 active torsions:
REMARK  status: ('A' for Active; 'I' for Inactive)
REMARK    1  A    between atoms: C1_1  and  C2_2
REMARK    2  A    between atoms: C2_2  and  C3_3
REMARK    3  A    between atoms: C2_2  and  C4_4
REMARK    4  A    between atoms: C5_5  and  C6_6
REMARK    5  A    between atoms: N1_8  and  C7_9
REMARK    6  A    between atoms: C13_15  and  C28_36
REMARK    7  A    between atoms: C14_16  and  C22_29
REMARK    8  A    between atoms: N2_17  and  C15_18
REMARK    9  A    between atoms: C15_18  and  C16_19
REMARK   10  A    between atoms: C16_19  and  C17_20
REMARK   11  A    between atoms: C17_20  and  O2_21
REMARK   12  A    between atoms: C17_20  and  C18_22
REMARK   13  A    between atoms: C18_22  and  C19_23
REMARK   14  A    between atoms: C19_23  and  O3_24
REMARK   15  A    between atoms: C19_23  and  C20_25
REMARK   16  A    between atoms: C20_25  and  C21_26
REMARK                            x       y       z     vdW  Elec       q    Type
REMARK                         _______ _______ _______ _____ _____    ______ ____
ROOT
ATOM      1  C4  UNL     1      72.633  64.607 107.519  0.00  0.00    +0.000 A 
ATOM      2  C5  UNL     1      72.686  65.651 108.450  0.00  0.00    +0.000 A 
ATOM      3  C13 UNL     1      73.644  65.307 109.391  0.00  0.00    +0.000 A 
ATOM      4  C14 UNL     1      74.153  64.080 109.001  0.00  0.00    +0.000 A 
ATOM      5  N2  UNL     1      73.537  63.651 107.873  0.00  0.00    +0.000 N 
ENDROOT
BRANCH   4   6
ATOM      6  C22 UNL     1      75.277  63.385 109.662  0.00  0.00    +0.000 A 
ATOM      7  C23 UNL     1      75.043  62.512 110.735  0.00  0.00    +0.000 A 
ATOM      8  C24 UNL     1      76.114  61.873 111.365  0.00  0.00    +0.000 A 
ATOM      9  C25 UNL     1      77.422  62.111 110.937  0.00  0.00    +0.000 A 
ATOM     10  F1  UNL     1      78.461  61.485 111.545  0.00  0.00    +0.000 F 
ATOM     11  C26 UNL     1      77.660  62.994 109.880  0.00  0.00    +0.000 A 
ATOM     12  C27 UNL     1      76.592  63.629 109.242  0.00  0.00    +0.000 A 
ENDBRANCH   4   6
BRANCH   3  13
ATOM     13  C28 UNL     1      74.042  66.090 110.584  0.00  0.00    +0.000 A 
ATOM     14  C29 UNL     1      75.049  67.066 110.495  0.00  0.00    +0.000 A 
ATOM     15  C30 UNL     1      75.432  67.788 111.630  0.00  0.00    +0.000 A 
ATOM     16  C31 UNL     1      74.818  67.537 112.861  0.00  0.00    +0.000 A 
ATOM     17  C32 UNL     1      73.817  66.569 112.957  0.00  0.00    +0.000 A 
ATOM     18  C33 UNL     1      73.427  65.850 111.824  0.00  0.00    +0.000 A 
ENDBRANCH   3  13
BRANCH   2  19
ATOM     19  C6  UNL     1      71.839  66.853 108.515  0.00  0.00    +0.000 C 
ATOM     20  O1  UNL     1      70.834  66.853 109.276  0.00  0.00    +0.000 OA
ATOM     21  N1  UNL     1      72.224  68.046 107.816  0.00  0.00    +0.000 N 
ATOM     22  H8  UNL     1      73.236  68.153 107.579  0.00  0.00    +0.000 HD
BRANCH  21  23
ATOM     23  C7  UNL     1      71.327  69.117 107.466  0.00  0.00    +0.000 A 
ATOM     24  C8  UNL     1      70.263  68.935 106.560  0.00  0.00    +0.000 A 
ATOM     25  C9  UNL     1      69.438  70.011 106.212  0.00  0.00    +0.000 A 
ATOM     26  C10 UNL     1      69.673  71.276 106.753  0.00  0.00    +0.000 A 
ATOM     27  C11 UNL     1      70.736  71.470 107.638  0.00  0.00    +0.000 A 
ATOM     28  C12 UNL     1      71.562  70.399 107.988  0.00  0.00    +0.000 A 
ENDBRANCH  21  23
ENDBRANCH   2  19
BRANCH   1  30
ATOM     29  C1  UNL     1      70.588  63.438 106.556  0.00  0.00    +0.000 C 
ATOM     30  C2  UNL     1      71.683  64.488 106.331  0.00  0.00    +0.000 C 
ATOM     31  C3  UNL     1      72.436  64.243 105.020  0.00  0.00    +0.000 C 
ENDBRANCH   1  30
BRANCH   5  32
ATOM     32  C15 UNL     1      73.881  62.430 107.128  0.00  0.00    +0.000 C 
BRANCH  32  33
ATOM     33  C16 UNL     1      73.258  61.197 107.802  0.00  0.00    +0.000 C 
BRANCH  33  34
ATOM     34  C17 UNL     1      74.064  59.885 107.606  0.00  0.00    +0.000 C 
BRANCH  34  35
ATOM     35  O2  UNL     1      75.088  59.749 108.559  0.00  0.00    +0.000 OA
ATOM     36  H19 UNL     1      75.178  60.626 109.014  0.00  0.00    +0.000 HD
ENDBRANCH  34  35
BRANCH  34  37
ATOM     37  C18 UNL     1      74.632  59.710 106.178  0.00  0.00    +0.000 C 
BRANCH  37  38
ATOM     38  C19 UNL     1      74.330  58.350 105.501  0.00  0.00    +0.000 C 
BRANCH  38  39
ATOM     39  O3  UNL     1      74.654  57.278 106.352  0.00  0.00    +0.000 OA
ATOM     40  H23 UNL     1      74.137  57.396 107.192  0.00  0.00    +0.000 HD
ENDBRANCH  38  39
BRANCH  38  41
ATOM     41  C20 UNL     1      72.851  58.236 105.072  0.00  0.00    +0.000 C 
BRANCH  41  42
ATOM     42  C21 UNL     1      72.147  57.093 105.737  0.00  0.00    +0.000 C 
ATOM     43  O4  UNL     1      71.601  56.072 104.969  0.00  0.00    +0.000 OA
ATOM     44  O5  UNL     1      72.034  57.061 106.991  0.00  0.00    +0.000 OA
ENDBRANCH  41  42
ENDBRANCH  38  41
ENDBRANCH  37  38
ENDBRANCH  34  37
ENDBRANCH  33  34
ENDBRANCH  32  33
ENDBRANCH   5  32
TORSDOF 14
ENDMDL
MODEL 16
REMARK VINA RESULT:      -6.1      3.399      6.880
REMARK  Name = ./S2077.pdb
REMARK  16 active torsions:
REMARK  status: ('A' for Active; 'I' for Inactive)
REMARK    1  A    between atoms: C1_1  and  C2_2
REMARK    2  A    between atoms: C2_2  and  C3_3
REMARK    3  A    between atoms: C2_2  and  C4_4
REMARK    4  A    between atoms: C5_5  and  C6_6
REMARK    5  A    between atoms: N1_8  and  C7_9
REMARK    6  A    between atoms: C13_15  and  C28_36
REMARK    7  A    between atoms: C14_16  and  C22_29
REMARK    8  A    between atoms: N2_17  and  C15_18
REMARK    9  A    between atoms: C15_18  and  C16_19
REMARK   10  A    between atoms: C16_19  and  C17_20
REMARK   11  A    between atoms: C17_20  and  O2_21
REMARK   12  A    between atoms: C17_20  and  C18_22
REMARK   13  A    between atoms: C18_22  and  C19_23
REMARK   14  A    between atoms: C19_23  and  O3_24
REMARK   15  A    between atoms: C19_23  and  C20_25
REMARK   16  A    between atoms: C20_25  and  C21_26
REMARK                            x       y       z     vdW  Elec       q    Type
REMARK                         _______ _______ _______ _____ _____    ______ ____
ROOT
ATOM      1  C4  UNL     1      72.520  64.771 108.538  0.00  0.00    +0.000 A 
ATOM      2  C5  UNL     1      73.504  63.807 108.783  0.00  0.00    +0.000 A 
ATOM      3  C13 UNL     1      74.154  64.179 109.949  0.00  0.00    +0.000 A 
ATOM      4  C14 UNL     1      73.543  65.341 110.386  0.00  0.00    +0.000 A 
ATOM      5  N2  UNL     1      72.558  65.706 109.529  0.00  0.00    +0.000 N 
ENDROOT
BRANCH   4   6
ATOM      6  C22 UNL     1      73.850  66.030 111.655  0.00  0.00    +0.000 A 
ATOM      7  C23 UNL     1      74.920  66.934 111.735  0.00  0.00    +0.000 A 
ATOM      8  C24 UNL     1      75.214  67.567 112.946  0.00  0.00    +0.000 A 
ATOM      9  C25 UNL     1      74.451  67.293 114.083  0.00  0.00    +0.000 A 
ATOM     10  F1  UNL     1      74.733  67.914 115.257  0.00  0.00    +0.000 F 
ATOM     11  C26 UNL     1      73.396  66.380 114.011  0.00  0.00    +0.000 A 
ATOM     12  C27 UNL     1      73.093  65.750 112.802  0.00  0.00    +0.000 A 
ENDBRANCH   4   6
BRANCH   3  13
ATOM     13  C28 UNL     1      75.286  63.478 110.600  0.00  0.00    +0.000 A 
ATOM     14  C29 UNL     1      76.602  63.671 110.148  0.00  0.00    +0.000 A 
ATOM     15  C30 UNL     1      77.662  62.991 110.754  0.00  0.00    +0.000 A 
ATOM     16  C31 UNL     1      77.417  62.111 111.813  0.00  0.00    +0.000 A 
ATOM     17  C32 UNL     1      76.112  61.914 112.268  0.00  0.00    +0.000 A 
ATOM     18  C33 UNL     1      75.050  62.595 111.668  0.00  0.00    +0.000 A 
ENDBRANCH   3  13
BRANCH   2  19
ATOM     19  C6  UNL     1      73.880  62.659 107.942  0.00  0.00    +0.000 C 
ATOM     20  O1  UNL     1      74.617  62.852 106.937  0.00  0.00    +0.000 OA
ATOM     21  N1  UNL     1      73.512  61.327 108.330  0.00  0.00    +0.000 N 
ATOM     22  H8  UNL     1      73.309  61.167 109.343  0.00  0.00    +0.000 HD
BRANCH  21  23
ATOM     23  C7  UNL     1      73.454  60.199 107.438  0.00  0.00    +0.000 A 
ATOM     24  C8  UNL     1      74.590  59.415 107.150  0.00  0.00    +0.000 A 
ATOM     25  C9  UNL     1      74.504  58.352 106.244  0.00  0.00    +0.000 A 
ATOM     26  C10 UNL     1      73.293  58.069 105.610  0.00  0.00    +0.000 A 
ATOM     27  C11 UNL     1      72.166  58.851 105.876  0.00  0.00    +0.000 A 
ATOM     28  C12 UNL     1      72.247  59.914 106.779  0.00  0.00    +0.000 A 
ENDBRANCH  21  23
ENDBRANCH   2  19
BRANCH   1  30
ATOM     29  C1  UNL     1      70.956  63.482 106.998  0.00  0.00    +0.000 C 
ATOM     30  C2  UNL     1      71.585  64.840 107.333  0.00  0.00    +0.000 C 
ATOM     31  C3  UNL     1      72.273  65.458 106.112  0.00  0.00    +0.000 C 
ENDBRANCH   1  30
BRANCH   5  32
ATOM     32  C15 UNL     1      71.643  66.842 109.718  0.00  0.00    +0.000 C 
BRANCH  32  33
ATOM     33  C16 UNL     1      71.998  67.984 108.753  0.00  0.00    +0.000 C 
BRANCH  33  34
ATOM     34  C17 UNL     1      70.770  68.700 108.130  0.00  0.00    +0.000 C 
BRANCH  34  35
ATOM     35  O2  UNL     1      69.694  67.819 107.927  0.00  0.00    +0.000 OA
ATOM     36  H19 UNL     1      69.107  67.892 108.724  0.00  0.00    +0.000 HD
ENDBRANCH  34  35
BRANCH  34  37
ATOM     37  C18 UNL     1      71.091  69.466 106.825  0.00  0.00    +0.000 C 
BRANCH  37  38
ATOM     38  C19 UNL     1      69.959  69.491 105.768  0.00  0.00    +0.000 C 
BRANCH  38  39
ATOM     39  O3  UNL     1      68.744  69.913 106.339  0.00  0.00    +0.000 OA
ATOM     40  H23 UNL     1      68.288  70.495 105.675  0.00  0.00    +0.000 HD
ENDBRANCH  38  39
BRANCH  38  41
ATOM     41  C20 UNL     1      70.308  70.404 104.573  0.00  0.00    +0.000 C 
BRANCH  41  42
ATOM     42  C21 UNL     1      69.092  70.882 103.842  0.00  0.00    +0.000 C 
ATOM     43  O4  UNL     1      68.283  71.861 104.405  0.00  0.00    +0.000 OA
ATOM     44  O5  UNL     1      68.788  70.388 102.724  0.00  0.00    +0.000 OA
ENDBRANCH  41  42
ENDBRANCH  38  41
ENDBRANCH  37  38
ENDBRANCH  34  37
ENDBRANCH  33  34
ENDBRANCH  32  33
ENDBRANCH   5  32
TORSDOF 14
ENDMDL
MODEL 17
REMARK VINA RESULT:      -6.1      1.985      3.909
REMARK  Name = ./S2077.pdb
REMARK  16 active torsions:
REMARK  status: ('A' for Active; 'I' for Inactive)
REMARK    1  A    between atoms: C1_1  and  C2_2
REMARK    2  A    between atoms: C2_2  and  C3_3
REMARK    3  A    between atoms: C2_2  and  C4_4
REMARK    4  A    between atoms: C5_5  and  C6_6
REMARK    5  A    between atoms: N1_8  and  C7_9
REMARK    6  A    between atoms: C13_15  and  C28_36
REMARK    7  A    between atoms: C14_16  and  C22_29
REMARK    8  A    between atoms: N2_17  and  C15_18
REMARK    9  A    between atoms: C15_18  and  C16_19
REMARK   10  A    between atoms: C16_19  and  C17_20
REMARK   11  A    between atoms: C17_20  and  O2_21
REMARK   12  A    between atoms: C17_20  and  C18_22
REMARK   13  A    between atoms: C18_22  and  C19_23
REMARK   14  A    between atoms: C19_23  and  O3_24
REMARK   15  A    between atoms: C19_23  and  C20_25
REMARK   16  A    between atoms: C20_25  and  C21_26
REMARK                            x       y       z     vdW  Elec       q    Type
REMARK                         _______ _______ _______ _____ _____    ______ ____
ROOT
ATOM      1  C4  UNL     1      72.529  63.892 108.664  0.00  0.00    +0.000 A 
ATOM      2  C5  UNL     1      73.379  62.794 108.486  0.00  0.00    +0.000 A 
ATOM      3  C13 UNL     1      73.128  62.289 107.220  0.00  0.00    +0.000 A 
ATOM      4  C14 UNL     1      72.151  63.096 106.662  0.00  0.00    +0.000 A 
ATOM      5  N2  UNL     1      71.782  64.062 107.538  0.00  0.00    +0.000 N 
ENDROOT
BRANCH   4   6
ATOM      6  C22 UNL     1      71.656  62.984 105.276  0.00  0.00    +0.000 A 
ATOM      7  C23 UNL     1      72.475  63.344 104.195  0.00  0.00    +0.000 A 
ATOM      8  C24 UNL     1      71.992  63.252 102.887  0.00  0.00    +0.000 A 
ATOM      9  C25 UNL     1      70.687  62.812 102.652  0.00  0.00    +0.000 A 
ATOM     10  F1  UNL     1      70.220  62.716 101.382  0.00  0.00    +0.000 F 
ATOM     11  C26 UNL     1      69.862  62.470 103.727  0.00  0.00    +0.000 A 
ATOM     12  C27 UNL     1      70.343  62.554 105.036  0.00  0.00    +0.000 A 
ENDBRANCH   4   6
BRANCH   3  13
ATOM     13  C28 UNL     1      73.770  61.114 106.587  0.00  0.00    +0.000 A 
ATOM     14  C29 UNL     1      75.017  61.235 105.951  0.00  0.00    +0.000 A 
ATOM     15  C30 UNL     1      75.607  60.125 105.339  0.00  0.00    +0.000 A 
ATOM     16  C31 UNL     1      74.956  58.888 105.354  0.00  0.00    +0.000 A 
ATOM     17  C32 UNL     1      73.717  58.759 105.984  0.00  0.00    +0.000 A 
ATOM     18  C33 UNL     1      73.126  59.864 106.601  0.00  0.00    +0.000 A 
ENDBRANCH   3  13
BRANCH   2  19
ATOM     19  C6  UNL     1      74.303  62.193 109.461  0.00  0.00    +0.000 C 
ATOM     20  O1  UNL     1      74.083  61.022 109.872  0.00  0.00    +0.000 OA
ATOM     21  N1  UNL     1      75.500  62.887 109.844  0.00  0.00    +0.000 N 
ATOM     22  H8  UNL     1      75.864  63.609 109.180  0.00  0.00    +0.000 HD
BRANCH  21  23
ATOM     23  C7  UNL     1      76.255  62.622 111.041  0.00  0.00    +0.000 A 
ATOM     24  C8  UNL     1      75.958  63.255 112.265  0.00  0.00    +0.000 A 
ATOM     25  C9  UNL     1      76.741  63.006 113.399  0.00  0.00    +0.000 A 
ATOM     26  C10 UNL     1      77.829  62.135 113.318  0.00  0.00    +0.000 A 
ATOM     27  C11 UNL     1      78.142  61.517 112.105  0.00  0.00    +0.000 A 
ATOM     28  C12 UNL     1      77.363  61.763 110.972  0.00  0.00    +0.000 A 
ENDBRANCH  21  23
ENDBRANCH   2  19
BRANCH   1  30
ATOM     29  C1  UNL     1      70.921  65.090 110.232  0.00  0.00    +0.000 C 
ATOM     30  C2  UNL     1      72.382  64.740 109.925  0.00  0.00    +0.000 C 
ATOM     31  C3  UNL     1      73.261  65.993 109.875  0.00  0.00    +0.000 C 
ENDBRANCH   1  30
BRANCH   5  32
ATOM     32  C15 UNL     1      70.830  65.148 107.255  0.00  0.00    +0.000 C 
BRANCH  32  33
ATOM     33  C16 UNL     1      71.566  66.371 106.685  0.00  0.00    +0.000 C 
BRANCH  33  34
ATOM     34  C17 UNL     1      71.208  67.714 107.376  0.00  0.00    +0.000 C 
BRANCH  34  35
ATOM     35  O2  UNL     1      69.929  67.682 107.956  0.00  0.00    +0.000 OA
ATOM     36  H19 UNL     1      69.373  67.079 107.397  0.00  0.00    +0.000 HD
ENDBRANCH  34  35
BRANCH  34  37
ATOM     37  C18 UNL     1      71.349  68.947 106.453  0.00  0.00    +0.000 C 
BRANCH  37  38
ATOM     38  C19 UNL     1      70.096  69.304 105.617  0.00  0.00    +0.000 C 
BRANCH  38  39
ATOM     39  O3  UNL     1      69.069  69.809 106.435  0.00  0.00    +0.000 OA
ATOM     40  H23 UNL     1      69.048  69.259 107.263  0.00  0.00    +0.000 HD
ENDBRANCH  38  39
BRANCH  38  41
ATOM     41  C20 UNL     1      70.417  70.327 104.506  0.00  0.00    +0.000 C 
BRANCH  41  42
ATOM     42  C21 UNL     1      69.201  70.738 103.735  0.00  0.00    +0.000 C 
ATOM     43  O4  UNL     1      69.051  70.343 102.411  0.00  0.00    +0.000 OA
ATOM     44  O5  UNL     1      68.319  71.456 104.276  0.00  0.00    +0.000 OA
ENDBRANCH  41  42
ENDBRANCH  38  41
ENDBRANCH  37  38
ENDBRANCH  34  37
ENDBRANCH  33  34
ENDBRANCH  32  33
ENDBRANCH   5  32
TORSDOF 14
ENDMDL
MODEL 18
REMARK VINA RESULT:      -6.0      3.368      6.955
REMARK  Name = ./S2077.pdb
REMARK  16 active torsions:
REMARK  status: ('A' for Active; 'I' for Inactive)
REMARK    1  A    between atoms: C1_1  and  C2_2
REMARK    2  A    between atoms: C2_2  and  C3_3
REMARK    3  A    between atoms: C2_2  and  C4_4
REMARK    4  A    between atoms: C5_5  and  C6_6
REMARK    5  A    between atoms: N1_8  and  C7_9
REMARK    6  A    between atoms: C13_15  and  C28_36
REMARK    7  A    between atoms: C14_16  and  C22_29
REMARK    8  A    between atoms: N2_17  and  C15_18
REMARK    9  A    between atoms: C15_18  and  C16_19
REMARK   10  A    between atoms: C16_19  and  C17_20
REMARK   11  A    between atoms: C17_20  and  O2_21
REMARK   12  A    between atoms: C17_20  and  C18_22
REMARK   13  A    between atoms: C18_22  and  C19_23
REMARK   14  A    between atoms: C19_23  and  O3_24
REMARK   15  A    between atoms: C19_23  and  C20_25
REMARK   16  A    between atoms: C20_25  and  C21_26
REMARK                            x       y       z     vdW  Elec       q    Type
REMARK                         _______ _______ _______ _____ _____    ______ ____
ROOT
ATOM      1  C4  UNL     1      72.807  65.034 107.908  0.00  0.00    +0.000 A 
ATOM      2  C5  UNL     1      72.684  63.763 107.336  0.00  0.00    +0.000 A 
ATOM      3  C13 UNL     1      73.655  62.962 107.917  0.00  0.00    +0.000 A 
ATOM      4  C14 UNL     1      74.327  63.758 108.828  0.00  0.00    +0.000 A 
ATOM      5  N2  UNL     1      73.820  65.015 108.819  0.00  0.00    +0.000 N 
ENDROOT
BRANCH   4   6
ATOM      6  C22 UNL     1      75.376  63.282 109.751  0.00  0.00    +0.000 A 
ATOM      7  C23 UNL     1      75.035  62.753 111.006  0.00  0.00    +0.000 A 
ATOM      8  C24 UNL     1      76.035  62.321 111.880  0.00  0.00    +0.000 A 
ATOM      9  C25 UNL     1      77.379  62.425 111.513  0.00  0.00    +0.000 A 
ATOM     10  F1  UNL     1      78.350  61.999 112.360  0.00  0.00    +0.000 F 
ATOM     11  C26 UNL     1      77.723  62.967 110.272  0.00  0.00    +0.000 A 
ATOM     12  C27 UNL     1      76.726  63.394 109.391  0.00  0.00    +0.000 A 
ENDBRANCH   4   6
BRANCH   3  13
ATOM     13  C28 UNL     1      73.930  61.537 107.617  0.00  0.00    +0.000 A 
ATOM     14  C29 UNL     1      74.804  61.181 106.577  0.00  0.00    +0.000 A 
ATOM     15  C30 UNL     1      75.043  59.833 106.289  0.00  0.00    +0.000 A 
ATOM     16  C31 UNL     1      74.409  58.834 107.032  0.00  0.00    +0.000 A 
ATOM     17  C32 UNL     1      73.538  59.180 108.067  0.00  0.00    +0.000 A 
ATOM     18  C33 UNL     1      73.301  60.525 108.362  0.00  0.00    +0.000 A 
ENDBRANCH   3  13
BRANCH   2  19
ATOM     19  C6  UNL     1      71.781  63.337 106.254  0.00  0.00    +0.000 C 
ATOM     20  O1  UNL     1      70.627  62.924 106.547  0.00  0.00    +0.000 OA
ATOM     21  N1  UNL     1      72.169  63.505 104.882  0.00  0.00    +0.000 N 
ATOM     22  H8  UNL     1      72.896  64.228 104.679  0.00  0.00    +0.000 HD
BRANCH  21  23
ATOM     23  C7  UNL     1      71.593  62.789 103.773  0.00  0.00    +0.000 A 
ATOM     24  C8  UNL     1      70.289  63.055 103.309  0.00  0.00    +0.000 A 
ATOM     25  C9  UNL     1      69.747  62.310 102.256  0.00  0.00    +0.000 A 
ATOM     26  C10 UNL     1      70.493  61.288 101.667  0.00  0.00    +0.000 A 
ATOM     27  C11 UNL     1      71.780  61.005 102.131  0.00  0.00    +0.000 A 
ATOM     28  C12 UNL     1      72.324  61.747 103.183  0.00  0.00    +0.000 A 
ENDBRANCH  21  23
ENDBRANCH   2  19
BRANCH   1  30
ATOM     29  C1  UNL     1      70.500  66.103 107.781  0.00  0.00    +0.000 C 
ATOM     30  C2  UNL     1      72.005  66.282 107.546  0.00  0.00    +0.000 C 
ATOM     31  C3  UNL     1      72.299  66.756 106.120  0.00  0.00    +0.000 C 
ENDBRANCH   1  30
BRANCH   5  32
ATOM     32  C15 UNL     1      74.231  66.105 109.718  0.00  0.00    +0.000 C 
BRANCH  32  33
ATOM     33  C16 UNL     1      73.355  66.117 110.981  0.00  0.00    +0.000 C 
BRANCH  33  34
ATOM     34  C17 UNL     1      73.901  67.008 112.129  0.00  0.00    +0.000 C 
BRANCH  34  35
ATOM     35  O2  UNL     1      74.533  68.165 111.642  0.00  0.00    +0.000 OA
ATOM     36  H19 UNL     1      73.845  68.685 111.151  0.00  0.00    +0.000 HD
ENDBRANCH  34  35
BRANCH  34  37
ATOM     37  C18 UNL     1      74.832  66.259 113.111  0.00  0.00    +0.000 C 
BRANCH  37  38
ATOM     38  C19 UNL     1      75.180  67.020 114.414  0.00  0.00    +0.000 C 
BRANCH  38  39
ATOM     39  O3  UNL     1      75.785  68.258 114.131  0.00  0.00    +0.000 OA
ATOM     40  H23 UNL     1      75.069  68.948 114.132  0.00  0.00    +0.000 HD
ENDBRANCH  38  39
BRANCH  38  41
ATOM     41  C20 UNL     1      73.935  67.247 115.299  0.00  0.00    +0.000 C 
BRANCH  41  42
ATOM     42  C21 UNL     1      74.243  68.042 116.529  0.00  0.00    +0.000 C 
ATOM     43  O4  UNL     1      74.323  67.409 117.764  0.00  0.00    +0.000 OA
ATOM     44  O5  UNL     1      74.414  69.287 116.454  0.00  0.00    +0.000 OA
ENDBRANCH  41  42
ENDBRANCH  38  41
ENDBRANCH  37  38
ENDBRANCH  34  37
ENDBRANCH  33  34
ENDBRANCH  32  33
ENDBRANCH   5  32
TORSDOF 14
ENDMDL
MODEL 19
REMARK VINA RESULT:      -5.9      3.690      5.998
REMARK  Name = ./S2077.pdb
REMARK  16 active torsions:
REMARK  status: ('A' for Active; 'I' for Inactive)
REMARK    1  A    between atoms: C1_1  and  C2_2
REMARK    2  A    between atoms: C2_2  and  C3_3
REMARK    3  A    between atoms: C2_2  and  C4_4
REMARK    4  A    between atoms: C5_5  and  C6_6
REMARK    5  A    between atoms: N1_8  and  C7_9
REMARK    6  A    between atoms: C13_15  and  C28_36
REMARK    7  A    between atoms: C14_16  and  C22_29
REMARK    8  A    between atoms: N2_17  and  C15_18
REMARK    9  A    between atoms: C15_18  and  C16_19
REMARK   10  A    between atoms: C16_19  and  C17_20
REMARK   11  A    between atoms: C17_20  and  O2_21
REMARK   12  A    between atoms: C17_20  and  C18_22
REMARK   13  A    between atoms: C18_22  and  C19_23
REMARK   14  A    between atoms: C19_23  and  O3_24
REMARK   15  A    between atoms: C19_23  and  C20_25
REMARK   16  A    between atoms: C20_25  and  C21_26
REMARK                            x       y       z     vdW  Elec       q    Type
REMARK                         _______ _______ _______ _____ _____    ______ ____
ROOT
ATOM      1  C4  UNL     1      72.970  65.278 108.590  0.00  0.00    +0.000 A 
ATOM      2  C5  UNL     1      73.921  65.072 109.597  0.00  0.00    +0.000 A 
ATOM      3  C13 UNL     1      74.621  63.924 109.264  0.00  0.00    +0.000 A 
ATOM      4  C14 UNL     1      74.091  63.474 108.066  0.00  0.00    +0.000 A 
ATOM      5  N2  UNL     1      73.087  64.289 107.661  0.00  0.00    +0.000 N 
ENDROOT
BRANCH   4   6
ATOM      6  C22 UNL     1      74.612  62.332 107.290  0.00  0.00    +0.000 A 
ATOM      7  C23 UNL     1      74.317  61.015 107.674  0.00  0.00    +0.000 A 
ATOM      8  C24 UNL     1      74.829  59.939 106.944  0.00  0.00    +0.000 A 
ATOM      9  C25 UNL     1      75.647  60.172 105.835  0.00  0.00    +0.000 A 
ATOM     10  F1  UNL     1      76.139  59.127 105.122  0.00  0.00    +0.000 F 
ATOM     11  C26 UNL     1      75.958  61.482 105.461  0.00  0.00    +0.000 A 
ATOM     12  C27 UNL     1      75.443  62.560 106.183  0.00  0.00    +0.000 A 
ENDBRANCH   4   6
BRANCH   3  13
ATOM     13  C28 UNL     1      75.715  63.292 110.037  0.00  0.00    +0.000 A 
ATOM     14  C29 UNL     1      75.429  62.451 111.126  0.00  0.00    +0.000 A 
ATOM     15  C30 UNL     1      76.468  61.875 111.863  0.00  0.00    +0.000 A 
ATOM     16  C31 UNL     1      77.799  62.136 111.522  0.00  0.00    +0.000 A 
ATOM     17  C32 UNL     1      78.091  62.971 110.442  0.00  0.00    +0.000 A 
ATOM     18  C33 UNL     1      77.056  63.544 109.700  0.00  0.00    +0.000 A 
ENDBRANCH   3  13
BRANCH   2  19
ATOM     19  C6  UNL     1      74.110  65.841 110.838  0.00  0.00    +0.000 C 
ATOM     20  O1  UNL     1      74.704  66.952 110.784  0.00  0.00    +0.000 OA
ATOM     21  N1  UNL     1      73.522  65.387 112.066  0.00  0.00    +0.000 N 
ATOM     22  H8  UNL     1      72.702  64.743 111.991  0.00  0.00    +0.000 HD
BRANCH  21  23
ATOM     23  C7  UNL     1      73.948  65.795 113.380  0.00  0.00    +0.000 A 
ATOM     24  C8  UNL     1      75.045  65.193 114.029  0.00  0.00    +0.000 A 
ATOM     25  C9  UNL     1      75.404  65.587 115.324  0.00  0.00    +0.000 A 
ATOM     26  C10 UNL     1      74.667  66.571 115.984  0.00  0.00    +0.000 A 
ATOM     27  C11 UNL     1      73.567  67.160 115.356  0.00  0.00    +0.000 A 
ATOM     28  C12 UNL     1      73.206  66.770 114.063  0.00  0.00    +0.000 A 
ENDBRANCH  21  23
ENDBRANCH   2  19
BRANCH   1  30
ATOM     29  C1  UNL     1      72.523  67.779 108.422  0.00  0.00    +0.000 C 
ATOM     30  C2  UNL     1      71.912  66.377 108.542  0.00  0.00    +0.000 C 
ATOM     31  C3  UNL     1      70.941  66.287 109.723  0.00  0.00    +0.000 C 
ENDBRANCH   1  30
BRANCH   5  32
ATOM     32  C15 UNL     1      72.352  64.167 106.392  0.00  0.00    +0.000 C 
BRANCH  32  33
ATOM     33  C16 UNL     1      71.051  63.377 106.599  0.00  0.00    +0.000 C 
BRANCH  33  34
ATOM     34  C17 UNL     1      70.893  62.147 105.664  0.00  0.00    +0.000 C 
BRANCH  34  35
ATOM     35  O2  UNL     1      72.133  61.674 105.204  0.00  0.00    +0.000 OA
ATOM     36  H19 UNL     1      72.451  61.005 105.865  0.00  0.00    +0.000 HD
ENDBRANCH  34  35
BRANCH  34  37
ATOM     37  C18 UNL     1      69.934  62.388 104.475  0.00  0.00    +0.000 C 
BRANCH  37  38
ATOM     38  C19 UNL     1      70.528  62.112 103.071  0.00  0.00    +0.000 C 
BRANCH  38  39
ATOM     39  O3  UNL     1      70.898  60.762 102.935  0.00  0.00    +0.000 OA
ATOM     40  H23 UNL     1      71.435  60.681 102.102  0.00  0.00    +0.000 HD
ENDBRANCH  38  39
BRANCH  38  41
ATOM     41  C20 UNL     1      69.541  62.490 101.945  0.00  0.00    +0.000 C 
BRANCH  41  42
ATOM     42  C21 UNL     1      69.496  61.465 100.854  0.00  0.00    +0.000 C 
ATOM     43  O4  UNL     1      68.656  60.364 100.970  0.00  0.00    +0.000 OA
ATOM     44  O5  UNL     1      70.229  61.587  99.838  0.00  0.00    +0.000 OA
ENDBRANCH  41  42
ENDBRANCH  38  41
ENDBRANCH  37  38
ENDBRANCH  34  37
ENDBRANCH  33  34
ENDBRANCH  32  33
ENDBRANCH   5  32
TORSDOF 14
ENDMDL
MODEL 20
REMARK VINA RESULT:      -5.8      3.266      8.039
REMARK  Name = ./S2077.pdb
REMARK  16 active torsions:
REMARK  status: ('A' for Active; 'I' for Inactive)
REMARK    1  A    between atoms: C1_1  and  C2_2
REMARK    2  A    between atoms: C2_2  and  C3_3
REMARK    3  A    between atoms: C2_2  and  C4_4
REMARK    4  A    between atoms: C5_5  and  C6_6
REMARK    5  A    between atoms: N1_8  and  C7_9
REMARK    6  A    between atoms: C13_15  and  C28_36
REMARK    7  A    between atoms: C14_16  and  C22_29
REMARK    8  A    between atoms: N2_17  and  C15_18
REMARK    9  A    between atoms: C15_18  and  C16_19
REMARK   10  A    between atoms: C16_19  and  C17_20
REMARK   11  A    between atoms: C17_20  and  O2_21
REMARK   12  A    between atoms: C17_20  and  C18_22
REMARK   13  A    between atoms: C18_22  and  C19_23
REMARK   14  A    between atoms: C19_23  and  O3_24
REMARK   15  A    between atoms: C19_23  and  C20_25
REMARK   16  A    between atoms: C20_25  and  C21_26
REMARK                            x       y       z     vdW  Elec       q    Type
REMARK                         _______ _______ _______ _____ _____    ______ ____
ROOT
ATOM      1  C4  UNL     1      74.338  62.216 109.447  0.00  0.00    +0.000 A 
ATOM      2  C5  UNL     1      73.552  63.100 108.699  0.00  0.00    +0.000 A 
ATOM      3  C13 UNL     1      73.335  64.217 109.492  0.00  0.00    +0.000 A 
ATOM      4  C14 UNL     1      74.000  63.988 110.684  0.00  0.00    +0.000 A 
ATOM      5  N2  UNL     1      74.602  62.774 110.662  0.00  0.00    +0.000 N 
ENDROOT
BRANCH   4   6
ATOM      6  C22 UNL     1      74.123  64.967 111.782  0.00  0.00    +0.000 A 
ATOM      7  C23 UNL     1      73.272  64.900 112.895  0.00  0.00    +0.000 A 
ATOM      8  C24 UNL     1      73.383  65.842 113.922  0.00  0.00    +0.000 A 
ATOM      9  C25 UNL     1      74.336  66.860 113.837  0.00  0.00    +0.000 A 
ATOM     10  F1  UNL     1      74.449  67.770 114.837  0.00  0.00    +0.000 F 
ATOM     11  C26 UNL     1      75.174  66.940 112.722  0.00  0.00    +0.000 A 
ATOM     12  C27 UNL     1      75.071  65.997 111.697  0.00  0.00    +0.000 A 
ENDBRANCH   4   6
BRANCH   3  13
ATOM     13  C28 UNL     1      72.540  65.416 109.141  0.00  0.00    +0.000 A 
ATOM     14  C29 UNL     1      71.199  65.530 109.545  0.00  0.00    +0.000 A 
ATOM     15  C30 UNL     1      70.450  66.657 109.192  0.00  0.00    +0.000 A 
ATOM     16  C31 UNL     1      71.031  67.675 108.432  0.00  0.00    +0.000 A 
ATOM     17  C32 UNL     1      72.363  67.570 108.026  0.00  0.00    +0.000 A 
ATOM     18  C33 UNL     1      73.116  66.448 108.380  0.00  0.00    +0.000 A 
ENDBRANCH   3  13
BRANCH   2  19
ATOM     19  C6  UNL     1      72.964  62.889 107.367  0.00  0.00    +0.000 C 
ATOM     20  O1  UNL     1      71.808  62.395 107.281  0.00  0.00    +0.000 OA
ATOM     21  N1  UNL     1      73.649  63.351 106.194  0.00  0.00    +0.000 N 
ATOM     22  H8  UNL     1      74.347  64.119 106.322  0.00  0.00    +0.000 HD
BRANCH  21  23
ATOM     23  C7  UNL     1      73.405  62.870 104.858  0.00  0.00    +0.000 A 
ATOM     24  C8  UNL     1      74.098  61.765 104.325  0.00  0.00    +0.000 A 
ATOM     25  C9  UNL     1      73.865  61.352 103.008  0.00  0.00    +0.000 A 
ATOM     26  C10 UNL     1      72.952  62.043 102.210  0.00  0.00    +0.000 A 
ATOM     27  C11 UNL     1      72.273  63.151 102.724  0.00  0.00    +0.000 A 
ATOM     28  C12 UNL     1      72.503  63.566 104.039  0.00  0.00    +0.000 A 
ENDBRANCH  21  23
ENDBRANCH   2  19
BRANCH   1  30
ATOM     29  C1  UNL     1      75.470  60.799 107.660  0.00  0.00    +0.000 C 
ATOM     30  C2  UNL     1      74.786  60.816 109.033  0.00  0.00    +0.000 C 
ATOM     31  C3  UNL     1      73.638  59.805 109.102  0.00  0.00    +0.000 C 
ENDBRANCH   1  30
BRANCH   5  32
ATOM     32  C15 UNL     1      75.467  62.233 111.721  0.00  0.00    +0.000 C 
BRANCH  32  33
ATOM     33  C16 UNL     1      76.847  62.910 111.684  0.00  0.00    +0.000 C 
BRANCH  33  34
ATOM     34  C17 UNL     1      77.591  62.772 110.329  0.00  0.00    +0.000 C 
BRANCH  34  35
ATOM     35  O2  UNL     1      78.920  62.349 110.499  0.00  0.00    +0.000 OA
ATOM     36  H19 UNL     1      79.409  63.098 110.930  0.00  0.00    +0.000 HD
ENDBRANCH  34  35
BRANCH  34  37
ATOM     37  C18 UNL     1      77.540  64.048 109.458  0.00  0.00    +0.000 C 
BRANCH  37  38
ATOM     38  C19 UNL     1      77.672  63.822 107.931  0.00  0.00    +0.000 C 
BRANCH  38  39
ATOM     39  O3  UNL     1      76.553  64.332 107.246  0.00  0.00    +0.000 OA
ATOM     40  H23 UNL     1      76.600  64.002 106.309  0.00  0.00    +0.000 HD
ENDBRANCH  38  39
BRANCH  38  41
ATOM     41  C20 UNL     1      78.957  64.463 107.363  0.00  0.00    +0.000 C 
BRANCH  41  42
ATOM     42  C21 UNL     1      78.706  65.807 106.752  0.00  0.00    +0.000 C 
ATOM     43  O4  UNL     1      78.519  66.916 107.567  0.00  0.00    +0.000 OA
ATOM     44  O5  UNL     1      78.647  65.934 105.501  0.00  0.00    +0.000 OA
ENDBRANCH  41  42
ENDBRANCH  38  41
ENDBRANCH  37  38
ENDBRANCH  34  37
ENDBRANCH  33  34
ENDBRANCH  32  33
ENDBRANCH   5  32
TORSDOF 14
ENDMDL
