MODEL 1
REMARK VINA RESULT:      -7.6      0.000      0.000
REMARK  Name = ./S2286.pdb
REMARK  40 active torsions:
REMARK  status: ('A' for Active; 'I' for Inactive)
REMARK    1  A    between atoms: C1_1  and  C2_2
REMARK    2  A    between atoms: C2_2  and  C3_3
REMARK    3  A    between atoms: C5_7  and  C6_8
REMARK    4  A    between atoms: C6_8  and  O2_9
REMARK    5  A    between atoms: C6_8  and  C7_10
REMARK    6  A    between atoms: C7_10  and  C8_11
REMARK    7  A    between atoms: C7_10  and  C9_12
REMARK    8  A    between atoms: C9_12  and  C10_13
REMARK    9  A    between atoms: C11_14  and  C12_15
REMARK   10  A    between atoms: N2_16  and  C13_17
REMARK   11  A    between atoms: C15_20  and  C16_21
REMARK   12  A    between atoms: C16_21  and  C17_22
REMARK   13  A    between atoms: C16_21  and  C18_23
REMARK   14  A    between atoms: N3_24  and  C19_25
REMARK   15  A    between atoms: C21_28  and  C22_29
REMARK   16  A    between atoms: C22_29  and  C23_30
REMARK   17  A    between atoms: C23_30  and  C24_31
REMARK   18  A    between atoms: C23_30  and  C25_32
REMARK   19  A    between atoms: N4_33  and  C26_34
REMARK   20  A    between atoms: C28_37  and  C29_38
REMARK   21  A    between atoms: C29_38  and  C30_39
REMARK   22  A    between atoms: C30_39  and  C31_40
REMARK   23  A    between atoms: C30_39  and  C32_41
REMARK   24  A    between atoms: N5_42  and  C33_43
REMARK   25  A    between atoms: C35_46  and  C36_47
REMARK   26  A    between atoms: C38_51  and  C39_52
REMARK   27  A    between atoms: C41_56  and  C42_57
REMARK   28  A    between atoms: C42_57  and  C43_58
REMARK   29  A    between atoms: C43_58  and  C44_59
REMARK   30  A    between atoms: C43_58  and  C45_60
REMARK   31  A    between atoms: N8_61  and  C46_62
REMARK   32  A    between atoms: C48_65  and  C60_83
REMARK   33  A    between atoms: C50_69  and  C51_70
REMARK   34  A    between atoms: C51_70  and  C52_71
REMARK   35  A    between atoms: C52_71  and  C53_72
REMARK   36  A    between atoms: C52_71  and  C54_73
REMARK   37  A    between atoms: N10_74  and  C55_75
REMARK   38  A    between atoms: N11_79  and  C58_80
REMARK   39  A    between atoms: C60_83  and  C61_84
REMARK   40  A    between atoms: C60_83  and  C62_85
REMARK                            x       y       z     vdW  Elec       q    Type
REMARK                         _______ _______ _______ _____ _____    ______ ____
ROOT
ATOM      1  C3  UNL     1      71.590  69.341 105.055  0.00  0.00    +0.000 C 
ATOM      2  N1  UNL     1      71.920  68.868 106.405  0.00  0.00    +0.000 N 
ATOM      3  C4  UNL     1      73.080  68.044 106.647  0.00  0.00    +0.000 C 
ATOM      4  O1  UNL     1      73.929  67.899 105.719  0.00  0.00    +0.000 OA
ATOM      5  C5  UNL     1      73.399  67.432 108.012  0.00  0.00    +0.000 C 
ATOM      6  N2  UNL     1      74.192  66.178 107.913  0.00  0.00    +0.000 N 
ATOM      7  C13 UNL     1      75.026  65.812 109.074  0.00  0.00    +0.000 C 
ATOM      8  C14 UNL     1      74.042  65.245 106.805  0.00  0.00    +0.000 C 
ATOM      9  O3  UNL     1      73.012  65.324 106.083  0.00  0.00    +0.000 OA
ATOM     10  C15 UNL     1      75.055  64.136 106.515  0.00  0.00    +0.000 C 
ATOM     11  N3  UNL     1      74.520  63.108 105.578  0.00  0.00    +0.000 N 
ATOM     12  C19 UNL     1      74.025  63.477 104.239  0.00  0.00    +0.000 C 
ATOM     13  C20 UNL     1      74.579  61.700 105.946  0.00  0.00    +0.000 C 
ATOM     14  O4  UNL     1      75.294  61.344 106.916  0.00  0.00    +0.000 OA
ATOM     15  C21 UNL     1      73.822  60.633 105.159  0.00  0.00    +0.000 C 
ATOM     16  N4  UNL     1      74.549  60.151 103.955  0.00  0.00    +0.000 N 
ATOM     17  C26 UNL     1      73.758  59.661 102.828  0.00  0.00    +0.000 C 
ATOM     18  C27 UNL     1      75.998  60.226 103.840  0.00  0.00    +0.000 C 
ATOM     19  O5  UNL     1      76.689  59.947 104.851  0.00  0.00    +0.000 OA
ATOM     20  C28 UNL     1      76.688  60.731 102.567  0.00  0.00    +0.000 C 
ATOM     21  N5  UNL     1      77.962  61.462 102.809  0.00  0.00    +0.000 N 
ATOM     22  C33 UNL     1      79.022  60.896 103.653  0.00  0.00    +0.000 C 
ATOM     23  C34 UNL     1      78.156  62.773 102.216  0.00  0.00    +0.000 C 
ATOM     24  O6  UNL     1      77.150  63.472 101.908  0.00  0.00    +0.000 OA
ATOM     25  C35 UNL     1      79.531  63.342 101.936  0.00  0.00    +0.000 C 
ATOM     26  C36 UNL     1      80.120  64.023 103.178  0.00  0.00    +0.000 C 
ATOM     27  N6  UNL     1      79.460  64.322 100.846  0.00  0.00    +0.000 N 
ATOM     28  C37 UNL     1      79.659  63.966  99.471  0.00  0.00    +0.000 C 
ATOM     29  O7  UNL     1      79.512  62.769  99.105  0.00  0.00    +0.000 OA
ATOM     30  C38 UNL     1      80.083  65.008  98.470  0.00  0.00    +0.000 C 
ATOM     31  C39 UNL     1      81.472  65.542  98.820  0.00  0.00    +0.000 C 
ATOM     32  N7  UNL     1      79.118  66.109  98.437  0.00  0.00    +0.000 N 
ATOM     33  C40 UNL     1      78.338  66.426  97.277  0.00  0.00    +0.000 C 
ATOM     34  O8  UNL     1      78.280  65.611  96.310  0.00  0.00    +0.000 OA
ATOM     35  C41 UNL     1      77.586  67.744  97.224  0.00  0.00    +0.000 C 
ATOM     36  N8  UNL     1      78.487  68.917  97.364  0.00  0.00    +0.000 N 
ATOM     37  C46 UNL     1      79.899  68.846  96.948  0.00  0.00    +0.000 C 
ATOM     38  C47 UNL     1      77.956  70.140  97.932  0.00  0.00    +0.000 C 
ATOM     39  O9  UNL     1      76.714  70.341  97.871  0.00  0.00    +0.000 OA
ATOM     40  C48 UNL     1      78.835  71.161  98.651  0.00  0.00    +0.000 C 
ATOM     41  N9  UNL     1      78.525  71.238 100.091  0.00  0.00    +0.000 N 
ATOM     42  C49 UNL     1      77.290  71.666 100.703  0.00  0.00    +0.000 C 
ATOM     43  O10 UNL     1      76.236  71.726 100.017  0.00  0.00    +0.000 OA
ATOM     44  C50 UNL     1      77.201  71.849 102.211  0.00  0.00    +0.000 C 
ATOM     45  N10 UNL     1      75.912  72.436 102.663  0.00  0.00    +0.000 N 
ATOM     46  C55 UNL     1      75.294  73.574 101.962  0.00  0.00    +0.000 C 
ATOM     47  C56 UNL     1      75.319  71.965 103.899  0.00  0.00    +0.000 C 
ATOM     48  O11 UNL     1      75.984  71.211 104.663  0.00  0.00    +0.000 OA
ATOM     49  C57 UNL     1      73.932  72.382 104.330  0.00  0.00    +0.000 C 
ATOM     50  N11 UNL     1      73.297  71.325 105.130  0.00  0.00    +0.000 N 
ATOM     51  C58 UNL     1      73.487  71.346 106.586  0.00  0.00    +0.000 C 
ATOM     52  C59 UNL     1      72.672  70.215 104.443  0.00  0.00    +0.000 C 
ATOM     53  O12 UNL     1      72.969  70.005 103.234  0.00  0.00    +0.000 OA
ATOM     54  H7  UNL     1      71.208  68.998 107.148  0.00  0.00    +0.000 HD
ATOM     55  H66 UNL     1      79.307  65.331 101.087  0.00  0.00    +0.000 HD
ATOM     56  H71 UNL     1      79.053  66.748  99.260  0.00  0.00    +0.000 HD
ATOM     57  H86 UNL     1      79.270  70.881 100.731  0.00  0.00    +0.000 HD
ENDROOT
BRANCH  10  58
ATOM     58  C16 UNL     1      76.465  64.659 106.079  0.00  0.00    +0.000 C 
ATOM     59  C17 UNL     1      76.467  65.635 104.896  0.00  0.00    +0.000 C 
ATOM     60  C18 UNL     1      77.423  63.497 105.799  0.00  0.00    +0.000 C 
ENDBRANCH  10  58
BRANCH  40  61
ATOM     61  C60 UNL     1      78.929  72.570  97.981  0.00  0.00    +0.000 C 
ATOM     62  C61 UNL     1      79.253  72.579  96.476  0.00  0.00    +0.000 C 
ATOM     63  C62 UNL     1      79.934  73.473  98.712  0.00  0.00    +0.000 C 
ENDBRANCH  40  61
BRANCH   1  65
ATOM     64  C1  UNL     1      69.415  70.030 106.294  0.00  0.00    +0.000 C 
ATOM     65  C2  UNL     1      70.197  70.003 104.977  0.00  0.00    +0.000 C 
ENDBRANCH   1  65
BRANCH   5  66
ATOM     66  C6  UNL     1      72.200  67.263 109.004  0.00  0.00    +0.000 C 
BRANCH  66  67
ATOM     67  O2  UNL     1      71.375  68.401 108.944  0.00  0.00    +0.000 OA
ATOM     68  H10 UNL     1      70.430  68.092 108.988  0.00  0.00    +0.000 HD
ENDBRANCH  66  67
BRANCH  66  69
ATOM     69  C7  UNL     1      71.368  65.941 108.818  0.00  0.00    +0.000 C 
ATOM     70  C8  UNL     1      70.116  66.172 107.941  0.00  0.00    +0.000 C 
BRANCH  69  71
ATOM     71  C9  UNL     1      70.925  65.379 110.199  0.00  0.00    +0.000 C 
BRANCH  71  72
ATOM     72  C10 UNL     1      72.048  64.741 110.977  0.00  0.00    +0.000 C 
ATOM     73  C11 UNL     1      72.446  65.211 112.168  0.00  0.00    +0.000 C 
ATOM     74  C12 UNL     1      73.514  64.520 112.951  0.00  0.00    +0.000 C 
ENDBRANCH  71  72
ENDBRANCH  69  71
ENDBRANCH  66  69
ENDBRANCH   5  66
BRANCH  15  75
ATOM     75  C22 UNL     1      73.191  59.501 106.032  0.00  0.00    +0.000 C 
BRANCH  75  76
ATOM     76  C23 UNL     1      71.712  59.545 106.517  0.00  0.00    +0.000 C 
ATOM     77  C24 UNL     1      71.046  58.177 106.689  0.00  0.00    +0.000 C 
ATOM     78  C25 UNL     1      70.824  60.521 105.744  0.00  0.00    +0.000 C 
ENDBRANCH  75  76
ENDBRANCH  15  75
BRANCH  20  79
ATOM     79  C29 UNL     1      76.788  59.741 101.369  0.00  0.00    +0.000 C 
BRANCH  79  80
ATOM     80  C30 UNL     1      76.453  60.171  99.916  0.00  0.00    +0.000 C 
ATOM     81  C31 UNL     1      75.317  61.196  99.812  0.00  0.00    +0.000 C 
ATOM     82  C32 UNL     1      76.297  59.007  98.922  0.00  0.00    +0.000 C 
ENDBRANCH  79  80
ENDBRANCH  20  79
BRANCH  35  83
ATOM     83  C42 UNL     1      76.651  67.863  95.989  0.00  0.00    +0.000 C 
BRANCH  83  84
ATOM     84  C43 UNL     1      75.132  67.735  96.295  0.00  0.00    +0.000 C 
ATOM     85  C44 UNL     1      74.327  68.780  95.512  0.00  0.00    +0.000 C 
ATOM     86  C45 UNL     1      74.612  66.330  95.948  0.00  0.00    +0.000 C 
ENDBRANCH  83  84
ENDBRANCH  35  83
BRANCH  44  87
ATOM     87  C51 UNL     1      78.412  72.557 102.882  0.00  0.00    +0.000 C 
BRANCH  87  88
ATOM     88  C52 UNL     1      79.470  71.653 103.562  0.00  0.00    +0.000 C 
ATOM     89  C53 UNL     1      78.998  70.190 103.530  0.00  0.00    +0.000 C 
ATOM     90  C54 UNL     1      80.837  71.753 102.884  0.00  0.00    +0.000 C 
ENDBRANCH  87  88
ENDBRANCH  44  87
TORSDOF 16
ENDMDL
MODEL 2
REMARK VINA RESULT:      -7.2      2.906      9.306
REMARK  Name = ./S2286.pdb
REMARK  40 active torsions:
REMARK  status: ('A' for Active; 'I' for Inactive)
REMARK    1  A    between atoms: C1_1  and  C2_2
REMARK    2  A    between atoms: C2_2  and  C3_3
REMARK    3  A    between atoms: C5_7  and  C6_8
REMARK    4  A    between atoms: C6_8  and  O2_9
REMARK    5  A    between atoms: C6_8  and  C7_10
REMARK    6  A    between atoms: C7_10  and  C8_11
REMARK    7  A    between atoms: C7_10  and  C9_12
REMARK    8  A    between atoms: C9_12  and  C10_13
REMARK    9  A    between atoms: C11_14  and  C12_15
REMARK   10  A    between atoms: N2_16  and  C13_17
REMARK   11  A    between atoms: C15_20  and  C16_21
REMARK   12  A    between atoms: C16_21  and  C17_22
REMARK   13  A    between atoms: C16_21  and  C18_23
REMARK   14  A    between atoms: N3_24  and  C19_25
REMARK   15  A    between atoms: C21_28  and  C22_29
REMARK   16  A    between atoms: C22_29  and  C23_30
REMARK   17  A    between atoms: C23_30  and  C24_31
REMARK   18  A    between atoms: C23_30  and  C25_32
REMARK   19  A    between atoms: N4_33  and  C26_34
REMARK   20  A    between atoms: C28_37  and  C29_38
REMARK   21  A    between atoms: C29_38  and  C30_39
REMARK   22  A    between atoms: C30_39  and  C31_40
REMARK   23  A    between atoms: C30_39  and  C32_41
REMARK   24  A    between atoms: N5_42  and  C33_43
REMARK   25  A    between atoms: C35_46  and  C36_47
REMARK   26  A    between atoms: C38_51  and  C39_52
REMARK   27  A    between atoms: C41_56  and  C42_57
REMARK   28  A    between atoms: C42_57  and  C43_58
REMARK   29  A    between atoms: C43_58  and  C44_59
REMARK   30  A    between atoms: C43_58  and  C45_60
REMARK   31  A    between atoms: N8_61  and  C46_62
REMARK   32  A    between atoms: C48_65  and  C60_83
REMARK   33  A    between atoms: C50_69  and  C51_70
REMARK   34  A    between atoms: C51_70  and  C52_71
REMARK   35  A    between atoms: C52_71  and  C53_72
REMARK   36  A    between atoms: C52_71  and  C54_73
REMARK   37  A    between atoms: N10_74  and  C55_75
REMARK   38  A    between atoms: N11_79  and  C58_80
REMARK   39  A    between atoms: C60_83  and  C61_84
REMARK   40  A    between atoms: C60_83  and  C62_85
REMARK                            x       y       z     vdW  Elec       q    Type
REMARK                         _______ _______ _______ _____ _____    ______ ____
ROOT
ATOM      1  C3  UNL     1      78.163  63.929 100.717  0.00  0.00    +0.000 C 
ATOM      2  N1  UNL     1      76.895  63.218 100.507  0.00  0.00    +0.000 N 
ATOM      3  C4  UNL     1      75.717  63.547 101.274  0.00  0.00    +0.000 C 
ATOM      4  O1  UNL     1      75.727  64.593 101.989  0.00  0.00    +0.000 OA
ATOM      5  C5  UNL     1      74.410  62.759 101.175  0.00  0.00    +0.000 C 
ATOM      6  N2  UNL     1      73.601  62.821 102.421  0.00  0.00    +0.000 N 
ATOM      7  C13 UNL     1      72.145  62.619 102.293  0.00  0.00    +0.000 C 
ATOM      8  C14 UNL     1      74.208  62.903 103.743  0.00  0.00    +0.000 C 
ATOM      9  O3  UNL     1      75.424  62.599 103.870  0.00  0.00    +0.000 OA
ATOM     10  C15 UNL     1      73.417  63.291 104.993  0.00  0.00    +0.000 C 
ATOM     11  N3  UNL     1      74.145  62.963 106.251  0.00  0.00    +0.000 N 
ATOM     12  C19 UNL     1      75.491  63.504 106.518  0.00  0.00    +0.000 C 
ATOM     13  C20 UNL     1      73.481  62.180 107.285  0.00  0.00    +0.000 C 
ATOM     14  O4  UNL     1      72.239  62.002 107.223  0.00  0.00    +0.000 OA
ATOM     15  C21 UNL     1      74.250  61.597 108.467  0.00  0.00    +0.000 C 
ATOM     16  N4  UNL     1      74.441  62.556 109.587  0.00  0.00    +0.000 N 
ATOM     17  C26 UNL     1      75.617  62.389 110.438  0.00  0.00    +0.000 C 
ATOM     18  C27 UNL     1      73.547  63.683 109.806  0.00  0.00    +0.000 C 
ATOM     19  O5  UNL     1      72.314  63.500 109.655  0.00  0.00    +0.000 OA
ATOM     20  C28 UNL     1      74.073  65.091 110.110  0.00  0.00    +0.000 C 
ATOM     21  N5  UNL     1      73.229  66.190 109.564  0.00  0.00    +0.000 N 
ATOM     22  C33 UNL     1      71.781  66.234 109.798  0.00  0.00    +0.000 C 
ATOM     23  C34 UNL     1      73.847  67.234 108.764  0.00  0.00    +0.000 C 
ATOM     24  O6  UNL     1      74.931  66.995 108.160  0.00  0.00    +0.000 OA
ATOM     25  C35 UNL     1      73.246  68.617 108.630  0.00  0.00    +0.000 C 
ATOM     26  C36 UNL     1      72.182  68.662 107.528  0.00  0.00    +0.000 C 
ATOM     27  N6  UNL     1      74.295  69.595 108.318  0.00  0.00    +0.000 N 
ATOM     28  C37 UNL     1      74.997  70.328 109.332  0.00  0.00    +0.000 C 
ATOM     29  O7  UNL     1      75.028  69.891 110.514  0.00  0.00    +0.000 OA
ATOM     30  C38 UNL     1      75.662  71.637 108.999  0.00  0.00    +0.000 C 
ATOM     31  C39 UNL     1      74.616  72.672 108.588  0.00  0.00    +0.000 C 
ATOM     32  N7  UNL     1      76.639  71.457 107.922  0.00  0.00    +0.000 N 
ATOM     33  C40 UNL     1      78.044  71.674 108.101  0.00  0.00    +0.000 C 
ATOM     34  O8  UNL     1      78.523  71.798 109.266  0.00  0.00    +0.000 OA
ATOM     35  C41 UNL     1      78.945  71.753 106.882  0.00  0.00    +0.000 C 
ATOM     36  N8  UNL     1      78.544  72.838 105.950  0.00  0.00    +0.000 N 
ATOM     37  C46 UNL     1      77.841  74.037 106.436  0.00  0.00    +0.000 C 
ATOM     38  C47 UNL     1      78.848  72.693 104.540  0.00  0.00    +0.000 C 
ATOM     39  O9  UNL     1      79.793  71.932 104.203  0.00  0.00    +0.000 OA
ATOM     40  C48 UNL     1      78.029  73.380 103.449  0.00  0.00    +0.000 C 
ATOM     41  N9  UNL     1      77.285  72.410 102.624  0.00  0.00    +0.000 N 
ATOM     42  C49 UNL     1      77.829  71.387 101.763  0.00  0.00    +0.000 C 
ATOM     43  O10 UNL     1      79.032  71.038 101.885  0.00  0.00    +0.000 OA
ATOM     44  C50 UNL     1      76.916  70.584 100.849  0.00  0.00    +0.000 C 
ATOM     45  N10 UNL     1      77.648  69.681  99.922  0.00  0.00    +0.000 N 
ATOM     46  C55 UNL     1      78.849  70.129  99.197  0.00  0.00    +0.000 C 
ATOM     47  C56 UNL     1      77.090  68.377  99.624  0.00  0.00    +0.000 C 
ATOM     48  O11 UNL     1      75.916  68.099  99.996  0.00  0.00    +0.000 OA
ATOM     49  C57 UNL     1      77.859  67.340  98.837  0.00  0.00    +0.000 C 
ATOM     50  N11 UNL     1      77.470  65.983  99.248  0.00  0.00    +0.000 N 
ATOM     51  C58 UNL     1      76.357  65.335  98.542  0.00  0.00    +0.000 C 
ATOM     52  C59 UNL     1      78.070  65.420 100.439  0.00  0.00    +0.000 C 
ATOM     53  O12 UNL     1      78.630  66.197 101.261  0.00  0.00    +0.000 OA
ATOM     54  H7  UNL     1      76.913  62.365  99.918  0.00  0.00    +0.000 HD
ATOM     55  H66 UNL     1      74.504  69.803 107.312  0.00  0.00    +0.000 HD
ATOM     56  H71 UNL     1      76.295  71.245 106.959  0.00  0.00    +0.000 HD
ATOM     57  H86 UNL     1      76.245  72.433 102.731  0.00  0.00    +0.000 HD
ENDROOT
BRANCH  10  58
ATOM     58  C16 UNL     1      72.886  64.763 104.981  0.00  0.00    +0.000 C 
ATOM     59  C17 UNL     1      73.943  65.841 104.711  0.00  0.00    +0.000 C 
ATOM     60  C18 UNL     1      72.127  65.088 106.272  0.00  0.00    +0.000 C 
ENDBRANCH  10  58
BRANCH  40  61
ATOM     61  C60 UNL     1      78.793  74.437 102.588  0.00  0.00    +0.000 C 
ATOM     62  C61 UNL     1      79.745  75.372 103.358  0.00  0.00    +0.000 C 
ATOM     63  C62 UNL     1      77.824  75.290 101.755  0.00  0.00    +0.000 C 
ENDBRANCH  40  61
BRANCH   1  65
ATOM     64  C1  UNL     1      80.719  63.484 100.617  0.00  0.00    +0.000 C 
ATOM     65  C2  UNL     1      79.346  63.274  99.970  0.00  0.00    +0.000 C 
ENDBRANCH   1  65
BRANCH   5  66
ATOM     66  C6  UNL     1      74.513  61.290 100.644  0.00  0.00    +0.000 C 
BRANCH  66  67
ATOM     67  O2  UNL     1      74.582  60.400 101.732  0.00  0.00    +0.000 OA
ATOM     68  H10 UNL     1      74.510  60.937 102.567  0.00  0.00    +0.000 HD
ENDBRANCH  66  67
BRANCH  66  69
ATOM     69  C7  UNL     1      73.384  60.871  99.631  0.00  0.00    +0.000 C 
ATOM     70  C8  UNL     1      73.809  59.659  98.771  0.00  0.00    +0.000 C 
BRANCH  69  71
ATOM     71  C9  UNL     1      73.027  62.060  98.694  0.00  0.00    +0.000 C 
BRANCH  71  72
ATOM     72  C10 UNL     1      71.649  61.956  98.090  0.00  0.00    +0.000 C 
ATOM     73  C11 UNL     1      71.459  61.817  96.770  0.00  0.00    +0.000 C 
ATOM     74  C12 UNL     1      70.087  61.646  96.203  0.00  0.00    +0.000 C 
ENDBRANCH  71  72
ENDBRANCH  69  71
ENDBRANCH  66  69
ENDBRANCH   5  66
BRANCH  15  75
ATOM     75  C22 UNL     1      73.789  60.170 108.907  0.00  0.00    +0.000 C 
BRANCH  75  76
ATOM     76  C23 UNL     1      73.938  58.922 107.986  0.00  0.00    +0.000 C 
ATOM     77  C24 UNL     1      74.793  59.139 106.734  0.00  0.00    +0.000 C 
ATOM     78  C25 UNL     1      72.620  58.216 107.664  0.00  0.00    +0.000 C 
ENDBRANCH  75  76
ENDBRANCH  15  75
BRANCH  20  79
ATOM     79  C29 UNL     1      74.554  65.375 111.562  0.00  0.00    +0.000 C 
BRANCH  79  80
ATOM     80  C30 UNL     1      73.989  66.552 112.401  0.00  0.00    +0.000 C 
ATOM     81  C31 UNL     1      75.062  67.476 112.988  0.00  0.00    +0.000 C 
ATOM     82  C32 UNL     1      72.921  66.150 113.433  0.00  0.00    +0.000 C 
ENDBRANCH  79  80
ENDBRANCH  20  79
BRANCH  35  83
ATOM     83  C42 UNL     1      80.455  71.812 107.242  0.00  0.00    +0.000 C 
BRANCH  83  84
ATOM     84  C43 UNL     1      81.039  73.243 107.414  0.00  0.00    +0.000 C 
ATOM     85  C44 UNL     1      81.640  73.423 108.814  0.00  0.00    +0.000 C 
ATOM     86  C45 UNL     1      82.117  73.534 106.358  0.00  0.00    +0.000 C 
ENDBRANCH  83  84
ENDBRANCH  35  83
BRANCH  44  87
ATOM     87  C51 UNL     1      75.819  71.394 100.101  0.00  0.00    +0.000 C 
BRANCH  87  88
ATOM     88  C52 UNL     1      74.378  71.315 100.662  0.00  0.00    +0.000 C 
ATOM     89  C53 UNL     1      73.445  70.693  99.609  0.00  0.00    +0.000 C 
ATOM     90  C54 UNL     1      74.301  70.490 101.948  0.00  0.00    +0.000 C 
ENDBRANCH  87  88
ENDBRANCH  44  87
TORSDOF 16
ENDMDL
MODEL 3
REMARK VINA RESULT:      -7.2      1.488      1.924
REMARK  Name = ./S2286.pdb
REMARK  40 active torsions:
REMARK  status: ('A' for Active; 'I' for Inactive)
REMARK    1  A    between atoms: C1_1  and  C2_2
REMARK    2  A    between atoms: C2_2  and  C3_3
REMARK    3  A    between atoms: C5_7  and  C6_8
REMARK    4  A    between atoms: C6_8  and  O2_9
REMARK    5  A    between atoms: C6_8  and  C7_10
REMARK    6  A    between atoms: C7_10  and  C8_11
REMARK    7  A    between atoms: C7_10  and  C9_12
REMARK    8  A    between atoms: C9_12  and  C10_13
REMARK    9  A    between atoms: C11_14  and  C12_15
REMARK   10  A    between atoms: N2_16  and  C13_17
REMARK   11  A    between atoms: C15_20  and  C16_21
REMARK   12  A    between atoms: C16_21  and  C17_22
REMARK   13  A    between atoms: C16_21  and  C18_23
REMARK   14  A    between atoms: N3_24  and  C19_25
REMARK   15  A    between atoms: C21_28  and  C22_29
REMARK   16  A    between atoms: C22_29  and  C23_30
REMARK   17  A    between atoms: C23_30  and  C24_31
REMARK   18  A    between atoms: C23_30  and  C25_32
REMARK   19  A    between atoms: N4_33  and  C26_34
REMARK   20  A    between atoms: C28_37  and  C29_38
REMARK   21  A    between atoms: C29_38  and  C30_39
REMARK   22  A    between atoms: C30_39  and  C31_40
REMARK   23  A    between atoms: C30_39  and  C32_41
REMARK   24  A    between atoms: N5_42  and  C33_43
REMARK   25  A    between atoms: C35_46  and  C36_47
REMARK   26  A    between atoms: C38_51  and  C39_52
REMARK   27  A    between atoms: C41_56  and  C42_57
REMARK   28  A    between atoms: C42_57  and  C43_58
REMARK   29  A    between atoms: C43_58  and  C44_59
REMARK   30  A    between atoms: C43_58  and  C45_60
REMARK   31  A    between atoms: N8_61  and  C46_62
REMARK   32  A    between atoms: C48_65  and  C60_83
REMARK   33  A    between atoms: C50_69  and  C51_70
REMARK   34  A    between atoms: C51_70  and  C52_71
REMARK   35  A    between atoms: C52_71  and  C53_72
REMARK   36  A    between atoms: C52_71  and  C54_73
REMARK   37  A    between atoms: N10_74  and  C55_75
REMARK   38  A    between atoms: N11_79  and  C58_80
REMARK   39  A    between atoms: C60_83  and  C61_84
REMARK   40  A    between atoms: C60_83  and  C62_85
REMARK                            x       y       z     vdW  Elec       q    Type
REMARK                         _______ _______ _______ _____ _____    ______ ____
ROOT
ATOM      1  C3  UNL     1      71.653  68.119 106.604  0.00  0.00    +0.000 C 
ATOM      2  N1  UNL     1      72.041  67.448 107.851  0.00  0.00    +0.000 N 
ATOM      3  C4  UNL     1      73.209  66.601 107.913  0.00  0.00    +0.000 C 
ATOM      4  O1  UNL     1      74.015  66.601 106.936  0.00  0.00    +0.000 OA
ATOM      5  C5  UNL     1      73.587  65.790 109.154  0.00  0.00    +0.000 C 
ATOM      6  N2  UNL     1      74.371  64.568 108.830  0.00  0.00    +0.000 N 
ATOM      7  C13 UNL     1      75.255  64.033 109.883  0.00  0.00    +0.000 C 
ATOM      8  C14 UNL     1      74.167  63.813 107.601  0.00  0.00    +0.000 C 
ATOM      9  O3  UNL     1      73.106  63.997 106.946  0.00  0.00    +0.000 OA
ATOM     10  C15 UNL     1      75.163  62.765 107.100  0.00  0.00    +0.000 C 
ATOM     11  N3  UNL     1      74.582  61.889 106.045  0.00  0.00    +0.000 N 
ATOM     12  C19 UNL     1      74.028  62.455 104.800  0.00  0.00    +0.000 C 
ATOM     13  C20 UNL     1      74.653  60.441 106.191  0.00  0.00    +0.000 C 
ATOM     14  O4  UNL     1      75.409  59.945 107.063  0.00  0.00    +0.000 OA
ATOM     15  C21 UNL     1      73.858  59.503 105.286  0.00  0.00    +0.000 C 
ATOM     16  N4  UNL     1      74.528  59.212 103.992  0.00  0.00    +0.000 N 
ATOM     17  C26 UNL     1      73.686  58.896 102.840  0.00  0.00    +0.000 C 
ATOM     18  C27 UNL     1      75.970  59.309 103.824  0.00  0.00    +0.000 C 
ATOM     19  O5  UNL     1      76.706  58.882 104.749  0.00  0.00    +0.000 OA
ATOM     20  C28 UNL     1      76.604  60.003 102.613  0.00  0.00    +0.000 C 
ATOM     21  N5  UNL     1      77.890  60.693 102.905  0.00  0.00    +0.000 N 
ATOM     22  C33 UNL     1      78.985  60.010 103.605  0.00  0.00    +0.000 C 
ATOM     23  C34 UNL     1      78.062  62.080 102.509  0.00  0.00    +0.000 C 
ATOM     24  O6  UNL     1      77.045  62.814 102.357  0.00  0.00    +0.000 OA
ATOM     25  C35 UNL     1      79.425  62.690 102.258  0.00  0.00    +0.000 C 
ATOM     26  C36 UNL     1      80.071  63.176 103.560  0.00  0.00    +0.000 C 
ATOM     27  N6  UNL     1      79.308  63.824 101.333  0.00  0.00    +0.000 N 
ATOM     28  C37 UNL     1      79.444  63.681  99.912  0.00  0.00    +0.000 C 
ATOM     29  O7  UNL     1      79.276  62.552  99.376  0.00  0.00    +0.000 OA
ATOM     30  C38 UNL     1      79.826  64.864  99.063  0.00  0.00    +0.000 C 
ATOM     31  C39 UNL     1      81.231  65.343  99.426  0.00  0.00    +0.000 C 
ATOM     32  N7  UNL     1      78.864  65.954  99.241  0.00  0.00    +0.000 N 
ATOM     33  C40 UNL     1      78.034  66.440  98.178  0.00  0.00    +0.000 C 
ATOM     34  O8  UNL     1      77.929  65.782  97.103  0.00  0.00    +0.000 OA
ATOM     35  C41 UNL     1      77.285  67.749  98.359  0.00  0.00    +0.000 C 
ATOM     36  N8  UNL     1      78.195  68.889  98.635  0.00  0.00    +0.000 N 
ATOM     37  C46 UNL     1      79.586  68.888  98.150  0.00  0.00    +0.000 C 
ATOM     38  C47 UNL     1      77.694  70.010  99.405  0.00  0.00    +0.000 C 
ATOM     39  O9  UNL     1      76.451  70.214  99.432  0.00  0.00    +0.000 OA
ATOM     40  C48 UNL     1      78.607  70.914 100.230  0.00  0.00    +0.000 C 
ATOM     41  N9  UNL     1      78.364  70.771 101.678  0.00  0.00    +0.000 N 
ATOM     42  C49 UNL     1      77.159  71.096 102.403  0.00  0.00    +0.000 C 
ATOM     43  O10 UNL     1      76.075  71.256 101.782  0.00  0.00    +0.000 OA
ATOM     44  C50 UNL     1      77.138  71.049 103.924  0.00  0.00    +0.000 C 
ATOM     45  N10 UNL     1      75.873  71.556 104.517  0.00  0.00    +0.000 N 
ATOM     46  C55 UNL     1      75.228  72.785 104.025  0.00  0.00    +0.000 C 
ATOM     47  C56 UNL     1      75.335  70.901 105.693  0.00  0.00    +0.000 C 
ATOM     48  O11 UNL     1      76.031  70.042 106.303  0.00  0.00    +0.000 OA
ATOM     49  C57 UNL     1      73.970  71.243 106.244  0.00  0.00    +0.000 C 
ATOM     50  N11 UNL     1      73.368  70.075 106.902  0.00  0.00    +0.000 N 
ATOM     51  C58 UNL     1      73.624  69.875 108.335  0.00  0.00    +0.000 C 
ATOM     52  C59 UNL     1      72.709  69.080 106.084  0.00  0.00    +0.000 C 
ATOM     53  O12 UNL     1      72.951  69.056 104.846  0.00  0.00    +0.000 OA
ATOM     54  H7  UNL     1      71.365  67.461 108.637  0.00  0.00    +0.000 HD
ATOM     55  H66 UNL     1      79.170  64.783 101.730  0.00  0.00    +0.000 HD
ATOM     56  H71 UNL     1      78.838  66.461 100.153  0.00  0.00    +0.000 HD
ATOM     57  H86 UNL     1      79.136  70.324 102.222  0.00  0.00    +0.000 HD
ENDROOT
BRANCH  10  58
ATOM     58  C16 UNL     1      76.553  63.353 106.686  0.00  0.00    +0.000 C 
ATOM     59  C17 UNL     1      77.581  63.471 107.819  0.00  0.00    +0.000 C 
ATOM     60  C18 UNL     1      76.394  64.705 105.982  0.00  0.00    +0.000 C 
ENDBRANCH  10  58
BRANCH  40  61
ATOM     61  C60 UNL     1      78.677  72.408  99.779  0.00  0.00    +0.000 C 
ATOM     62  C61 UNL     1      79.004  72.647  98.293  0.00  0.00    +0.000 C 
ATOM     63  C62 UNL     1      79.662  73.211 100.641  0.00  0.00    +0.000 C 
ENDBRANCH  40  61
BRANCH   1  65
ATOM     64  C1  UNL     1      70.020  69.923 105.698  0.00  0.00    +0.000 C 
ATOM     65  C2  UNL     1      70.260  68.781 106.690  0.00  0.00    +0.000 C 
ENDBRANCH   1  65
BRANCH   5  66
ATOM     66  C6  UNL     1      72.434  65.468 110.161  0.00  0.00    +0.000 C 
BRANCH  66  67
ATOM     67  O2  UNL     1      72.142  64.091 110.118  0.00  0.00    +0.000 OA
ATOM     68  H10 UNL     1      71.723  63.898 109.236  0.00  0.00    +0.000 HD
ENDBRANCH  66  67
BRANCH  66  69
ATOM     69  C7  UNL     1      72.687  65.954 111.636  0.00  0.00    +0.000 C 
ATOM     70  C8  UNL     1      73.886  66.926 111.720  0.00  0.00    +0.000 C 
BRANCH  69  71
ATOM     71  C9  UNL     1      72.952  64.739 112.570  0.00  0.00    +0.000 C 
BRANCH  71  72
ATOM     72  C10 UNL     1      73.642  65.110 113.859  0.00  0.00    +0.000 C 
ATOM     73  C11 UNL     1      74.750  64.484 114.279  0.00  0.00    +0.000 C 
ATOM     74  C12 UNL     1      75.454  64.917 115.524  0.00  0.00    +0.000 C 
ENDBRANCH  71  72
ENDBRANCH  69  71
ENDBRANCH  66  69
ENDBRANCH   5  66
BRANCH  15  75
ATOM     75  C22 UNL     1      73.263  58.250 106.006  0.00  0.00    +0.000 C 
BRANCH  75  76
ATOM     76  C23 UNL     1      72.044  58.340 106.970  0.00  0.00    +0.000 C 
ATOM     77  C24 UNL     1      70.917  59.267 106.505  0.00  0.00    +0.000 C 
ATOM     78  C25 UNL     1      72.415  58.579 108.434  0.00  0.00    +0.000 C 
ENDBRANCH  75  76
ENDBRANCH  15  75
BRANCH  20  79
ATOM     79  C29 UNL     1      76.646  59.207 101.275  0.00  0.00    +0.000 C 
BRANCH  79  80
ATOM     80  C30 UNL     1      76.465  59.900  99.899  0.00  0.00    +0.000 C 
ATOM     81  C31 UNL     1      75.378  60.981  99.879  0.00  0.00    +0.000 C 
ATOM     82  C32 UNL     1      76.368  58.937  98.703  0.00  0.00    +0.000 C 
ENDBRANCH  79  80
ENDBRANCH  20  79
BRANCH  35  83
ATOM     83  C42 UNL     1      76.295  68.050  97.200  0.00  0.00    +0.000 C 
BRANCH  83  84
ATOM     84  C43 UNL     1      74.867  67.462  97.380  0.00  0.00    +0.000 C 
ATOM     85  C44 UNL     1      73.817  68.579  97.422  0.00  0.00    +0.000 C 
ATOM     86  C45 UNL     1      74.522  66.485  96.244  0.00  0.00    +0.000 C 
ENDBRANCH  83  84
ENDBRANCH  35  83
BRANCH  44  87
ATOM     87  C51 UNL     1      78.380  71.651 104.639  0.00  0.00    +0.000 C 
BRANCH  87  88
ATOM     88  C52 UNL     1      79.428  70.654 105.193  0.00  0.00    +0.000 C 
ATOM     89  C53 UNL     1      80.792  70.914 104.530  0.00  0.00    +0.000 C 
ATOM     90  C54 UNL     1      79.582  70.759 106.711  0.00  0.00    +0.000 C 
ENDBRANCH  87  88
ENDBRANCH  44  87
TORSDOF 16
ENDMDL
MODEL 4
REMARK VINA RESULT:      -7.1      2.834      9.254
REMARK  Name = ./S2286.pdb
REMARK  40 active torsions:
REMARK  status: ('A' for Active; 'I' for Inactive)
REMARK    1  A    between atoms: C1_1  and  C2_2
REMARK    2  A    between atoms: C2_2  and  C3_3
REMARK    3  A    between atoms: C5_7  and  C6_8
REMARK    4  A    between atoms: C6_8  and  O2_9
REMARK    5  A    between atoms: C6_8  and  C7_10
REMARK    6  A    between atoms: C7_10  and  C8_11
REMARK    7  A    between atoms: C7_10  and  C9_12
REMARK    8  A    between atoms: C9_12  and  C10_13
REMARK    9  A    between atoms: C11_14  and  C12_15
REMARK   10  A    between atoms: N2_16  and  C13_17
REMARK   11  A    between atoms: C15_20  and  C16_21
REMARK   12  A    between atoms: C16_21  and  C17_22
REMARK   13  A    between atoms: C16_21  and  C18_23
REMARK   14  A    between atoms: N3_24  and  C19_25
REMARK   15  A    between atoms: C21_28  and  C22_29
REMARK   16  A    between atoms: C22_29  and  C23_30
REMARK   17  A    between atoms: C23_30  and  C24_31
REMARK   18  A    between atoms: C23_30  and  C25_32
REMARK   19  A    between atoms: N4_33  and  C26_34
REMARK   20  A    between atoms: C28_37  and  C29_38
REMARK   21  A    between atoms: C29_38  and  C30_39
REMARK   22  A    between atoms: C30_39  and  C31_40
REMARK   23  A    between atoms: C30_39  and  C32_41
REMARK   24  A    between atoms: N5_42  and  C33_43
REMARK   25  A    between atoms: C35_46  and  C36_47
REMARK   26  A    between atoms: C38_51  and  C39_52
REMARK   27  A    between atoms: C41_56  and  C42_57
REMARK   28  A    between atoms: C42_57  and  C43_58
REMARK   29  A    between atoms: C43_58  and  C44_59
REMARK   30  A    between atoms: C43_58  and  C45_60
REMARK   31  A    between atoms: N8_61  and  C46_62
REMARK   32  A    between atoms: C48_65  and  C60_83
REMARK   33  A    between atoms: C50_69  and  C51_70
REMARK   34  A    between atoms: C51_70  and  C52_71
REMARK   35  A    between atoms: C52_71  and  C53_72
REMARK   36  A    between atoms: C52_71  and  C54_73
REMARK   37  A    between atoms: N10_74  and  C55_75
REMARK   38  A    between atoms: N11_79  and  C58_80
REMARK   39  A    between atoms: C60_83  and  C61_84
REMARK   40  A    between atoms: C60_83  and  C62_85
REMARK                            x       y       z     vdW  Elec       q    Type
REMARK                         _______ _______ _______ _____ _____    ______ ____
ROOT
ATOM      1  C3  UNL     1      73.893  70.161  97.972  0.00  0.00    +0.000 C 
ATOM      2  N1  UNL     1      73.697  71.455  98.637  0.00  0.00    +0.000 N 
ATOM      3  C4  UNL     1      74.152  71.679  99.989  0.00  0.00    +0.000 C 
ATOM      4  O1  UNL     1      74.906  70.816 100.529  0.00  0.00    +0.000 OA
ATOM      5  C5  UNL     1      73.868  72.967 100.763  0.00  0.00    +0.000 C 
ATOM      6  N2  UNL     1      73.835  72.762 102.235  0.00  0.00    +0.000 N 
ATOM      7  C13 UNL     1      74.138  73.928 103.088  0.00  0.00    +0.000 C 
ATOM      8  C14 UNL     1      73.360  71.525 102.841  0.00  0.00    +0.000 C 
ATOM      9  O3  UNL     1      72.670  70.735 102.142  0.00  0.00    +0.000 OA
ATOM     10  C15 UNL     1      73.617  71.171 104.307  0.00  0.00    +0.000 C 
ATOM     11  N3  UNL     1      72.748  70.058 104.782  0.00  0.00    +0.000 N 
ATOM     12  C19 UNL     1      72.750  68.745 104.109  0.00  0.00    +0.000 C 
ATOM     13  C20 UNL     1      71.960  70.228 105.995  0.00  0.00    +0.000 C 
ATOM     14  O4  UNL     1      72.200  71.196 106.758  0.00  0.00    +0.000 OA
ATOM     15  C21 UNL     1      70.866  69.237 106.387  0.00  0.00    +0.000 C 
ATOM     16  N4  UNL     1      71.374  68.045 107.115  0.00  0.00    +0.000 N 
ATOM     17  C26 UNL     1      70.624  66.796 106.992  0.00  0.00    +0.000 C 
ATOM     18  C27 UNL     1      72.617  68.067 107.870  0.00  0.00    +0.000 C 
ATOM     19  O5  UNL     1      72.876  69.084 108.560  0.00  0.00    +0.000 OA
ATOM     20  C28 UNL     1      73.653  66.941 107.764  0.00  0.00    +0.000 C 
ATOM     21  N5  UNL     1      75.065  67.392 107.906  0.00  0.00    +0.000 N 
ATOM     22  C33 UNL     1      75.491  68.237 109.029  0.00  0.00    +0.000 C 
ATOM     23  C34 UNL     1      76.042  67.007 106.903  0.00  0.00    +0.000 C 
ATOM     24  O6  UNL     1      75.653  66.715 105.736  0.00  0.00    +0.000 OA
ATOM     25  C35 UNL     1      77.524  66.930 107.200  0.00  0.00    +0.000 C 
ATOM     26  C36 UNL     1      78.197  68.300 107.060  0.00  0.00    +0.000 C 
ATOM     27  N6  UNL     1      78.175  65.985 106.283  0.00  0.00    +0.000 N 
ATOM     28  C37 UNL     1      78.346  64.596 106.597  0.00  0.00    +0.000 C 
ATOM     29  O7  UNL     1      77.616  64.055 107.470  0.00  0.00    +0.000 OA
ATOM     30  C38 UNL     1      79.423  63.792 105.917  0.00  0.00    +0.000 C 
ATOM     31  C39 UNL     1      80.802  64.331 106.294  0.00  0.00    +0.000 C 
ATOM     32  N7  UNL     1      79.250  63.830 104.463  0.00  0.00    +0.000 N 
ATOM     33  C40 UNL     1      78.962  62.663 103.683  0.00  0.00    +0.000 C 
ATOM     34  O8  UNL     1      78.608  61.590 104.253  0.00  0.00    +0.000 OA
ATOM     35  C41 UNL     1      79.088  62.730 102.171  0.00  0.00    +0.000 C 
ATOM     36  N8  UNL     1      80.455  63.111 101.732  0.00  0.00    +0.000 N 
ATOM     37  C46 UNL     1      81.632  62.812 102.565  0.00  0.00    +0.000 C 
ATOM     38  C47 UNL     1      80.614  63.796 100.465  0.00  0.00    +0.000 C 
ATOM     39  O9  UNL     1      79.720  63.657  99.589  0.00  0.00    +0.000 OA
ATOM     40  C48 UNL     1      81.792  64.724 100.176  0.00  0.00    +0.000 C 
ATOM     41  N9  UNL     1      81.366  66.128 100.032  0.00  0.00    +0.000 N 
ATOM     42  C49 UNL     1      80.501  66.686  99.020  0.00  0.00    +0.000 C 
ATOM     43  O10 UNL     1      79.775  65.926  98.325  0.00  0.00    +0.000 OA
ATOM     44  C50 UNL     1      80.303  68.191  98.919  0.00  0.00    +0.000 C 
ATOM     45  N10 UNL     1      79.507  68.608  97.735  0.00  0.00    +0.000 N 
ATOM     46  C55 UNL     1      79.740  68.023  96.404  0.00  0.00    +0.000 C 
ATOM     47  C56 UNL     1      78.575  69.710  97.866  0.00  0.00    +0.000 C 
ATOM     48  O11 UNL     1      78.584  70.415  98.913  0.00  0.00    +0.000 OA
ATOM     49  C57 UNL     1      77.607  70.074  96.763  0.00  0.00    +0.000 C 
ATOM     50  N11 UNL     1      76.380  70.660  97.322  0.00  0.00    +0.000 N 
ATOM     51  C58 UNL     1      76.328  72.116  97.510  0.00  0.00    +0.000 C 
ATOM     52  C59 UNL     1      75.356  69.773  97.830  0.00  0.00    +0.000 C 
ATOM     53  O12 UNL     1      75.664  68.577  98.091  0.00  0.00    +0.000 OA
ATOM     54  H7  UNL     1      73.076  72.145  98.175  0.00  0.00    +0.000 HD
ATOM     55  H66 UNL     1      78.574  66.351 105.386  0.00  0.00    +0.000 HD
ATOM     56  H71 UNL     1      79.428  64.726 103.957  0.00  0.00    +0.000 HD
ATOM     57  H86 UNL     1      81.680  66.774 100.791  0.00  0.00    +0.000 HD
ENDROOT
BRANCH  10  58
ATOM     58  C16 UNL     1      75.125  70.936 104.651  0.00  0.00    +0.000 C 
ATOM     59  C17 UNL     1      75.849  69.911 103.769  0.00  0.00    +0.000 C 
ATOM     60  C18 UNL     1      75.305  70.572 106.129  0.00  0.00    +0.000 C 
ENDBRANCH  10  58
BRANCH  40  61
ATOM     61  C60 UNL     1      82.753  64.269  99.030  0.00  0.00    +0.000 C 
ATOM     62  C61 UNL     1      83.375  62.870  99.190  0.00  0.00    +0.000 C 
ATOM     63  C62 UNL     1      83.876  65.290  98.800  0.00  0.00    +0.000 C 
ENDBRANCH  40  61
BRANCH   1  65
ATOM     64  C1  UNL     1      74.022  69.940  95.388  0.00  0.00    +0.000 C 
ATOM     65  C2  UNL     1      73.134  70.057  96.631  0.00  0.00    +0.000 C 
ENDBRANCH   1  65
BRANCH   5  66
ATOM     66  C6  UNL     1      72.644  73.818 100.286  0.00  0.00    +0.000 C 
BRANCH  66  67
ATOM     67  O2  UNL     1      71.510  73.479 101.047  0.00  0.00    +0.000 OA
ATOM     68  H10 UNL     1      71.823  72.987 101.854  0.00  0.00    +0.000 HD
ENDBRANCH  66  67
BRANCH  66  69
ATOM     69  C7  UNL     1      72.883  75.373 100.275  0.00  0.00    +0.000 C 
ATOM     70  C8  UNL     1      71.556  76.156 100.397  0.00  0.00    +0.000 C 
BRANCH  69  71
ATOM     71  C9  UNL     1      73.608  75.802  98.968  0.00  0.00    +0.000 C 
BRANCH  71  72
ATOM     72  C10 UNL     1      72.945  76.959  98.263  0.00  0.00    +0.000 C 
ATOM     73  C11 UNL     1      73.339  77.375  97.052  0.00  0.00    +0.000 C 
ATOM     74  C12 UNL     1      72.621  78.478  96.345  0.00  0.00    +0.000 C 
ENDBRANCH  71  72
ENDBRANCH  69  71
ENDBRANCH  66  69
ENDBRANCH   5  66
BRANCH  15  75
ATOM     75  C22 UNL     1      69.590  69.885 107.013  0.00  0.00    +0.000 C 
BRANCH  75  76
ATOM     76  C23 UNL     1      68.495  70.579 106.151  0.00  0.00    +0.000 C 
ATOM     77  C24 UNL     1      68.730  70.524 104.638  0.00  0.00    +0.000 C 
ATOM     78  C25 UNL     1      68.119  71.985 106.621  0.00  0.00    +0.000 C 
ENDBRANCH  75  76
ENDBRANCH  15  75
BRANCH  20  79
ATOM     79  C29 UNL     1      73.366  65.629 108.552  0.00  0.00    +0.000 C 
BRANCH  79  80
ATOM     80  C30 UNL     1      72.819  65.645 110.004  0.00  0.00    +0.000 C 
ATOM     81  C31 UNL     1      73.838  65.204 111.062  0.00  0.00    +0.000 C 
ATOM     82  C32 UNL     1      71.448  64.971 110.181  0.00  0.00    +0.000 C 
ENDBRANCH  79  80
ENDBRANCH  20  79
BRANCH  35  83
ATOM     83  C42 UNL     1      78.574  61.448 101.459  0.00  0.00    +0.000 C 
BRANCH  83  84
ATOM     84  C43 UNL     1      77.060  61.448 101.108  0.00  0.00    +0.000 C 
ATOM     85  C44 UNL     1      76.586  62.857 100.733  0.00  0.00    +0.000 C 
ATOM     86  C45 UNL     1      76.760  60.486  99.946  0.00  0.00    +0.000 C 
ENDBRANCH  83  84
ENDBRANCH  35  83
BRANCH  44  87
ATOM     87  C51 UNL     1      81.585  69.057  99.072  0.00  0.00    +0.000 C 
BRANCH  87  88
ATOM     88  C52 UNL     1      81.779  69.799 100.417  0.00  0.00    +0.000 C 
ATOM     89  C53 UNL     1      81.777  71.318 100.176  0.00  0.00    +0.000 C 
ATOM     90  C54 UNL     1      80.688  69.453 101.432  0.00  0.00    +0.000 C 
ENDBRANCH  87  88
ENDBRANCH  44  87
TORSDOF 16
ENDMDL
MODEL 5
REMARK VINA RESULT:      -7.1      2.568      9.014
REMARK  Name = ./S2286.pdb
REMARK  40 active torsions:
REMARK  status: ('A' for Active; 'I' for Inactive)
REMARK    1  A    between atoms: C1_1  and  C2_2
REMARK    2  A    between atoms: C2_2  and  C3_3
REMARK    3  A    between atoms: C5_7  and  C6_8
REMARK    4  A    between atoms: C6_8  and  O2_9
REMARK    5  A    between atoms: C6_8  and  C7_10
REMARK    6  A    between atoms: C7_10  and  C8_11
REMARK    7  A    between atoms: C7_10  and  C9_12
REMARK    8  A    between atoms: C9_12  and  C10_13
REMARK    9  A    between atoms: C11_14  and  C12_15
REMARK   10  A    between atoms: N2_16  and  C13_17
REMARK   11  A    between atoms: C15_20  and  C16_21
REMARK   12  A    between atoms: C16_21  and  C17_22
REMARK   13  A    between atoms: C16_21  and  C18_23
REMARK   14  A    between atoms: N3_24  and  C19_25
REMARK   15  A    between atoms: C21_28  and  C22_29
REMARK   16  A    between atoms: C22_29  and  C23_30
REMARK   17  A    between atoms: C23_30  and  C24_31
REMARK   18  A    between atoms: C23_30  and  C25_32
REMARK   19  A    between atoms: N4_33  and  C26_34
REMARK   20  A    between atoms: C28_37  and  C29_38
REMARK   21  A    between atoms: C29_38  and  C30_39
REMARK   22  A    between atoms: C30_39  and  C31_40
REMARK   23  A    between atoms: C30_39  and  C32_41
REMARK   24  A    between atoms: N5_42  and  C33_43
REMARK   25  A    between atoms: C35_46  and  C36_47
REMARK   26  A    between atoms: C38_51  and  C39_52
REMARK   27  A    between atoms: C41_56  and  C42_57
REMARK   28  A    between atoms: C42_57  and  C43_58
REMARK   29  A    between atoms: C43_58  and  C44_59
REMARK   30  A    between atoms: C43_58  and  C45_60
REMARK   31  A    between atoms: N8_61  and  C46_62
REMARK   32  A    between atoms: C48_65  and  C60_83
REMARK   33  A    between atoms: C50_69  and  C51_70
REMARK   34  A    between atoms: C51_70  and  C52_71
REMARK   35  A    between atoms: C52_71  and  C53_72
REMARK   36  A    between atoms: C52_71  and  C54_73
REMARK   37  A    between atoms: N10_74  and  C55_75
REMARK   38  A    between atoms: N11_79  and  C58_80
REMARK   39  A    between atoms: C60_83  and  C61_84
REMARK   40  A    between atoms: C60_83  and  C62_85
REMARK                            x       y       z     vdW  Elec       q    Type
REMARK                         _______ _______ _______ _____ _____    ______ ____
ROOT
ATOM      1  C3  UNL     1      78.184  64.094 100.692  0.00  0.00    +0.000 C 
ATOM      2  N1  UNL     1      76.942  63.338 100.486  0.00  0.00    +0.000 N 
ATOM      3  C4  UNL     1      75.749  63.639 101.240  0.00  0.00    +0.000 C 
ATOM      4  O1  UNL     1      75.718  64.697 101.936  0.00  0.00    +0.000 OA
ATOM      5  C5  UNL     1      74.470  62.806 101.146  0.00  0.00    +0.000 C 
ATOM      6  N2  UNL     1      73.650  62.862 102.386  0.00  0.00    +0.000 N 
ATOM      7  C13 UNL     1      72.202  62.609 102.252  0.00  0.00    +0.000 C 
ATOM      8  C14 UNL     1      74.244  62.987 103.709  0.00  0.00    +0.000 C 
ATOM      9  O3  UNL     1      75.469  62.726 103.850  0.00  0.00    +0.000 OA
ATOM     10  C15 UNL     1      73.432  63.369 104.948  0.00  0.00    +0.000 C 
ATOM     11  N3  UNL     1      74.162  63.088 106.216  0.00  0.00    +0.000 N 
ATOM     12  C19 UNL     1      75.487  63.679 106.482  0.00  0.00    +0.000 C 
ATOM     13  C20 UNL     1      73.517  62.301 107.258  0.00  0.00    +0.000 C 
ATOM     14  O4  UNL     1      72.283  62.080 107.192  0.00  0.00    +0.000 OA
ATOM     15  C21 UNL     1      74.297  61.764 108.456  0.00  0.00    +0.000 C 
ATOM     16  N4  UNL     1      74.448  62.748 109.560  0.00  0.00    +0.000 N 
ATOM     17  C26 UNL     1      75.623  62.636 110.422  0.00  0.00    +0.000 C 
ATOM     18  C27 UNL     1      73.515  63.847 109.754  0.00  0.00    +0.000 C 
ATOM     19  O5  UNL     1      72.290  63.621 109.598  0.00  0.00    +0.000 OA
ATOM     20  C28 UNL     1      73.991  65.278 110.036  0.00  0.00    +0.000 C 
ATOM     21  N5  UNL     1      73.115  66.339 109.466  0.00  0.00    +0.000 N 
ATOM     22  C33 UNL     1      71.664  66.338 109.690  0.00  0.00    +0.000 C 
ATOM     23  C34 UNL     1      73.703  67.388 108.653  0.00  0.00    +0.000 C 
ATOM     24  O6  UNL     1      74.799  67.176 108.060  0.00  0.00    +0.000 OA
ATOM     25  C35 UNL     1      73.057  68.748 108.491  0.00  0.00    +0.000 C 
ATOM     26  C36 UNL     1      71.999  68.738 107.381  0.00  0.00    +0.000 C 
ATOM     27  N6  UNL     1      74.075  69.756 108.169  0.00  0.00    +0.000 N 
ATOM     28  C37 UNL     1      74.745  70.529 109.174  0.00  0.00    +0.000 C 
ATOM     29  O7  UNL     1      74.782  70.114 110.364  0.00  0.00    +0.000 OA
ATOM     30  C38 UNL     1      75.368  71.854 108.823  0.00  0.00    +0.000 C 
ATOM     31  C39 UNL     1      74.290  72.845 108.387  0.00  0.00    +0.000 C 
ATOM     32  N7  UNL     1      76.357  71.688 107.756  0.00  0.00    +0.000 N 
ATOM     33  C40 UNL     1      77.753  71.956 107.940  0.00  0.00    +0.000 C 
ATOM     34  O8  UNL     1      78.220  72.116 109.105  0.00  0.00    +0.000 OA
ATOM     35  C41 UNL     1      78.660  72.044 106.725  0.00  0.00    +0.000 C 
ATOM     36  N8  UNL     1      78.229  73.099 105.772  0.00  0.00    +0.000 N 
ATOM     37  C46 UNL     1      77.483  74.282 106.233  0.00  0.00    +0.000 C 
ATOM     38  C47 UNL     1      78.547  72.940 104.367  0.00  0.00    +0.000 C 
ATOM     39  O9  UNL     1      79.520  72.206 104.050  0.00  0.00    +0.000 OA
ATOM     40  C48 UNL     1      77.714  73.581 103.259  0.00  0.00    +0.000 C 
ATOM     41  N9  UNL     1      77.008  72.573 102.447  0.00  0.00    +0.000 N 
ATOM     42  C49 UNL     1      77.592  71.554 101.607  0.00  0.00    +0.000 C 
ATOM     43  O10 UNL     1      78.806  71.247 101.743  0.00  0.00    +0.000 OA
ATOM     44  C50 UNL     1      76.713  70.705 100.701  0.00  0.00    +0.000 C 
ATOM     45  N10 UNL     1      77.482  69.811  99.795  0.00  0.00    +0.000 N 
ATOM     46  C55 UNL     1      78.672  70.287  99.070  0.00  0.00    +0.000 C 
ATOM     47  C56 UNL     1      76.970  68.485  99.515  0.00  0.00    +0.000 C 
ATOM     48  O11 UNL     1      75.803  68.174  99.884  0.00  0.00    +0.000 OA
ATOM     49  C57 UNL     1      77.779  67.461  98.751  0.00  0.00    +0.000 C 
ATOM     50  N11 UNL     1      77.433  66.099  99.183  0.00  0.00    +0.000 N 
ATOM     51  C58 UNL     1      76.347  65.401  98.481  0.00  0.00    +0.000 C 
ATOM     52  C59 UNL     1      78.042  65.576 100.387  0.00  0.00    +0.000 C 
ATOM     53  O12 UNL     1      78.570  66.385 101.200  0.00  0.00    +0.000 OA
ATOM     54  H7  UNL     1      76.993  62.475  99.912  0.00  0.00    +0.000 HD
ATOM     55  H66 UNL     1      74.284  69.953 107.161  0.00  0.00    +0.000 HD
ATOM     56  H71 UNL     1      76.027  71.449 106.795  0.00  0.00    +0.000 HD
ATOM     57  H86 UNL     1      75.968  72.562 102.546  0.00  0.00    +0.000 HD
ENDROOT
BRANCH  10  58
ATOM     58  C16 UNL     1      72.852  64.822 104.907  0.00  0.00    +0.000 C 
ATOM     59  C17 UNL     1      73.867  65.926 104.584  0.00  0.00    +0.000 C 
ATOM     60  C18 UNL     1      72.110  65.159 106.205  0.00  0.00    +0.000 C 
ENDBRANCH  10  58
BRANCH  40  61
ATOM     61  C60 UNL     1      78.448  74.648 102.385  0.00  0.00    +0.000 C 
ATOM     62  C61 UNL     1      79.181  75.761 103.157  0.00  0.00    +0.000 C 
ATOM     63  C62 UNL     1      77.495  75.293 101.368  0.00  0.00    +0.000 C 
ENDBRANCH  40  61
BRANCH   1  65
ATOM     64  C1  UNL     1      80.698  63.451 100.767  0.00  0.00    +0.000 C 
ATOM     65  C2  UNL     1      79.393  63.467  99.964  0.00  0.00    +0.000 C 
ENDBRANCH   1  65
BRANCH   5  66
ATOM     66  C6  UNL     1      74.625  61.333 100.641  0.00  0.00    +0.000 C 
BRANCH  66  67
ATOM     67  O2  UNL     1      74.177  61.243  99.309  0.00  0.00    +0.000 OA
ATOM     68  H10 UNL     1      74.980  61.223  98.721  0.00  0.00    +0.000 HD
ENDBRANCH  66  67
BRANCH  66  69
ATOM     69  C7  UNL     1      76.067  60.726 100.802  0.00  0.00    +0.000 C 
ATOM     70  C8  UNL     1      76.490  59.916  99.556  0.00  0.00    +0.000 C 
BRANCH  69  71
ATOM     71  C9  UNL     1      76.131  59.805 102.054  0.00  0.00    +0.000 C 
BRANCH  71  72
ATOM     72  C10 UNL     1      77.489  59.775 102.710  0.00  0.00    +0.000 C 
ATOM     73  C11 UNL     1      78.324  60.822 102.665  0.00  0.00    +0.000 C 
ATOM     74  C12 UNL     1      79.635  60.794 103.381  0.00  0.00    +0.000 C 
ENDBRANCH  71  72
ENDBRANCH  69  71
ENDBRANCH  66  69
ENDBRANCH   5  66
BRANCH  15  75
ATOM     75  C22 UNL     1      73.881  60.330 108.917  0.00  0.00    +0.000 C 
BRANCH  75  76
ATOM     76  C23 UNL     1      74.058  59.076 108.011  0.00  0.00    +0.000 C 
ATOM     77  C24 UNL     1      74.915  59.296 106.761  0.00  0.00    +0.000 C 
ATOM     78  C25 UNL     1      72.755  58.343 107.689  0.00  0.00    +0.000 C 
ENDBRANCH  75  76
ENDBRANCH  15  75
BRANCH  20  79
ATOM     79  C29 UNL     1      74.452  65.603 111.487  0.00  0.00    +0.000 C 
BRANCH  79  80
ATOM     80  C30 UNL     1      73.586  65.250 112.725  0.00  0.00    +0.000 C 
ATOM     81  C31 UNL     1      73.295  66.440 113.647  0.00  0.00    +0.000 C 
ATOM     82  C32 UNL     1      74.046  63.999 113.494  0.00  0.00    +0.000 C 
ENDBRANCH  79  80
ENDBRANCH  20  79
BRANCH  35  83
ATOM     83  C42 UNL     1      80.164  72.160 107.094  0.00  0.00    +0.000 C 
BRANCH  83  84
ATOM     84  C43 UNL     1      80.972  70.835 107.005  0.00  0.00    +0.000 C 
ATOM     85  C44 UNL     1      80.176  69.760 106.255  0.00  0.00    +0.000 C 
ATOM     86  C45 UNL     1      82.320  71.053 106.298  0.00  0.00    +0.000 C 
ENDBRANCH  83  84
ENDBRANCH  35  83
BRANCH  44  87
ATOM     87  C51 UNL     1      75.595  71.465  99.932  0.00  0.00    +0.000 C 
BRANCH  87  88
ATOM     88  C52 UNL     1      74.139  71.255 100.416  0.00  0.00    +0.000 C 
ATOM     89  C53 UNL     1      73.577  72.581 100.956  0.00  0.00    +0.000 C 
ATOM     90  C54 UNL     1      73.226  70.742  99.301  0.00  0.00    +0.000 C 
ENDBRANCH  87  88
ENDBRANCH  44  87
TORSDOF 16
ENDMDL
MODEL 6
REMARK VINA RESULT:      -7.0      5.779     11.335
REMARK  Name = ./S2286.pdb
REMARK  40 active torsions:
REMARK  status: ('A' for Active; 'I' for Inactive)
REMARK    1  A    between atoms: C1_1  and  C2_2
REMARK    2  A    between atoms: C2_2  and  C3_3
REMARK    3  A    between atoms: C5_7  and  C6_8
REMARK    4  A    between atoms: C6_8  and  O2_9
REMARK    5  A    between atoms: C6_8  and  C7_10
REMARK    6  A    between atoms: C7_10  and  C8_11
REMARK    7  A    between atoms: C7_10  and  C9_12
REMARK    8  A    between atoms: C9_12  and  C10_13
REMARK    9  A    between atoms: C11_14  and  C12_15
REMARK   10  A    between atoms: N2_16  and  C13_17
REMARK   11  A    between atoms: C15_20  and  C16_21
REMARK   12  A    between atoms: C16_21  and  C17_22
REMARK   13  A    between atoms: C16_21  and  C18_23
REMARK   14  A    between atoms: N3_24  and  C19_25
REMARK   15  A    between atoms: C21_28  and  C22_29
REMARK   16  A    between atoms: C22_29  and  C23_30
REMARK   17  A    between atoms: C23_30  and  C24_31
REMARK   18  A    between atoms: C23_30  and  C25_32
REMARK   19  A    between atoms: N4_33  and  C26_34
REMARK   20  A    between atoms: C28_37  and  C29_38
REMARK   21  A    between atoms: C29_38  and  C30_39
REMARK   22  A    between atoms: C30_39  and  C31_40
REMARK   23  A    between atoms: C30_39  and  C32_41
REMARK   24  A    between atoms: N5_42  and  C33_43
REMARK   25  A    between atoms: C35_46  and  C36_47
REMARK   26  A    between atoms: C38_51  and  C39_52
REMARK   27  A    between atoms: C41_56  and  C42_57
REMARK   28  A    between atoms: C42_57  and  C43_58
REMARK   29  A    between atoms: C43_58  and  C44_59
REMARK   30  A    between atoms: C43_58  and  C45_60
REMARK   31  A    between atoms: N8_61  and  C46_62
REMARK   32  A    between atoms: C48_65  and  C60_83
REMARK   33  A    between atoms: C50_69  and  C51_70
REMARK   34  A    between atoms: C51_70  and  C52_71
REMARK   35  A    between atoms: C52_71  and  C53_72
REMARK   36  A    between atoms: C52_71  and  C54_73
REMARK   37  A    between atoms: N10_74  and  C55_75
REMARK   38  A    between atoms: N11_79  and  C58_80
REMARK   39  A    between atoms: C60_83  and  C61_84
REMARK   40  A    between atoms: C60_83  and  C62_85
REMARK                            x       y       z     vdW  Elec       q    Type
REMARK                         _______ _______ _______ _____ _____    ______ ____
ROOT
ATOM      1  C3  UNL     1      80.295  63.840 103.916  0.00  0.00    +0.000 C 
ATOM      2  N1  UNL     1      79.145  63.934 104.824  0.00  0.00    +0.000 N 
ATOM      3  C4  UNL     1      78.225  62.833 104.984  0.00  0.00    +0.000 C 
ATOM      4  O1  UNL     1      78.530  61.707 104.491  0.00  0.00    +0.000 OA
ATOM      5  C5  UNL     1      76.952  62.925 105.827  0.00  0.00    +0.000 C 
ATOM      6  N2  UNL     1      75.885  61.997 105.367  0.00  0.00    +0.000 N 
ATOM      7  C13 UNL     1      74.884  61.570 106.363  0.00  0.00    +0.000 C 
ATOM      8  C14 UNL     1      75.709  61.644 103.965  0.00  0.00    +0.000 C 
ATOM      9  O3  UNL     1      76.250  62.367 103.086  0.00  0.00    +0.000 OA
ATOM     10  C15 UNL     1      74.849  60.463 103.511  0.00  0.00    +0.000 C 
ATOM     11  N3  UNL     1      74.534  60.515 102.056  0.00  0.00    +0.000 N 
ATOM     12  C19 UNL     1      75.604  60.566 101.043  0.00  0.00    +0.000 C 
ATOM     13  C20 UNL     1      73.149  60.410 101.615  0.00  0.00    +0.000 C 
ATOM     14  O4  UNL     1      72.269  60.031 102.428  0.00  0.00    +0.000 OA
ATOM     15  C21 UNL     1      72.740  60.715 100.176  0.00  0.00    +0.000 C 
ATOM     16  N4  UNL     1      72.920  59.568  99.249  0.00  0.00    +0.000 N 
ATOM     17  C26 UNL     1      73.180  59.860  97.841  0.00  0.00    +0.000 C 
ATOM     18  C27 UNL     1      72.922  58.188  99.711  0.00  0.00    +0.000 C 
ATOM     19  O5  UNL     1      72.087  57.854 100.587  0.00  0.00    +0.000 OA
ATOM     20  C28 UNL     1      73.971  57.174  99.239  0.00  0.00    +0.000 C 
ATOM     21  N5  UNL     1      74.346  56.159 100.262  0.00  0.00    +0.000 N 
ATOM     22  C33 UNL     1      73.329  55.389 100.988  0.00  0.00    +0.000 C 
ATOM     23  C34 UNL     1      75.749  55.938 100.566  0.00  0.00    +0.000 C 
ATOM     24  O6  UNL     1      76.586  56.858 100.343  0.00  0.00    +0.000 OA
ATOM     25  C35 UNL     1      76.260  54.632 101.137  0.00  0.00    +0.000 C 
ATOM     26  C36 UNL     1      76.115  54.591 102.662  0.00  0.00    +0.000 C 
ATOM     27  N6  UNL     1      77.674  54.448 100.788  0.00  0.00    +0.000 N 
ATOM     28  C37 UNL     1      78.097  53.750  99.609  0.00  0.00    +0.000 C 
ATOM     29  O7  UNL     1      77.300  53.614  98.641  0.00  0.00    +0.000 OA
ATOM     30  C38 UNL     1      79.473  53.143  99.538  0.00  0.00    +0.000 C 
ATOM     31  C39 UNL     1      79.615  52.034 100.580  0.00  0.00    +0.000 C 
ATOM     32  N7  UNL     1      80.497  54.167  99.754  0.00  0.00    +0.000 N 
ATOM     33  C40 UNL     1      81.451  54.538  98.751  0.00  0.00    +0.000 C 
ATOM     34  O8  UNL     1      81.291  54.161  97.554  0.00  0.00    +0.000 OA
ATOM     35  C41 UNL     1      82.650  55.384  99.142  0.00  0.00    +0.000 C 
ATOM     36  N8  UNL     1      83.483  54.737 100.189  0.00  0.00    +0.000 N 
ATOM     37  C46 UNL     1      83.527  53.272 100.329  0.00  0.00    +0.000 C 
ATOM     38  C47 UNL     1      84.250  55.578 101.087  0.00  0.00    +0.000 C 
ATOM     39  O9  UNL     1      84.556  56.739 100.709  0.00  0.00    +0.000 OA
ATOM     40  C48 UNL     1      84.646  55.131 102.492  0.00  0.00    +0.000 C 
ATOM     41  N9  UNL     1      83.965  55.919 103.535  0.00  0.00    +0.000 N 
ATOM     42  C49 UNL     1      84.099  57.332 103.798  0.00  0.00    +0.000 C 
ATOM     43  O10 UNL     1      84.608  58.088 102.929  0.00  0.00    +0.000 OA
ATOM     44  C50 UNL     1      83.452  57.952 105.028  0.00  0.00    +0.000 C 
ATOM     45  N10 UNL     1      83.811  59.380 105.232  0.00  0.00    +0.000 N 
ATOM     46  C55 UNL     1      85.195  59.858 105.076  0.00  0.00    +0.000 C 
ATOM     47  C56 UNL     1      82.803  60.295 105.728  0.00  0.00    +0.000 C 
ATOM     48  O11 UNL     1      81.703  59.843 106.153  0.00  0.00    +0.000 OA
ATOM     49  C57 UNL     1      83.039  61.787 105.792  0.00  0.00    +0.000 C 
ATOM     50  N11 UNL     1      81.776  62.521 105.626  0.00  0.00    +0.000 N 
ATOM     51  C58 UNL     1      80.996  62.842 106.828  0.00  0.00    +0.000 C 
ATOM     52  C59 UNL     1      81.266  62.731 104.288  0.00  0.00    +0.000 C 
ATOM     53  O12 UNL     1      81.713  62.016 103.349  0.00  0.00    +0.000 OA
ATOM     54  H7  UNL     1      78.916  64.866 105.215  0.00  0.00    +0.000 HD
ATOM     55  H66 UNL     1      78.405  54.798 101.454  0.00  0.00    +0.000 HD
ATOM     56  H71 UNL     1      80.597  54.588 100.705  0.00  0.00    +0.000 HD
ATOM     57  H86 UNL     1      83.258  55.399 104.103  0.00  0.00    +0.000 HD
ENDROOT
BRANCH  10  58
ATOM     58  C16 UNL     1      75.402  59.066 103.949  0.00  0.00    +0.000 C 
ATOM     59  C17 UNL     1      76.860  58.786 103.563  0.00  0.00    +0.000 C 
ATOM     60  C18 UNL     1      74.502  57.932 103.446  0.00  0.00    +0.000 C 
ENDBRANCH  10  58
BRANCH  40  61
ATOM     61  C60 UNL     1      86.181  54.989 102.754  0.00  0.00    +0.000 C 
ATOM     62  C61 UNL     1      87.015  54.434 101.584  0.00  0.00    +0.000 C 
ATOM     63  C62 UNL     1      86.461  54.148 104.008  0.00  0.00    +0.000 C 
ENDBRANCH  40  61
BRANCH   1  65
ATOM     64  C1  UNL     1      80.865  66.185 104.874  0.00  0.00    +0.000 C 
ATOM     65  C2  UNL     1      81.011  65.193 103.715  0.00  0.00    +0.000 C 
ENDBRANCH   1  65
BRANCH   5  66
ATOM     66  C6  UNL     1      76.379  64.359 106.080  0.00  0.00    +0.000 C 
BRANCH  66  67
ATOM     67  O2  UNL     1      77.282  65.094 106.872  0.00  0.00    +0.000 OA
ATOM     68  H10 UNL     1      78.087  65.281 106.318  0.00  0.00    +0.000 HD
ENDBRANCH  66  67
BRANCH  66  69
ATOM     69  C7  UNL     1      75.980  65.152 104.781  0.00  0.00    +0.000 C 
ATOM     70  C8  UNL     1      76.836  66.427 104.604  0.00  0.00    +0.000 C 
BRANCH  69  71
ATOM     71  C9  UNL     1      74.477  65.551 104.829  0.00  0.00    +0.000 C 
BRANCH  71  72
ATOM     72  C10 UNL     1      73.610  64.739 103.900  0.00  0.00    +0.000 C 
ATOM     73  C11 UNL     1      72.652  63.919 104.355  0.00  0.00    +0.000 C 
ATOM     74  C12 UNL     1      71.760  63.179 103.413  0.00  0.00    +0.000 C 
ENDBRANCH  71  72
ENDBRANCH  69  71
ENDBRANCH  66  69
ENDBRANCH   5  66
BRANCH  15  75
ATOM     75  C22 UNL     1      71.375  61.461 100.029  0.00  0.00    +0.000 C 
BRANCH  75  76
ATOM     76  C23 UNL     1      70.052  60.721  99.673  0.00  0.00    +0.000 C 
ATOM     77  C24 UNL     1      69.570  60.914  98.232  0.00  0.00    +0.000 C 
ATOM     78  C25 UNL     1      68.924  60.924 100.686  0.00  0.00    +0.000 C 
ENDBRANCH  75  76
ENDBRANCH  15  75
BRANCH  20  79
ATOM     79  C29 UNL     1      73.775  56.549  97.826  0.00  0.00    +0.000 C 
BRANCH  79  80
ATOM     80  C30 UNL     1      74.934  56.456  96.799  0.00  0.00    +0.000 C 
ATOM     81  C31 UNL     1      75.979  57.571  96.931  0.00  0.00    +0.000 C 
ATOM     82  C32 UNL     1      74.487  56.229  95.345  0.00  0.00    +0.000 C 
ENDBRANCH  79  80
ENDBRANCH  20  79
BRANCH  35  83
ATOM     83  C42 UNL     1      83.492  55.849  97.922  0.00  0.00    +0.000 C 
BRANCH  83  84
ATOM     84  C43 UNL     1      84.648  54.894  97.513  0.00  0.00    +0.000 C 
ATOM     85  C44 UNL     1      84.517  54.476  96.043  0.00  0.00    +0.000 C 
ATOM     86  C45 UNL     1      86.019  55.556  97.731  0.00  0.00    +0.000 C 
ENDBRANCH  83  84
ENDBRANCH  35  83
BRANCH  44  87
ATOM     87  C51 UNL     1      83.583  57.141 106.348  0.00  0.00    +0.000 C 
BRANCH  87  88
ATOM     88  C52 UNL     1      84.905  56.365 106.570  0.00  0.00    +0.000 C 
ATOM     89  C53 UNL     1      85.849  57.194 107.457  0.00  0.00    +0.000 C 
ATOM     90  C54 UNL     1      84.673  55.001 107.224  0.00  0.00    +0.000 C 
ENDBRANCH  87  88
ENDBRANCH  44  87
TORSDOF 16
ENDMDL
MODEL 7
REMARK VINA RESULT:      -6.9      2.252     12.053
REMARK  Name = ./S2286.pdb
REMARK  40 active torsions:
REMARK  status: ('A' for Active; 'I' for Inactive)
REMARK    1  A    between atoms: C1_1  and  C2_2
REMARK    2  A    between atoms: C2_2  and  C3_3
REMARK    3  A    between atoms: C5_7  and  C6_8
REMARK    4  A    between atoms: C6_8  and  O2_9
REMARK    5  A    between atoms: C6_8  and  C7_10
REMARK    6  A    between atoms: C7_10  and  C8_11
REMARK    7  A    between atoms: C7_10  and  C9_12
REMARK    8  A    between atoms: C9_12  and  C10_13
REMARK    9  A    between atoms: C11_14  and  C12_15
REMARK   10  A    between atoms: N2_16  and  C13_17
REMARK   11  A    between atoms: C15_20  and  C16_21
REMARK   12  A    between atoms: C16_21  and  C17_22
REMARK   13  A    between atoms: C16_21  and  C18_23
REMARK   14  A    between atoms: N3_24  and  C19_25
REMARK   15  A    between atoms: C21_28  and  C22_29
REMARK   16  A    between atoms: C22_29  and  C23_30
REMARK   17  A    between atoms: C23_30  and  C24_31
REMARK   18  A    between atoms: C23_30  and  C25_32
REMARK   19  A    between atoms: N4_33  and  C26_34
REMARK   20  A    between atoms: C28_37  and  C29_38
REMARK   21  A    between atoms: C29_38  and  C30_39
REMARK   22  A    between atoms: C30_39  and  C31_40
REMARK   23  A    between atoms: C30_39  and  C32_41
REMARK   24  A    between atoms: N5_42  and  C33_43
REMARK   25  A    between atoms: C35_46  and  C36_47
REMARK   26  A    between atoms: C38_51  and  C39_52
REMARK   27  A    between atoms: C41_56  and  C42_57
REMARK   28  A    between atoms: C42_57  and  C43_58
REMARK   29  A    between atoms: C43_58  and  C44_59
REMARK   30  A    between atoms: C43_58  and  C45_60
REMARK   31  A    between atoms: N8_61  and  C46_62
REMARK   32  A    between atoms: C48_65  and  C60_83
REMARK   33  A    between atoms: C50_69  and  C51_70
REMARK   34  A    between atoms: C51_70  and  C52_71
REMARK   35  A    between atoms: C52_71  and  C53_72
REMARK   36  A    between atoms: C52_71  and  C54_73
REMARK   37  A    between atoms: N10_74  and  C55_75
REMARK   38  A    between atoms: N11_79  and  C58_80
REMARK   39  A    between atoms: C60_83  and  C61_84
REMARK   40  A    between atoms: C60_83  and  C62_85
REMARK                            x       y       z     vdW  Elec       q    Type
REMARK                         _______ _______ _______ _____ _____    ______ ____
ROOT
ATOM      1  C3  UNL     1      77.321  66.934  98.203  0.00  0.00    +0.000 C 
ATOM      2  N1  UNL     1      78.182  68.071  98.550  0.00  0.00    +0.000 N 
ATOM      3  C4  UNL     1      78.164  68.648  99.873  0.00  0.00    +0.000 C 
ATOM      4  O1  UNL     1      77.549  68.037 100.796  0.00  0.00    +0.000 OA
ATOM      5  C5  UNL     1      78.954  69.903 100.247  0.00  0.00    +0.000 C 
ATOM      6  N2  UNL     1      78.336  70.664 101.365  0.00  0.00    +0.000 N 
ATOM      7  C13 UNL     1      79.227  71.515 102.178  0.00  0.00    +0.000 C 
ATOM      8  C14 UNL     1      76.895  70.723 101.566  0.00  0.00    +0.000 C 
ATOM      9  O3  UNL     1      76.137  70.399 100.613  0.00  0.00    +0.000 OA
ATOM     10  C15 UNL     1      76.261  71.216 102.869  0.00  0.00    +0.000 C 
ATOM     11  N3  UNL     1      74.811  71.521 102.715  0.00  0.00    +0.000 N 
ATOM     12  C19 UNL     1      73.860  70.499 102.239  0.00  0.00    +0.000 C 
ATOM     13  C20 UNL     1      74.300  72.818 103.139  0.00  0.00    +0.000 C 
ATOM     14  O4  UNL     1      75.020  73.564 103.849  0.00  0.00    +0.000 OA
ATOM     15  C21 UNL     1      72.893  73.284 102.773  0.00  0.00    +0.000 C 
ATOM     16  N4  UNL     1      71.840  72.783 103.695  0.00  0.00    +0.000 N 
ATOM     17  C26 UNL     1      70.491  72.604 103.160  0.00  0.00    +0.000 C 
ATOM     18  C27 UNL     1      72.127  72.400 105.068  0.00  0.00    +0.000 C 
ATOM     19  O5  UNL     1      72.917  73.115 105.732  0.00  0.00    +0.000 OA
ATOM     20  C28 UNL     1      71.580  71.106 105.683  0.00  0.00    +0.000 C 
ATOM     21  N5  UNL     1      72.486  70.470 106.679  0.00  0.00    +0.000 N 
ATOM     22  C33 UNL     1      73.065  71.237 107.789  0.00  0.00    +0.000 C 
ATOM     23  C34 UNL     1      72.822  69.064 106.542  0.00  0.00    +0.000 C 
ATOM     24  O6  UNL     1      72.752  68.515 105.406  0.00  0.00    +0.000 OA
ATOM     25  C35 UNL     1      73.249  68.213 107.720  0.00  0.00    +0.000 C 
ATOM     26  C36 UNL     1      74.750  68.352 107.999  0.00  0.00    +0.000 C 
ATOM     27  N6  UNL     1      72.944  66.801 107.459  0.00  0.00    +0.000 N 
ATOM     28  C37 UNL     1      71.707  66.190 107.853  0.00  0.00    +0.000 C 
ATOM     29  O7  UNL     1      70.695  66.909 108.075  0.00  0.00    +0.000 OA
ATOM     30  C38 UNL     1      71.622  64.699 108.042  0.00  0.00    +0.000 C 
ATOM     31  C39 UNL     1      72.524  64.261 109.195  0.00  0.00    +0.000 C 
ATOM     32  N7  UNL     1      72.009  64.004 106.812  0.00  0.00    +0.000 N 
ATOM     33  C40 UNL     1      71.102  63.183 106.065  0.00  0.00    +0.000 C 
ATOM     34  O8  UNL     1      69.862  63.222 106.310  0.00  0.00    +0.000 OA
ATOM     35  C41 UNL     1      71.648  62.271 104.979  0.00  0.00    +0.000 C 
ATOM     36  N8  UNL     1      72.642  61.300 105.502  0.00  0.00    +0.000 N 
ATOM     37  C46 UNL     1      72.601  60.849 106.904  0.00  0.00    +0.000 C 
ATOM     38  C47 UNL     1      73.670  60.805 104.608  0.00  0.00    +0.000 C 
ATOM     39  O9  UNL     1      73.453  60.832 103.368  0.00  0.00    +0.000 OA
ATOM     40  C48 UNL     1      75.025  60.311 105.108  0.00  0.00    +0.000 C 
ATOM     41  N9  UNL     1      76.127  61.194 104.682  0.00  0.00    +0.000 N 
ATOM     42  C49 UNL     1      76.569  61.462 103.334  0.00  0.00    +0.000 C 
ATOM     43  O10 UNL     1      75.822  61.177 102.360  0.00  0.00    +0.000 OA
ATOM     44  C50 UNL     1      77.835  62.266 103.083  0.00  0.00    +0.000 C 
ATOM     45  N10 UNL     1      78.230  62.322 101.651  0.00  0.00    +0.000 N 
ATOM     46  C55 UNL     1      78.195  61.125 100.794  0.00  0.00    +0.000 C 
ATOM     47  C56 UNL     1      78.790  63.550 101.124  0.00  0.00    +0.000 C 
ATOM     48  O11 UNL     1      79.107  64.483 101.913  0.00  0.00    +0.000 OA
ATOM     49  C57 UNL     1      79.048  63.740  99.646  0.00  0.00    +0.000 C 
ATOM     50  N11 UNL     1      78.919  65.157  99.275  0.00  0.00    +0.000 N 
ATOM     51  C58 UNL     1      80.116  66.005  99.341  0.00  0.00    +0.000 C 
ATOM     52  C59 UNL     1      77.596  65.694  99.039  0.00  0.00    +0.000 C 
ATOM     53  O12 UNL     1      76.597  65.058  99.474  0.00  0.00    +0.000 OA
ATOM     54  H7  UNL     1      78.675  68.555  97.776  0.00  0.00    +0.000 HD
ATOM     55  H66 UNL     1      73.679  66.202 107.012  0.00  0.00    +0.000 HD
ATOM     56  H71 UNL     1      73.007  64.033 106.508  0.00  0.00    +0.000 HD
ATOM     57  H86 UNL     1      76.594  61.731 105.447  0.00  0.00    +0.000 HD
ENDROOT
BRANCH  10  58
ATOM     58  C16 UNL     1      76.547  70.298 104.103  0.00  0.00    +0.000 C 
ATOM     59  C17 UNL     1      76.186  68.818 103.920  0.00  0.00    +0.000 C 
ATOM     60  C18 UNL     1      75.876  70.846 105.367  0.00  0.00    +0.000 C 
ENDBRANCH  10  58
BRANCH  40  61
ATOM     61  C60 UNL     1      75.336  58.800 104.854  0.00  0.00    +0.000 C 
ATOM     62  C61 UNL     1      74.550  57.797 105.720  0.00  0.00    +0.000 C 
ATOM     63  C62 UNL     1      76.837  58.505 104.988  0.00  0.00    +0.000 C 
ENDBRANCH  40  61
BRANCH   1  65
ATOM     64  C1  UNL     1      76.932  67.796  95.785  0.00  0.00    +0.000 C 
ATOM     65  C2  UNL     1      77.321  66.622  96.690  0.00  0.00    +0.000 C 
ENDBRANCH   1  65
BRANCH   5  66
ATOM     66  C6  UNL     1      79.357  70.856  99.073  0.00  0.00    +0.000 C 
BRANCH  66  67
ATOM     67  O2  UNL     1      80.327  70.228  98.268  0.00  0.00    +0.000 OA
ATOM     68  H10 UNL     1      81.189  70.707  98.403  0.00  0.00    +0.000 HD
ENDBRANCH  66  67
BRANCH  66  69
ATOM     69  C7  UNL     1      78.155  71.390  98.210  0.00  0.00    +0.000 C 
ATOM     70  C8  UNL     1      78.468  71.335  96.697  0.00  0.00    +0.000 C 
BRANCH  69  71
ATOM     71  C9  UNL     1      77.810  72.854  98.605  0.00  0.00    +0.000 C 
BRANCH  71  72
ATOM     72  C10 UNL     1      76.644  73.425  97.838  0.00  0.00    +0.000 C 
ATOM     73  C11 UNL     1      76.344  74.731  97.868  0.00  0.00    +0.000 C 
ATOM     74  C12 UNL     1      75.227  75.284  97.045  0.00  0.00    +0.000 C 
ENDBRANCH  71  72
ENDBRANCH  69  71
ENDBRANCH  66  69
ENDBRANCH   5  66
BRANCH  15  75
ATOM     75  C22 UNL     1      72.779  74.803 102.421  0.00  0.00    +0.000 C 
BRANCH  75  76
ATOM     76  C23 UNL     1      73.210  75.375 101.038  0.00  0.00    +0.000 C 
ATOM     77  C24 UNL     1      72.898  74.475  99.839  0.00  0.00    +0.000 C 
ATOM     78  C25 UNL     1      74.642  75.909 100.996  0.00  0.00    +0.000 C 
ENDBRANCH  75  76
ENDBRANCH  15  75
BRANCH  20  79
ATOM     79  C29 UNL     1      70.094  71.108 106.146  0.00  0.00    +0.000 C 
BRANCH  79  80
ATOM     80  C30 UNL     1      69.386  72.400 106.633  0.00  0.00    +0.000 C 
ATOM     81  C31 UNL     1      69.861  72.897 108.004  0.00  0.00    +0.000 C 
ATOM     82  C32 UNL     1      67.853  72.379 106.506  0.00  0.00    +0.000 C 
ENDBRANCH  79  80
ENDBRANCH  20  79
BRANCH  35  83
ATOM     83  C42 UNL     1      70.533  61.583 104.144  0.00  0.00    +0.000 C 
BRANCH  83  84
ATOM     84  C43 UNL     1      70.174  62.293 102.808  0.00  0.00    +0.000 C 
ATOM     85  C44 UNL     1      71.346  63.148 102.311  0.00  0.00    +0.000 C 
ATOM     86  C45 UNL     1      69.795  61.273 101.722  0.00  0.00    +0.000 C 
ENDBRANCH  83  84
ENDBRANCH  35  83
BRANCH  44  87
ATOM     87  C51 UNL     1      79.049  61.924 103.993  0.00  0.00    +0.000 C 
BRANCH  87  88
ATOM     88  C52 UNL     1      79.353  62.896 105.160  0.00  0.00    +0.000 C 
ATOM     89  C53 UNL     1      80.757  63.498 104.981  0.00  0.00    +0.000 C 
ATOM     90  C54 UNL     1      78.331  64.030 105.250  0.00  0.00    +0.000 C 
ENDBRANCH  87  88
ENDBRANCH  44  87
TORSDOF 16
ENDMDL
MODEL 8
REMARK VINA RESULT:      -6.9      2.732      6.065
REMARK  Name = ./S2286.pdb
REMARK  40 active torsions:
REMARK  status: ('A' for Active; 'I' for Inactive)
REMARK    1  A    between atoms: C1_1  and  C2_2
REMARK    2  A    between atoms: C2_2  and  C3_3
REMARK    3  A    between atoms: C5_7  and  C6_8
REMARK    4  A    between atoms: C6_8  and  O2_9
REMARK    5  A    between atoms: C6_8  and  C7_10
REMARK    6  A    between atoms: C7_10  and  C8_11
REMARK    7  A    between atoms: C7_10  and  C9_12
REMARK    8  A    between atoms: C9_12  and  C10_13
REMARK    9  A    between atoms: C11_14  and  C12_15
REMARK   10  A    between atoms: N2_16  and  C13_17
REMARK   11  A    between atoms: C15_20  and  C16_21
REMARK   12  A    between atoms: C16_21  and  C17_22
REMARK   13  A    between atoms: C16_21  and  C18_23
REMARK   14  A    between atoms: N3_24  and  C19_25
REMARK   15  A    between atoms: C21_28  and  C22_29
REMARK   16  A    between atoms: C22_29  and  C23_30
REMARK   17  A    between atoms: C23_30  and  C24_31
REMARK   18  A    between atoms: C23_30  and  C25_32
REMARK   19  A    between atoms: N4_33  and  C26_34
REMARK   20  A    between atoms: C28_37  and  C29_38
REMARK   21  A    between atoms: C29_38  and  C30_39
REMARK   22  A    between atoms: C30_39  and  C31_40
REMARK   23  A    between atoms: C30_39  and  C32_41
REMARK   24  A    between atoms: N5_42  and  C33_43
REMARK   25  A    between atoms: C35_46  and  C36_47
REMARK   26  A    between atoms: C38_51  and  C39_52
REMARK   27  A    between atoms: C41_56  and  C42_57
REMARK   28  A    between atoms: C42_57  and  C43_58
REMARK   29  A    between atoms: C43_58  and  C44_59
REMARK   30  A    between atoms: C43_58  and  C45_60
REMARK   31  A    between atoms: N8_61  and  C46_62
REMARK   32  A    between atoms: C48_65  and  C60_83
REMARK   33  A    between atoms: C50_69  and  C51_70
REMARK   34  A    between atoms: C51_70  and  C52_71
REMARK   35  A    between atoms: C52_71  and  C53_72
REMARK   36  A    between atoms: C52_71  and  C54_73
REMARK   37  A    between atoms: N10_74  and  C55_75
REMARK   38  A    between atoms: N11_79  and  C58_80
REMARK   39  A    between atoms: C60_83  and  C61_84
REMARK   40  A    between atoms: C60_83  and  C62_85
REMARK                            x       y       z     vdW  Elec       q    Type
REMARK                         _______ _______ _______ _____ _____    ______ ____
ROOT
ATOM      1  C3  UNL     1      71.682  65.533 106.748  0.00  0.00    +0.000 C 
ATOM      2  N1  UNL     1      72.594  64.901 107.710  0.00  0.00    +0.000 N 
ATOM      3  C4  UNL     1      74.016  65.148 107.668  0.00  0.00    +0.000 C 
ATOM      4  O1  UNL     1      74.451  66.076 106.923  0.00  0.00    +0.000 OA
ATOM      5  C5  UNL     1      75.016  64.425 108.571  0.00  0.00    +0.000 C 
ATOM      6  N2  UNL     1      76.373  64.327 107.969  0.00  0.00    +0.000 N 
ATOM      7  C13 UNL     1      77.515  64.191 108.894  0.00  0.00    +0.000 C 
ATOM      8  C14 UNL     1      76.583  64.193 106.534  0.00  0.00    +0.000 C 
ATOM      9  O3  UNL     1      75.614  63.836 105.811  0.00  0.00    +0.000 OA
ATOM     10  C15 UNL     1      77.945  64.416 105.874  0.00  0.00    +0.000 C 
ATOM     11  N3  UNL     1      77.995  63.884 104.483  0.00  0.00    +0.000 N 
ATOM     12  C19 UNL     1      77.040  64.337 103.455  0.00  0.00    +0.000 C 
ATOM     13  C20 UNL     1      79.069  62.978 104.098  0.00  0.00    +0.000 C 
ATOM     14  O4  UNL     1      80.068  62.849 104.849  0.00  0.00    +0.000 OA
ATOM     15  C21 UNL     1      79.031  62.202 102.783  0.00  0.00    +0.000 C 
ATOM     16  N4  UNL     1      79.529  62.978 101.618  0.00  0.00    +0.000 N 
ATOM     17  C26 UNL     1      78.994  62.651 100.298  0.00  0.00    +0.000 C 
ATOM     18  C27 UNL     1      80.459  64.087 101.763  0.00  0.00    +0.000 C 
ATOM     19  O5  UNL     1      81.403  63.968 102.583  0.00  0.00    +0.000 OA
ATOM     20  C28 UNL     1      80.260  65.418 101.028  0.00  0.00    +0.000 C 
ATOM     21  N5  UNL     1      80.732  66.612 101.782  0.00  0.00    +0.000 N 
ATOM     22  C33 UNL     1      82.077  66.665 102.369  0.00  0.00    +0.000 C 
ATOM     23  C34 UNL     1      79.839  67.742 101.962  0.00  0.00    +0.000 C 
ATOM     24  O6  UNL     1      78.589  67.562 101.907  0.00  0.00    +0.000 OA
ATOM     25  C35 UNL     1      80.346  69.148 102.204  0.00  0.00    +0.000 C 
ATOM     26  C36 UNL     1      80.646  69.388 103.688  0.00  0.00    +0.000 C 
ATOM     27  N6  UNL     1      79.350  70.129 101.755  0.00  0.00    +0.000 N 
ATOM     28  C37 UNL     1      79.350  70.681 100.431  0.00  0.00    +0.000 C 
ATOM     29  O7  UNL     1      79.939  70.074  99.498  0.00  0.00    +0.000 OA
ATOM     30  C38 UNL     1      78.683  72.004 100.161  0.00  0.00    +0.000 C 
ATOM     31  C39 UNL     1      79.395  73.120 100.924  0.00  0.00    +0.000 C 
ATOM     32  N7  UNL     1      77.271  71.955 100.549  0.00  0.00    +0.000 N 
ATOM     33  C40 UNL     1      76.201  72.100  99.607  0.00  0.00    +0.000 C 
ATOM     34  O8  UNL     1      76.435  72.035  98.365  0.00  0.00    +0.000 OA
ATOM     35  C41 UNL     1      74.789  72.330 100.116  0.00  0.00    +0.000 C 
ATOM     36  N8  UNL     1      74.680  73.553 100.953  0.00  0.00    +0.000 N 
ATOM     37  C46 UNL     1      75.599  74.689 100.763  0.00  0.00    +0.000 C 
ATOM     38  C47 UNL     1      73.655  73.609 101.975  0.00  0.00    +0.000 C 
ATOM     39  O9  UNL     1      72.638  72.877 101.849  0.00  0.00    +0.000 OA
ATOM     40  C48 UNL     1      73.789  74.475 103.226  0.00  0.00    +0.000 C 
ATOM     41  N9  UNL     1      73.915  73.662 104.449  0.00  0.00    +0.000 N 
ATOM     42  C49 UNL     1      72.937  72.761 105.012  0.00  0.00    +0.000 C 
ATOM     43  O10 UNL     1      71.974  72.360 104.306  0.00  0.00    +0.000 OA
ATOM     44  C50 UNL     1      73.165  72.130 106.378  0.00  0.00    +0.000 C 
ATOM     45  N10 UNL     1      72.000  71.352 106.874  0.00  0.00    +0.000 N 
ATOM     46  C55 UNL     1      70.624  71.865 106.760  0.00  0.00    +0.000 C 
ATOM     47  C56 UNL     1      72.235  70.125 107.608  0.00  0.00    +0.000 C 
ATOM     48  O11 UNL     1      73.406  69.832 107.976  0.00  0.00    +0.000 OA
ATOM     49  C57 UNL     1      71.108  69.193 107.989  0.00  0.00    +0.000 C 
ATOM     50  N11 UNL     1      71.582  67.803 108.050  0.00  0.00    +0.000 N 
ATOM     51  C58 UNL     1      72.099  67.301 109.331  0.00  0.00    +0.000 C 
ATOM     52  C59 UNL     1      71.692  67.051 106.819  0.00  0.00    +0.000 C 
ATOM     53  O12 UNL     1      71.709  67.680 105.724  0.00  0.00    +0.000 OA
ATOM     54  H7  UNL     1      72.214  64.144 108.308  0.00  0.00    +0.000 HD
ATOM     55  H66 UNL     1      78.642  70.476 102.445  0.00  0.00    +0.000 HD
ATOM     56  H71 UNL     1      77.027  71.899 101.562  0.00  0.00    +0.000 HD
ATOM     57  H86 UNL     1      74.846  73.701 104.922  0.00  0.00    +0.000 HD
ENDROOT
BRANCH  10  58
ATOM     58  C16 UNL     1      78.464  65.890 105.964  0.00  0.00    +0.000 C 
ATOM     59  C17 UNL     1      77.508  66.958 105.419  0.00  0.00    +0.000 C 
ATOM     60  C18 UNL     1      79.839  66.033 105.304  0.00  0.00    +0.000 C 
ENDBRANCH  10  58
BRANCH  40  61
ATOM     61  C60 UNL     1      72.741  75.624 103.376  0.00  0.00    +0.000 C 
ATOM     62  C61 UNL     1      72.569  76.541 102.150  0.00  0.00    +0.000 C 
ATOM     63  C62 UNL     1      73.028  76.491 104.610  0.00  0.00    +0.000 C 
ENDBRANCH  40  61
BRANCH   1  65
ATOM     64  C1  UNL     1      70.085  63.552 106.235  0.00  0.00    +0.000 C 
ATOM     65  C2  UNL     1      70.250  64.960 106.817  0.00  0.00    +0.000 C 
ENDBRANCH   1  65
BRANCH   5  66
ATOM     66  C6  UNL     1      74.562  63.049 109.162  0.00  0.00    +0.000 C 
BRANCH  66  67
ATOM     67  O2  UNL     1      73.432  63.238 109.979  0.00  0.00    +0.000 OA
ATOM     68  H10 UNL     1      72.934  62.376 110.011  0.00  0.00    +0.000 HD
ENDBRANCH  66  67
BRANCH  66  69
ATOM     69  C7  UNL     1      74.315  61.918 108.096  0.00  0.00    +0.000 C 
ATOM     70  C8  UNL     1      72.809  61.619 107.917  0.00  0.00    +0.000 C 
BRANCH  69  71
ATOM     71  C9  UNL     1      75.048  60.611 108.511  0.00  0.00    +0.000 C 
BRANCH  71  72
ATOM     72  C10 UNL     1      74.713  59.430 107.635  0.00  0.00    +0.000 C 
ATOM     73  C11 UNL     1      75.194  59.308 106.389  0.00  0.00    +0.000 C 
ATOM     74  C12 UNL     1      74.904  58.095 105.567  0.00  0.00    +0.000 C 
ENDBRANCH  71  72
ENDBRANCH  69  71
ENDBRANCH  66  69
ENDBRANCH   5  66
BRANCH  15  75
ATOM     75  C22 UNL     1      79.578  60.740 102.871  0.00  0.00    +0.000 C 
BRANCH  75  76
ATOM     76  C23 UNL     1      79.015  59.696 103.880  0.00  0.00    +0.000 C 
ATOM     77  C24 UNL     1      80.074  58.857 104.602  0.00  0.00    +0.000 C 
ATOM     78  C25 UNL     1      77.880  58.833 103.327  0.00  0.00    +0.000 C 
ENDBRANCH  75  76
ENDBRANCH  15  75
BRANCH  20  79
ATOM     79  C29 UNL     1      80.657  65.469  99.523  0.00  0.00    +0.000 C 
BRANCH  79  80
ATOM     80  C30 UNL     1      79.637  65.839  98.415  0.00  0.00    +0.000 C 
ATOM     81  C31 UNL     1      78.183  65.908  98.898  0.00  0.00    +0.000 C 
ATOM     82  C32 UNL     1      79.792  65.043  97.108  0.00  0.00    +0.000 C 
ENDBRANCH  79  80
ENDBRANCH  20  79
BRANCH  35  83
ATOM     83  C42 UNL     1      73.719  72.289  98.990  0.00  0.00    +0.000 C 
BRANCH  83  84
ATOM     84  C43 UNL     1      73.020  70.915  98.792  0.00  0.00    +0.000 C 
ATOM     85  C44 UNL     1      71.513  71.026  99.054  0.00  0.00    +0.000 C 
ATOM     86  C45 UNL     1      73.248  70.375  97.370  0.00  0.00    +0.000 C 
ENDBRANCH  83  84
ENDBRANCH  35  83
BRANCH  44  87
ATOM     87  C51 UNL     1      73.725  73.076 107.477  0.00  0.00    +0.000 C 
BRANCH  87  88
ATOM     88  C52 UNL     1      75.223  72.927 107.840  0.00  0.00    +0.000 C 
ATOM     89  C53 UNL     1      75.360  72.485 109.307  0.00  0.00    +0.000 C 
ATOM     90  C54 UNL     1      75.938  71.913 106.944  0.00  0.00    +0.000 C 
ENDBRANCH  87  88
ENDBRANCH  44  87
TORSDOF 16
ENDMDL
MODEL 9
REMARK VINA RESULT:      -6.9      2.795      6.852
REMARK  Name = ./S2286.pdb
REMARK  40 active torsions:
REMARK  status: ('A' for Active; 'I' for Inactive)
REMARK    1  A    between atoms: C1_1  and  C2_2
REMARK    2  A    between atoms: C2_2  and  C3_3
REMARK    3  A    between atoms: C5_7  and  C6_8
REMARK    4  A    between atoms: C6_8  and  O2_9
REMARK    5  A    between atoms: C6_8  and  C7_10
REMARK    6  A    between atoms: C7_10  and  C8_11
REMARK    7  A    between atoms: C7_10  and  C9_12
REMARK    8  A    between atoms: C9_12  and  C10_13
REMARK    9  A    between atoms: C11_14  and  C12_15
REMARK   10  A    between atoms: N2_16  and  C13_17
REMARK   11  A    between atoms: C15_20  and  C16_21
REMARK   12  A    between atoms: C16_21  and  C17_22
REMARK   13  A    between atoms: C16_21  and  C18_23
REMARK   14  A    between atoms: N3_24  and  C19_25
REMARK   15  A    between atoms: C21_28  and  C22_29
REMARK   16  A    between atoms: C22_29  and  C23_30
REMARK   17  A    between atoms: C23_30  and  C24_31
REMARK   18  A    between atoms: C23_30  and  C25_32
REMARK   19  A    between atoms: N4_33  and  C26_34
REMARK   20  A    between atoms: C28_37  and  C29_38
REMARK   21  A    between atoms: C29_38  and  C30_39
REMARK   22  A    between atoms: C30_39  and  C31_40
REMARK   23  A    between atoms: C30_39  and  C32_41
REMARK   24  A    between atoms: N5_42  and  C33_43
REMARK   25  A    between atoms: C35_46  and  C36_47
REMARK   26  A    between atoms: C38_51  and  C39_52
REMARK   27  A    between atoms: C41_56  and  C42_57
REMARK   28  A    between atoms: C42_57  and  C43_58
REMARK   29  A    between atoms: C43_58  and  C44_59
REMARK   30  A    between atoms: C43_58  and  C45_60
REMARK   31  A    between atoms: N8_61  and  C46_62
REMARK   32  A    between atoms: C48_65  and  C60_83
REMARK   33  A    between atoms: C50_69  and  C51_70
REMARK   34  A    between atoms: C51_70  and  C52_71
REMARK   35  A    between atoms: C52_71  and  C53_72
REMARK   36  A    between atoms: C52_71  and  C54_73
REMARK   37  A    between atoms: N10_74  and  C55_75
REMARK   38  A    between atoms: N11_79  and  C58_80
REMARK   39  A    between atoms: C60_83  and  C61_84
REMARK   40  A    between atoms: C60_83  and  C62_85
REMARK                            x       y       z     vdW  Elec       q    Type
REMARK                         _______ _______ _______ _____ _____    ______ ____
ROOT
ATOM      1  C3  UNL     1      71.724  65.550 106.825  0.00  0.00    +0.000 C 
ATOM      2  N1  UNL     1      72.829  65.061 107.659  0.00  0.00    +0.000 N 
ATOM      3  C4  UNL     1      74.175  65.550 107.480  0.00  0.00    +0.000 C 
ATOM      4  O1  UNL     1      74.364  66.557 106.735  0.00  0.00    +0.000 OA
ATOM      5  C5  UNL     1      75.376  64.987 108.243  0.00  0.00    +0.000 C 
ATOM      6  N2  UNL     1      76.655  65.138 107.501  0.00  0.00    +0.000 N 
ATOM      7  C13 UNL     1      77.898  65.179 108.295  0.00  0.00    +0.000 C 
ATOM      8  C14 UNL     1      76.726  65.078 106.047  0.00  0.00    +0.000 C 
ATOM      9  O3  UNL     1      75.759  64.577 105.414  0.00  0.00    +0.000 OA
ATOM     10  C15 UNL     1      77.951  65.547 105.259  0.00  0.00    +0.000 C 
ATOM     11  N3  UNL     1      77.938  65.066 103.849  0.00  0.00    +0.000 N 
ATOM     12  C19 UNL     1      76.813  65.373 102.946  0.00  0.00    +0.000 C 
ATOM     13  C20 UNL     1      79.100  64.367 103.316  0.00  0.00    +0.000 C 
ATOM     14  O4  UNL     1      80.182  64.394 103.953  0.00  0.00    +0.000 OA
ATOM     15  C21 UNL     1      79.049  63.628 101.981  0.00  0.00    +0.000 C 
ATOM     16  N4  UNL     1      79.279  64.507 100.804  0.00  0.00    +0.000 N 
ATOM     17  C26 UNL     1      78.665  64.125  99.534  0.00  0.00    +0.000 C 
ATOM     18  C27 UNL     1      80.020  65.755 100.899  0.00  0.00    +0.000 C 
ATOM     19  O5  UNL     1      81.054  65.780 101.611  0.00  0.00    +0.000 OA
ATOM     20  C28 UNL     1      79.520  67.050 100.246  0.00  0.00    +0.000 C 
ATOM     21  N5  UNL     1      79.864  68.288 100.998  0.00  0.00    +0.000 N 
ATOM     22  C33 UNL     1      81.237  68.558 101.443  0.00  0.00    +0.000 C 
ATOM     23  C34 UNL     1      78.818  69.244 101.317  0.00  0.00    +0.000 C 
ATOM     24  O6  UNL     1      77.619  68.853 101.384  0.00  0.00    +0.000 OA
ATOM     25  C35 UNL     1      79.105  70.709 101.565  0.00  0.00    +0.000 C 
ATOM     26  C36 UNL     1      79.521  70.962 103.019  0.00  0.00    +0.000 C 
ATOM     27  N6  UNL     1      77.916  71.515 101.264  0.00  0.00    +0.000 N 
ATOM     28  C37 UNL     1      77.677  72.091  99.972  0.00  0.00    +0.000 C 
ATOM     29  O7  UNL     1      78.255  71.617  98.957  0.00  0.00    +0.000 OA
ATOM     30  C38 UNL     1      76.772  73.286  99.829  0.00  0.00    +0.000 C 
ATOM     31  C39 UNL     1      77.366  74.489 100.561  0.00  0.00    +0.000 C 
ATOM     32  N7  UNL     1      75.440  72.985 100.358  0.00  0.00    +0.000 N 
ATOM     33  C40 UNL     1      74.263  72.967  99.540  0.00  0.00    +0.000 C 
ATOM     34  O8  UNL     1      74.368  72.974  98.279  0.00  0.00    +0.000 OA
ATOM     35  C41 UNL     1      72.897  72.939 100.203  0.00  0.00    +0.000 C 
ATOM     36  N8  UNL     1      72.677  74.105 101.097  0.00  0.00    +0.000 N 
ATOM     37  C46 UNL     1      73.365  75.385 100.861  0.00  0.00    +0.000 C 
ATOM     38  C47 UNL     1      71.775  73.959 102.222  0.00  0.00    +0.000 C 
ATOM     39  O9  UNL     1      70.888  73.066 102.170  0.00  0.00    +0.000 OA
ATOM     40  C48 UNL     1      71.898  74.804 103.488  0.00  0.00    +0.000 C 
ATOM     41  N9  UNL     1      72.292  73.995 104.656  0.00  0.00    +0.000 N 
ATOM     42  C49 UNL     1      71.547  72.926 105.277  0.00  0.00    +0.000 C 
ATOM     43  O10 UNL     1      70.593  72.383 104.660  0.00  0.00    +0.000 OA
ATOM     44  C50 UNL     1      72.026  72.311 106.584  0.00  0.00    +0.000 C 
ATOM     45  N10 UNL     1      71.070  71.333 107.166  0.00  0.00    +0.000 N 
ATOM     46  C55 UNL     1      69.623  71.604 107.217  0.00  0.00    +0.000 C 
ATOM     47  C56 UNL     1      71.587  70.147 107.818  0.00  0.00    +0.000 C 
ATOM     48  O11 UNL     1      72.824  70.050 108.050  0.00  0.00    +0.000 OA
ATOM     49  C57 UNL     1      70.681  69.025 108.273  0.00  0.00    +0.000 C 
ATOM     50  N11 UNL     1      71.386  67.736 108.226  0.00  0.00    +0.000 N 
ATOM     51  C58 UNL     1      72.117  67.300 109.423  0.00  0.00    +0.000 C 
ATOM     52  C59 UNL     1      71.486  67.045 106.959  0.00  0.00    +0.000 C 
ATOM     53  O12 UNL     1      71.277  67.694 105.897  0.00  0.00    +0.000 OA
ATOM     54  H7  UNL     1      72.649  64.235 108.261  0.00  0.00    +0.000 HD
ATOM     55  H66 UNL     1      77.239  71.719 102.038  0.00  0.00    +0.000 HD
ATOM     56  H71 UNL     1      75.321  72.864 101.389  0.00  0.00    +0.000 HD
ATOM     57  H86 UNL     1      73.250  74.182 105.031  0.00  0.00    +0.000 HD
ENDROOT
BRANCH  10  58
ATOM     58  C16 UNL     1      78.221  67.086 105.358  0.00  0.00    +0.000 C 
ATOM     59  C17 UNL     1      77.037  67.987 104.985  0.00  0.00    +0.000 C 
ATOM     60  C18 UNL     1      79.457  67.483 104.543  0.00  0.00    +0.000 C 
ENDBRANCH  10  58
BRANCH  40  61
ATOM     61  C60 UNL     1      70.694  75.752 103.794  0.00  0.00    +0.000 C 
ATOM     62  C61 UNL     1      70.257  76.678 102.643  0.00  0.00    +0.000 C 
ATOM     63  C62 UNL     1      70.952  76.602 105.047  0.00  0.00    +0.000 C 
ENDBRANCH  40  61
BRANCH   1  65
ATOM     64  C1  UNL     1      70.293  63.501 106.122  0.00  0.00    +0.000 C 
ATOM     65  C2  UNL     1      70.424  64.738 107.017  0.00  0.00    +0.000 C 
ENDBRANCH   1  65
BRANCH   5  66
ATOM     66  C6  UNL     1      75.227  63.539 108.819  0.00  0.00    +0.000 C 
BRANCH  66  67
ATOM     67  O2  UNL     1      75.623  62.603 107.845  0.00  0.00    +0.000 OA
ATOM     68  H10 UNL     1      75.002  61.827 107.902  0.00  0.00    +0.000 HD
ENDBRANCH  66  67
BRANCH  66  69
ATOM     69  C7  UNL     1      75.965  63.291 110.185  0.00  0.00    +0.000 C 
ATOM     70  C8  UNL     1      76.354  61.806 110.364  0.00  0.00    +0.000 C 
BRANCH  69  71
ATOM     71  C9  UNL     1      75.065  63.728 111.376  0.00  0.00    +0.000 C 
BRANCH  71  72
ATOM     72  C10 UNL     1      75.472  65.046 111.986  0.00  0.00    +0.000 C 
ATOM     73  C11 UNL     1      74.781  66.174 111.770  0.00  0.00    +0.000 C 
ATOM     74  C12 UNL     1      75.164  67.453 112.442  0.00  0.00    +0.000 C 
ENDBRANCH  71  72
ENDBRANCH  69  71
ENDBRANCH  66  69
ENDBRANCH   5  66
BRANCH  15  75
ATOM     75  C22 UNL     1      79.840  62.281 101.949  0.00  0.00    +0.000 C 
BRANCH  75  76
ATOM     76  C23 UNL     1      79.227  60.939 102.448  0.00  0.00    +0.000 C 
ATOM     77  C24 UNL     1      77.840  60.613 101.887  0.00  0.00    +0.000 C 
ATOM     78  C25 UNL     1      79.294  60.741 103.963  0.00  0.00    +0.000 C 
ENDBRANCH  75  76
ENDBRANCH  15  75
BRANCH  20  79
ATOM     79  C29 UNL     1      79.736  67.205  98.712  0.00  0.00    +0.000 C 
BRANCH  79  80
ATOM     80  C30 UNL     1      78.547  67.331  97.722  0.00  0.00    +0.000 C 
ATOM     81  C31 UNL     1      77.168  67.318  98.393  0.00  0.00    +0.000 C 
ATOM     82  C32 UNL     1      78.625  66.395  96.504  0.00  0.00    +0.000 C 
ENDBRANCH  79  80
ENDBRANCH  20  79
BRANCH  35  83
ATOM     83  C42 UNL     1      71.733  72.742  99.192  0.00  0.00    +0.000 C 
BRANCH  83  84
ATOM     84  C43 UNL     1      71.245  71.276  99.023  0.00  0.00    +0.000 C 
ATOM     85  C44 UNL     1      71.760  70.677  97.708  0.00  0.00    +0.000 C 
ATOM     86  C45 UNL     1      71.709  70.397 100.196  0.00  0.00    +0.000 C 
ENDBRANCH  83  84
ENDBRANCH  35  83
BRANCH  44  87
ATOM     87  C51 UNL     1      72.536  73.312 107.659  0.00  0.00    +0.000 C 
BRANCH  87  88
ATOM     88  C52 UNL     1      74.070  73.445 107.828  0.00  0.00    +0.000 C 
ATOM     89  C53 UNL     1      74.783  72.529 106.819  0.00  0.00    +0.000 C 
ATOM     90  C54 UNL     1      74.552  74.883 107.625  0.00  0.00    +0.000 C 
ENDBRANCH  87  88
ENDBRANCH  44  87
TORSDOF 16
ENDMDL
MODEL 10
REMARK VINA RESULT:      -6.8      2.852     10.294
REMARK  Name = ./S2286.pdb
REMARK  40 active torsions:
REMARK  status: ('A' for Active; 'I' for Inactive)
REMARK    1  A    between atoms: C1_1  and  C2_2
REMARK    2  A    between atoms: C2_2  and  C3_3
REMARK    3  A    between atoms: C5_7  and  C6_8
REMARK    4  A    between atoms: C6_8  and  O2_9
REMARK    5  A    between atoms: C6_8  and  C7_10
REMARK    6  A    between atoms: C7_10  and  C8_11
REMARK    7  A    between atoms: C7_10  and  C9_12
REMARK    8  A    between atoms: C9_12  and  C10_13
REMARK    9  A    between atoms: C11_14  and  C12_15
REMARK   10  A    between atoms: N2_16  and  C13_17
REMARK   11  A    between atoms: C15_20  and  C16_21
REMARK   12  A    between atoms: C16_21  and  C17_22
REMARK   13  A    between atoms: C16_21  and  C18_23
REMARK   14  A    between atoms: N3_24  and  C19_25
REMARK   15  A    between atoms: C21_28  and  C22_29
REMARK   16  A    between atoms: C22_29  and  C23_30
REMARK   17  A    between atoms: C23_30  and  C24_31
REMARK   18  A    between atoms: C23_30  and  C25_32
REMARK   19  A    between atoms: N4_33  and  C26_34
REMARK   20  A    between atoms: C28_37  and  C29_38
REMARK   21  A    between atoms: C29_38  and  C30_39
REMARK   22  A    between atoms: C30_39  and  C31_40
REMARK   23  A    between atoms: C30_39  and  C32_41
REMARK   24  A    between atoms: N5_42  and  C33_43
REMARK   25  A    between atoms: C35_46  and  C36_47
REMARK   26  A    between atoms: C38_51  and  C39_52
REMARK   27  A    between atoms: C41_56  and  C42_57
REMARK   28  A    between atoms: C42_57  and  C43_58
REMARK   29  A    between atoms: C43_58  and  C44_59
REMARK   30  A    between atoms: C43_58  and  C45_60
REMARK   31  A    between atoms: N8_61  and  C46_62
REMARK   32  A    between atoms: C48_65  and  C60_83
REMARK   33  A    between atoms: C50_69  and  C51_70
REMARK   34  A    between atoms: C51_70  and  C52_71
REMARK   35  A    between atoms: C52_71  and  C53_72
REMARK   36  A    between atoms: C52_71  and  C54_73
REMARK   37  A    between atoms: N10_74  and  C55_75
REMARK   38  A    between atoms: N11_79  and  C58_80
REMARK   39  A    between atoms: C60_83  and  C61_84
REMARK   40  A    between atoms: C60_83  and  C62_85
REMARK                            x       y       z     vdW  Elec       q    Type
REMARK                         _______ _______ _______ _____ _____    ______ ____
ROOT
ATOM      1  C3  UNL     1      76.369  64.063 105.800  0.00  0.00    +0.000 C 
ATOM      2  N1  UNL     1      77.761  63.857 105.380  0.00  0.00    +0.000 N 
ATOM      3  C4  UNL     1      78.485  64.877 104.660  0.00  0.00    +0.000 C 
ATOM      4  O1  UNL     1      77.979  66.035 104.571  0.00  0.00    +0.000 OA
ATOM      5  C5  UNL     1      79.893  64.665 104.102  0.00  0.00    +0.000 C 
ATOM      6  N2  UNL     1      80.180  65.516 102.917  0.00  0.00    +0.000 N 
ATOM      7  C13 UNL     1      81.593  65.839 102.641  0.00  0.00    +0.000 C 
ATOM      8  C14 UNL     1      79.151  65.887 101.954  0.00  0.00    +0.000 C 
ATOM      9  O3  UNL     1      78.076  65.230 101.934  0.00  0.00    +0.000 OA
ATOM     10  C15 UNL     1      79.343  67.006 100.929  0.00  0.00    +0.000 C 
ATOM     11  N3  UNL     1      78.323  66.963  99.844  0.00  0.00    +0.000 N 
ATOM     12  C19 UNL     1      76.881  67.022 100.146  0.00  0.00    +0.000 C 
ATOM     13  C20 UNL     1      78.753  66.968  98.452  0.00  0.00    +0.000 C 
ATOM     14  O4  UNL     1      79.944  67.257  98.174  0.00  0.00    +0.000 OA
ATOM     15  C21 UNL     1      77.784  66.666  97.312  0.00  0.00    +0.000 C 
ATOM     16  N4  UNL     1      76.995  67.845  96.871  0.00  0.00    +0.000 N 
ATOM     17  C26 UNL     1      75.672  67.608  96.296  0.00  0.00    +0.000 C 
ATOM     18  C27 UNL     1      77.461  69.209  97.064  0.00  0.00    +0.000 C 
ATOM     19  O5  UNL     1      78.676  69.456  96.862  0.00  0.00    +0.000 OA
ATOM     20  C28 UNL     1      76.544  70.315  97.602  0.00  0.00    +0.000 C 
ATOM     21  N5  UNL     1      77.237  71.331  98.441  0.00  0.00    +0.000 N 
ATOM     22  C33 UNL     1      78.460  72.001  97.981  0.00  0.00    +0.000 C 
ATOM     23  C34 UNL     1      76.706  71.656  99.753  0.00  0.00    +0.000 C 
ATOM     24  O6  UNL     1      75.989  70.811 100.360  0.00  0.00    +0.000 OA
ATOM     25  C35 UNL     1      76.968  72.984 100.430  0.00  0.00    +0.000 C 
ATOM     26  C36 UNL     1      78.306  72.978 101.179  0.00  0.00    +0.000 C 
ATOM     27  N6  UNL     1      75.892  73.288 101.381  0.00  0.00    +0.000 N 
ATOM     28  C37 UNL     1      74.729  74.045 101.018  0.00  0.00    +0.000 C 
ATOM     29  O7  UNL     1      74.395  74.140  99.807  0.00  0.00    +0.000 OA
ATOM     30  C38 UNL     1      73.929  74.761 102.074  0.00  0.00    +0.000 C 
ATOM     31  C39 UNL     1      74.776  75.853 102.728  0.00  0.00    +0.000 C 
ATOM     32  N7  UNL     1      73.461  73.816 103.090  0.00  0.00    +0.000 N 
ATOM     33  C40 UNL     1      72.072  73.546 103.320  0.00  0.00    +0.000 C 
ATOM     34  O8  UNL     1      71.203  73.937 102.487  0.00  0.00    +0.000 OA
ATOM     35  C41 UNL     1      71.659  72.789 104.570  0.00  0.00    +0.000 C 
ATOM     36  N8  UNL     1      72.088  73.475 105.816  0.00  0.00    +0.000 N 
ATOM     37  C46 UNL     1      72.271  74.936 105.856  0.00  0.00    +0.000 C 
ATOM     38  C47 UNL     1      72.336  72.677 107.000  0.00  0.00    +0.000 C 
ATOM     39  O9  UNL     1      71.776  71.553 107.097  0.00  0.00    +0.000 OA
ATOM     40  C48 UNL     1      73.293  73.121 108.104  0.00  0.00    +0.000 C 
ATOM     41  N9  UNL     1      74.485  72.257 108.181  0.00  0.00    +0.000 N 
ATOM     42  C49 UNL     1      74.534  70.853 108.515  0.00  0.00    +0.000 C 
ATOM     43  O10 UNL     1      73.483  70.161 108.475  0.00  0.00    +0.000 OA
ATOM     44  C50 UNL     1      75.871  70.155 108.717  0.00  0.00    +0.000 C 
ATOM     45  N10 UNL     1      75.743  68.756 109.202  0.00  0.00    +0.000 N 
ATOM     46  C55 UNL     1      74.799  68.393 110.272  0.00  0.00    +0.000 C 
ATOM     47  C56 UNL     1      76.663  67.752 108.705  0.00  0.00    +0.000 C 
ATOM     48  O11 UNL     1      77.665  68.105 108.023  0.00  0.00    +0.000 OA
ATOM     49  C57 UNL     1      76.485  66.283 109.013  0.00  0.00    +0.000 C 
ATOM     50  N11 UNL     1      77.018  65.455 107.921  0.00  0.00    +0.000 N 
ATOM     51  C58 UNL     1      78.427  65.045 107.983  0.00  0.00    +0.000 C 
ATOM     52  C59 UNL     1      76.195  65.236 106.751  0.00  0.00    +0.000 C 
ATOM     53  O12 UNL     1      75.217  66.007 106.545  0.00  0.00    +0.000 OA
ATOM     54  H7  UNL     1      78.152  62.900 105.463  0.00  0.00    +0.000 HD
ATOM     55  H66 UNL     1      76.002  72.982 102.378  0.00  0.00    +0.000 HD
ATOM     56  H71 UNL     1      74.157  73.382 103.736  0.00  0.00    +0.000 HD
ATOM     57  H86 UNL     1      75.386  72.706 107.899  0.00  0.00    +0.000 HD
ENDROOT
BRANCH  10  58
ATOM     58  C16 UNL     1      79.478  68.432 101.560  0.00  0.00    +0.000 C 
ATOM     59  C17 UNL     1      78.348  68.839 102.514  0.00  0.00    +0.000 C 
ATOM     60  C18 UNL     1      79.657  69.501 100.477  0.00  0.00    +0.000 C 
ENDBRANCH  10  58
BRANCH  40  61
ATOM     61  C60 UNL     1      72.648  73.378 109.504  0.00  0.00    +0.000 C 
ATOM     62  C61 UNL     1      71.559  74.466 109.553  0.00  0.00    +0.000 C 
ATOM     63  C62 UNL     1      73.713  73.691 110.565  0.00  0.00    +0.000 C 
ENDBRANCH  40  61
BRANCH   1  65
ATOM     64  C1  UNL     1      75.800  61.559 105.415  0.00  0.00    +0.000 C 
ATOM     65  C2  UNL     1      75.711  62.776 106.343  0.00  0.00    +0.000 C 
ENDBRANCH   1  65
BRANCH   5  66
ATOM     66  C6  UNL     1      80.333  63.184 103.850  0.00  0.00    +0.000 C 
BRANCH  66  67
ATOM     67  O2  UNL     1      80.867  62.644 105.036  0.00  0.00    +0.000 OA
ATOM     68  H10 UNL     1      81.851  62.798 105.022  0.00  0.00    +0.000 HD
ENDBRANCH  66  67
BRANCH  66  69
ATOM     69  C7  UNL     1      79.217  62.253 103.249  0.00  0.00    +0.000 C 
ATOM     70  C8  UNL     1      79.230  60.851 103.900  0.00  0.00    +0.000 C 
BRANCH  69  71
ATOM     71  C9  UNL     1      79.404  62.103 101.713  0.00  0.00    +0.000 C 
BRANCH  71  72
ATOM     72  C10 UNL     1      78.106  61.941 100.962  0.00  0.00    +0.000 C 
ATOM     73  C11 UNL     1      77.648  60.740 100.582  0.00  0.00    +0.000 C 
ATOM     74  C12 UNL     1      76.326  60.600  99.900  0.00  0.00    +0.000 C 
ENDBRANCH  71  72
ENDBRANCH  69  71
ENDBRANCH  66  69
ENDBRANCH   5  66
BRANCH  15  75
ATOM     75  C22 UNL     1      78.389  65.818  96.147  0.00  0.00    +0.000 C 
BRANCH  75  76
ATOM     76  C23 UNL     1      79.369  66.418  95.096  0.00  0.00    +0.000 C 
ATOM     77  C24 UNL     1      78.722  67.345  94.063  0.00  0.00    +0.000 C 
ATOM     78  C25 UNL     1      80.299  65.395  94.444  0.00  0.00    +0.000 C 
ENDBRANCH  75  76
ENDBRANCH  15  75
BRANCH  20  79
ATOM     79  C29 UNL     1      75.536  70.954  96.603  0.00  0.00    +0.000 C 
BRANCH  79  80
ATOM     80  C30 UNL     1      74.001  70.867  96.815  0.00  0.00    +0.000 C 
ATOM     81  C31 UNL     1      73.583  70.088  98.067  0.00  0.00    +0.000 C 
ATOM     82  C32 UNL     1      73.203  70.457  95.565  0.00  0.00    +0.000 C 
ENDBRANCH  79  80
ENDBRANCH  20  79
BRANCH  35  83
ATOM     83  C42 UNL     1      70.150  72.420 104.589  0.00  0.00    +0.000 C 
BRANCH  83  84
ATOM     84  C43 UNL     1      69.835  70.909 104.402  0.00  0.00    +0.000 C 
ATOM     85  C44 UNL     1      68.798  70.436 105.428  0.00  0.00    +0.000 C 
ATOM     86  C45 UNL     1      69.313  70.622 102.984  0.00  0.00    +0.000 C 
ENDBRANCH  83  84
ENDBRANCH  35  83
BRANCH  44  87
ATOM     87  C51 UNL     1      76.933  70.943 109.535  0.00  0.00    +0.000 C 
BRANCH  87  88
ATOM     88  C52 UNL     1      78.184  71.441 108.772  0.00  0.00    +0.000 C 
ATOM     89  C53 UNL     1      78.088  72.961 108.553  0.00  0.00    +0.000 C 
ATOM     90  C54 UNL     1      79.482  71.125 109.518  0.00  0.00    +0.000 C 
ENDBRANCH  87  88
ENDBRANCH  44  87
TORSDOF 16
ENDMDL
MODEL 11
REMARK VINA RESULT:      -6.7      2.153      2.873
REMARK  Name = ./S2286.pdb
REMARK  40 active torsions:
REMARK  status: ('A' for Active; 'I' for Inactive)
REMARK    1  A    between atoms: C1_1  and  C2_2
REMARK    2  A    between atoms: C2_2  and  C3_3
REMARK    3  A    between atoms: C5_7  and  C6_8
REMARK    4  A    between atoms: C6_8  and  O2_9
REMARK    5  A    between atoms: C6_8  and  C7_10
REMARK    6  A    between atoms: C7_10  and  C8_11
REMARK    7  A    between atoms: C7_10  and  C9_12
REMARK    8  A    between atoms: C9_12  and  C10_13
REMARK    9  A    between atoms: C11_14  and  C12_15
REMARK   10  A    between atoms: N2_16  and  C13_17
REMARK   11  A    between atoms: C15_20  and  C16_21
REMARK   12  A    between atoms: C16_21  and  C17_22
REMARK   13  A    between atoms: C16_21  and  C18_23
REMARK   14  A    between atoms: N3_24  and  C19_25
REMARK   15  A    between atoms: C21_28  and  C22_29
REMARK   16  A    between atoms: C22_29  and  C23_30
REMARK   17  A    between atoms: C23_30  and  C24_31
REMARK   18  A    between atoms: C23_30  and  C25_32
REMARK   19  A    between atoms: N4_33  and  C26_34
REMARK   20  A    between atoms: C28_37  and  C29_38
REMARK   21  A    between atoms: C29_38  and  C30_39
REMARK   22  A    between atoms: C30_39  and  C31_40
REMARK   23  A    between atoms: C30_39  and  C32_41
REMARK   24  A    between atoms: N5_42  and  C33_43
REMARK   25  A    between atoms: C35_46  and  C36_47
REMARK   26  A    between atoms: C38_51  and  C39_52
REMARK   27  A    between atoms: C41_56  and  C42_57
REMARK   28  A    between atoms: C42_57  and  C43_58
REMARK   29  A    between atoms: C43_58  and  C44_59
REMARK   30  A    between atoms: C43_58  and  C45_60
REMARK   31  A    between atoms: N8_61  and  C46_62
REMARK   32  A    between atoms: C48_65  and  C60_83
REMARK   33  A    between atoms: C50_69  and  C51_70
REMARK   34  A    between atoms: C51_70  and  C52_71
REMARK   35  A    between atoms: C52_71  and  C53_72
REMARK   36  A    between atoms: C52_71  and  C54_73
REMARK   37  A    between atoms: N10_74  and  C55_75
REMARK   38  A    between atoms: N11_79  and  C58_80
REMARK   39  A    between atoms: C60_83  and  C61_84
REMARK   40  A    between atoms: C60_83  and  C62_85
REMARK                            x       y       z     vdW  Elec       q    Type
REMARK                         _______ _______ _______ _____ _____    ______ ____
ROOT
ATOM      1  C3  UNL     1      71.568  70.152 107.081  0.00  0.00    +0.000 C 
ATOM      2  N1  UNL     1      72.178  69.326 108.131  0.00  0.00    +0.000 N 
ATOM      3  C4  UNL     1      73.301  68.464 107.848  0.00  0.00    +0.000 C 
ATOM      4  O1  UNL     1      73.890  68.577 106.733  0.00  0.00    +0.000 OA
ATOM      5  C5  UNL     1      73.893  67.501 108.878  0.00  0.00    +0.000 C 
ATOM      6  N2  UNL     1      74.548  66.319 108.255  0.00  0.00    +0.000 N 
ATOM      7  C13 UNL     1      75.608  65.646 109.031  0.00  0.00    +0.000 C 
ATOM      8  C14 UNL     1      74.070  65.726 107.014  0.00  0.00    +0.000 C 
ATOM      9  O3  UNL     1      72.905  66.003 106.620  0.00  0.00    +0.000 OA
ATOM     10  C15 UNL     1      74.902  64.736 106.196  0.00  0.00    +0.000 C 
ATOM     11  N3  UNL     1      74.086  64.006 105.187  0.00  0.00    +0.000 N 
ATOM     12  C19 UNL     1      73.312  64.729 104.160  0.00  0.00    +0.000 C 
ATOM     13  C20 UNL     1      74.131  62.550 105.141  0.00  0.00    +0.000 C 
ATOM     14  O4  UNL     1      75.030  61.940 105.772  0.00  0.00    +0.000 OA
ATOM     15  C21 UNL     1      73.133  61.742 104.315  0.00  0.00    +0.000 C 
ATOM     16  N4  UNL     1      73.514  61.607 102.885  0.00  0.00    +0.000 N 
ATOM     17  C26 UNL     1      72.443  61.446 101.903  0.00  0.00    +0.000 C 
ATOM     18  C27 UNL     1      74.894  61.706 102.435  0.00  0.00    +0.000 C 
ATOM     19  O5  UNL     1      75.786  61.158 103.129  0.00  0.00    +0.000 OA
ATOM     20  C28 UNL     1      75.293  62.538 101.210  0.00  0.00    +0.000 C 
ATOM     21  N5  UNL     1      76.637  63.171 101.310  0.00  0.00    +0.000 N 
ATOM     22  C33 UNL     1      77.825  62.393 101.681  0.00  0.00    +0.000 C 
ATOM     23  C34 UNL     1      76.776  64.594 101.056  0.00  0.00    +0.000 C 
ATOM     24  O6  UNL     1      75.778  65.354 101.206  0.00  0.00    +0.000 OA
ATOM     25  C35 UNL     1      78.081  65.214 100.602  0.00  0.00    +0.000 C 
ATOM     26  C36 UNL     1      78.997  65.526 101.791  0.00  0.00    +0.000 C 
ATOM     27  N6  UNL     1      77.820  66.455  99.863  0.00  0.00    +0.000 N 
ATOM     28  C37 UNL     1      77.658  66.489  98.439  0.00  0.00    +0.000 C 
ATOM     29  O7  UNL     1      77.342  65.438  97.818  0.00  0.00    +0.000 OA
ATOM     30  C38 UNL     1      77.902  67.764  97.677  0.00  0.00    +0.000 C 
ATOM     31  C39 UNL     1      79.369  68.177  97.796  0.00  0.00    +0.000 C 
ATOM     32  N7  UNL     1      77.038  68.835  98.179  0.00  0.00    +0.000 N 
ATOM     33  C40 UNL     1      76.028  69.460  97.377  0.00  0.00    +0.000 C 
ATOM     34  O8  UNL     1      75.681  68.942  96.276  0.00  0.00    +0.000 OA
ATOM     35  C41 UNL     1      75.381  70.744  97.865  0.00  0.00    +0.000 C 
ATOM     36  N8  UNL     1      76.371  71.831  98.080  0.00  0.00    +0.000 N 
ATOM     37  C46 UNL     1      77.632  71.873  97.321  0.00  0.00    +0.000 C 
ATOM     38  C47 UNL     1      76.080  72.853  99.065  0.00  0.00    +0.000 C 
ATOM     39  O9  UNL     1      74.877  73.067  99.373  0.00  0.00    +0.000 OA
ATOM     40  C48 UNL     1      77.176  73.636  99.785  0.00  0.00    +0.000 C 
ATOM     41  N9  UNL     1      77.228  73.317 101.224  0.00  0.00    +0.000 N 
ATOM     42  C49 UNL     1      76.209  73.563 102.217  0.00  0.00    +0.000 C 
ATOM     43  O10 UNL     1      75.028  73.813 101.857  0.00  0.00    +0.000 OA
ATOM     44  C50 UNL     1      76.497  73.327 103.692  0.00  0.00    +0.000 C 
ATOM     45  N10 UNL     1      75.400  73.772 104.591  0.00  0.00    +0.000 N 
ATOM     46  C55 UNL     1      74.715  75.060 104.394  0.00  0.00    +0.000 C 
ATOM     47  C56 UNL     1      75.089  72.982 105.765  0.00  0.00    +0.000 C 
ATOM     48  O11 UNL     1      75.862  72.045 106.112  0.00  0.00    +0.000 OA
ATOM     49  C57 UNL     1      73.879  73.269 106.625  0.00  0.00    +0.000 C 
ATOM     50  N11 UNL     1      73.380  72.035 107.249  0.00  0.00    +0.000 N 
ATOM     51  C58 UNL     1      73.916  71.655 108.563  0.00  0.00    +0.000 C 
ATOM     52  C59 UNL     1      72.531  71.158 106.472  0.00  0.00    +0.000 C 
ATOM     53  O12 UNL     1      72.515  71.286 105.217  0.00  0.00    +0.000 OA
ATOM     54  H7  UNL     1      71.677  69.250 109.036  0.00  0.00    +0.000 HD
ATOM     55  H66 UNL     1      77.802  67.360 100.393  0.00  0.00    +0.000 HD
ATOM     56  H71 UNL     1      77.218  69.224  99.131  0.00  0.00    +0.000 HD
ATOM     57  H86 UNL     1      78.077  72.796 101.540  0.00  0.00    +0.000 HD
ENDROOT
BRANCH  10  58
ATOM     58  C16 UNL     1      76.200  65.355 105.576  0.00  0.00    +0.000 C 
ATOM     59  C17 UNL     1      75.988  66.617 104.732  0.00  0.00    +0.000 C 
ATOM     60  C18 UNL     1      76.978  64.311 104.768  0.00  0.00    +0.000 C 
ENDBRANCH  10  58
BRANCH  40  61
ATOM     61  C60 UNL     1      77.208  75.174  99.511  0.00  0.00    +0.000 C 
ATOM     62  C61 UNL     1      77.025  75.599  98.042  0.00  0.00    +0.000 C 
ATOM     63  C62 UNL     1      78.490  75.817 100.060  0.00  0.00    +0.000 C 
ENDBRANCH  40  61
BRANCH   1  65
ATOM     64  C1  UNL     1      69.126  70.805 106.489  0.00  0.00    +0.000 C 
ATOM     65  C2  UNL     1      70.248  70.815 107.533  0.00  0.00    +0.000 C 
ENDBRANCH   1  65
BRANCH   5  66
ATOM     66  C6  UNL     1      72.959  67.069 110.057  0.00  0.00    +0.000 C 
BRANCH  66  67
ATOM     67  O2  UNL     1      71.896  66.295 109.555  0.00  0.00    +0.000 OA
ATOM     68  H10 UNL     1      72.126  66.032 108.623  0.00  0.00    +0.000 HD
ENDBRANCH  66  67
BRANCH  66  69
ATOM     69  C7  UNL     1      73.686  66.342 111.246  0.00  0.00    +0.000 C 
ATOM     70  C8  UNL     1      72.682  65.626 112.179  0.00  0.00    +0.000 C 
BRANCH  69  71
ATOM     71  C9  UNL     1      74.518  67.359 112.078  0.00  0.00    +0.000 C 
BRANCH  71  72
ATOM     72  C10 UNL     1      75.033  66.794 113.379  0.00  0.00    +0.000 C 
ATOM     73  C11 UNL     1      75.185  67.552 114.474  0.00  0.00    +0.000 C 
ATOM     74  C12 UNL     1      75.631  66.954 115.768  0.00  0.00    +0.000 C 
ENDBRANCH  71  72
ENDBRANCH  69  71
ENDBRANCH  66  69
ENDBRANCH   5  66
BRANCH  15  75
ATOM     75  C22 UNL     1      72.651  60.416 104.987  0.00  0.00    +0.000 C 
BRANCH  75  76
ATOM     76  C23 UNL     1      71.470  60.374 106.001  0.00  0.00    +0.000 C 
ATOM     77  C24 UNL     1      71.056  58.971 106.454  0.00  0.00    +0.000 C 
ATOM     78  C25 UNL     1      70.264  61.225 105.599  0.00  0.00    +0.000 C 
ENDBRANCH  75  76
ENDBRANCH  15  75
BRANCH  20  79
ATOM     79  C29 UNL     1      75.031  61.915  99.808  0.00  0.00    +0.000 C 
BRANCH  79  80
ATOM     80  C30 UNL     1      75.038  60.380  99.575  0.00  0.00    +0.000 C 
ATOM     81  C31 UNL     1      76.418  59.803  99.240  0.00  0.00    +0.000 C 
ATOM     82  C32 UNL     1      73.934  59.870  98.633  0.00  0.00    +0.000 C 
ENDBRANCH  79  80
ENDBRANCH  20  79
BRANCH  35  83
ATOM     83  C42 UNL     1      74.188  71.200  96.980  0.00  0.00    +0.000 C 
BRANCH  83  84
ATOM     84  C43 UNL     1      72.790  70.707  97.450  0.00  0.00    +0.000 C 
ATOM     85  C44 UNL     1      72.868  69.272  97.986  0.00  0.00    +0.000 C 
ATOM     86  C45 UNL     1      72.215  71.626  98.541  0.00  0.00    +0.000 C 
ENDBRANCH  83  84
ENDBRANCH  35  83
BRANCH  44  87
ATOM     87  C51 UNL     1      77.881  73.820 104.202  0.00  0.00    +0.000 C 
BRANCH  87  88
ATOM     88  C52 UNL     1      78.098  75.351 104.284  0.00  0.00    +0.000 C 
ATOM     89  C53 UNL     1      78.147  75.789 105.758  0.00  0.00    +0.000 C 
ATOM     90  C54 UNL     1      79.387  75.792 103.588  0.00  0.00    +0.000 C 
ENDBRANCH  87  88
ENDBRANCH  44  87
TORSDOF 16
ENDMDL
MODEL 12
REMARK VINA RESULT:      -6.7      2.819      5.921
REMARK  Name = ./S2286.pdb
REMARK  40 active torsions:
REMARK  status: ('A' for Active; 'I' for Inactive)
REMARK    1  A    between atoms: C1_1  and  C2_2
REMARK    2  A    between atoms: C2_2  and  C3_3
REMARK    3  A    between atoms: C5_7  and  C6_8
REMARK    4  A    between atoms: C6_8  and  O2_9
REMARK    5  A    between atoms: C6_8  and  C7_10
REMARK    6  A    between atoms: C7_10  and  C8_11
REMARK    7  A    between atoms: C7_10  and  C9_12
REMARK    8  A    between atoms: C9_12  and  C10_13
REMARK    9  A    between atoms: C11_14  and  C12_15
REMARK   10  A    between atoms: N2_16  and  C13_17
REMARK   11  A    between atoms: C15_20  and  C16_21
REMARK   12  A    between atoms: C16_21  and  C17_22
REMARK   13  A    between atoms: C16_21  and  C18_23
REMARK   14  A    between atoms: N3_24  and  C19_25
REMARK   15  A    between atoms: C21_28  and  C22_29
REMARK   16  A    between atoms: C22_29  and  C23_30
REMARK   17  A    between atoms: C23_30  and  C24_31
REMARK   18  A    between atoms: C23_30  and  C25_32
REMARK   19  A    between atoms: N4_33  and  C26_34
REMARK   20  A    between atoms: C28_37  and  C29_38
REMARK   21  A    between atoms: C29_38  and  C30_39
REMARK   22  A    between atoms: C30_39  and  C31_40
REMARK   23  A    between atoms: C30_39  and  C32_41
REMARK   24  A    between atoms: N5_42  and  C33_43
REMARK   25  A    between atoms: C35_46  and  C36_47
REMARK   26  A    between atoms: C38_51  and  C39_52
REMARK   27  A    between atoms: C41_56  and  C42_57
REMARK   28  A    between atoms: C42_57  and  C43_58
REMARK   29  A    between atoms: C43_58  and  C44_59
REMARK   30  A    between atoms: C43_58  and  C45_60
REMARK   31  A    between atoms: N8_61  and  C46_62
REMARK   32  A    between atoms: C48_65  and  C60_83
REMARK   33  A    between atoms: C50_69  and  C51_70
REMARK   34  A    between atoms: C51_70  and  C52_71
REMARK   35  A    between atoms: C52_71  and  C53_72
REMARK   36  A    between atoms: C52_71  and  C54_73
REMARK   37  A    between atoms: N10_74  and  C55_75
REMARK   38  A    between atoms: N11_79  and  C58_80
REMARK   39  A    between atoms: C60_83  and  C61_84
REMARK   40  A    between atoms: C60_83  and  C62_85
REMARK                            x       y       z     vdW  Elec       q    Type
REMARK                         _______ _______ _______ _____ _____    ______ ____
ROOT
ATOM      1  C3  UNL     1      71.863  65.338 106.950  0.00  0.00    +0.000 C 
ATOM      2  N1  UNL     1      72.810  64.768 107.916  0.00  0.00    +0.000 N 
ATOM      3  C4  UNL     1      74.224  65.043 107.831  0.00  0.00    +0.000 C 
ATOM      4  O1  UNL     1      74.622  65.948 107.038  0.00  0.00    +0.000 OA
ATOM      5  C5  UNL     1      75.260  64.381 108.741  0.00  0.00    +0.000 C 
ATOM      6  N2  UNL     1      76.605  64.286 108.113  0.00  0.00    +0.000 N 
ATOM      7  C13 UNL     1      77.770  64.215 109.016  0.00  0.00    +0.000 C 
ATOM      8  C14 UNL     1      76.786  64.096 106.680  0.00  0.00    +0.000 C 
ATOM      9  O3  UNL     1      75.810  63.687 105.996  0.00  0.00    +0.000 OA
ATOM     10  C15 UNL     1      78.128  64.319 105.980  0.00  0.00    +0.000 C 
ATOM     11  N3  UNL     1      78.160  63.729 104.612  0.00  0.00    +0.000 N 
ATOM     12  C19 UNL     1      77.172  64.117 103.588  0.00  0.00    +0.000 C 
ATOM     13  C20 UNL     1      79.245  62.830 104.241  0.00  0.00    +0.000 C 
ATOM     14  O4  UNL     1      80.263  62.755 104.973  0.00  0.00    +0.000 OA
ATOM     15  C21 UNL     1      79.195  61.998 102.962  0.00  0.00    +0.000 C 
ATOM     16  N4  UNL     1      79.650  62.734 101.754  0.00  0.00    +0.000 N 
ATOM     17  C26 UNL     1      79.093  62.339 100.461  0.00  0.00    +0.000 C 
ATOM     18  C27 UNL     1      80.558  63.868 101.830  0.00  0.00    +0.000 C 
ATOM     19  O5  UNL     1      81.522  63.804 102.632  0.00  0.00    +0.000 OA
ATOM     20  C28 UNL     1      80.313  65.161 101.044  0.00  0.00    +0.000 C 
ATOM     21  N5  UNL     1      80.775  66.396 101.736  0.00  0.00    +0.000 N 
ATOM     22  C33 UNL     1      82.131  66.504 102.289  0.00  0.00    +0.000 C 
ATOM     23  C34 UNL     1      79.860  67.514 101.888  0.00  0.00    +0.000 C 
ATOM     24  O6  UNL     1      78.614  67.305 101.869  0.00  0.00    +0.000 OA
ATOM     25  C35 UNL     1      80.341  68.939 102.058  0.00  0.00    +0.000 C 
ATOM     26  C36 UNL     1      80.668  69.250 103.524  0.00  0.00    +0.000 C 
ATOM     27  N6  UNL     1      79.314  69.879 101.591  0.00  0.00    +0.000 N 
ATOM     28  C37 UNL     1      79.272  70.373 100.246  0.00  0.00    +0.000 C 
ATOM     29  O7  UNL     1      79.854  69.739  99.325  0.00  0.00    +0.000 OA
ATOM     30  C38 UNL     1      78.570  71.669  99.935  0.00  0.00    +0.000 C 
ATOM     31  C39 UNL     1      79.274  72.832 100.633  0.00  0.00    +0.000 C 
ATOM     32  N7  UNL     1      77.168  71.606 100.356  0.00  0.00    +0.000 N 
ATOM     33  C40 UNL     1      76.074  71.687  99.434  0.00  0.00    +0.000 C 
ATOM     34  O8  UNL     1      76.282  71.574  98.191  0.00  0.00    +0.000 OA
ATOM     35  C41 UNL     1      74.669  71.909  99.966  0.00  0.00    +0.000 C 
ATOM     36  N8  UNL     1      74.552  73.164 100.752  0.00  0.00    +0.000 N 
ATOM     37  C46 UNL     1      75.441  74.310 100.493  0.00  0.00    +0.000 C 
ATOM     38  C47 UNL     1      73.549  73.242 101.794  0.00  0.00    +0.000 C 
ATOM     39  O9  UNL     1      72.546  72.484 101.722  0.00  0.00    +0.000 OA
ATOM     40  C48 UNL     1      73.691  74.164 103.004  0.00  0.00    +0.000 C 
ATOM     41  N9  UNL     1      73.862  73.407 104.257  0.00  0.00    +0.000 N 
ATOM     42  C49 UNL     1      72.917  72.510 104.880  0.00  0.00    +0.000 C 
ATOM     43  O10 UNL     1      71.947  72.059 104.215  0.00  0.00    +0.000 OA
ATOM     44  C50 UNL     1      73.189  71.944 106.266  0.00  0.00    +0.000 C 
ATOM     45  N10 UNL     1      72.053  71.163 106.822  0.00  0.00    +0.000 N 
ATOM     46  C55 UNL     1      70.664  71.641 106.717  0.00  0.00    +0.000 C 
ATOM     47  C56 UNL     1      72.332  69.974 107.601  0.00  0.00    +0.000 C 
ATOM     48  O11 UNL     1      73.517  69.722 107.955  0.00  0.00    +0.000 OA
ATOM     49  C57 UNL     1      71.234  69.035 108.047  0.00  0.00    +0.000 C 
ATOM     50  N11 UNL     1      71.740  67.659 108.157  0.00  0.00    +0.000 N 
ATOM     51  C58 UNL     1      72.296  67.224 109.445  0.00  0.00    +0.000 C 
ATOM     52  C59 UNL     1      71.840  66.858 106.956  0.00  0.00    +0.000 C 
ATOM     53  O12 UNL     1      71.819  67.439 105.836  0.00  0.00    +0.000 OA
ATOM     54  H7  UNL     1      72.460  64.029 108.555  0.00  0.00    +0.000 HD
ATOM     55  H66 UNL     1      78.613  70.240 102.282  0.00  0.00    +0.000 HD
ATOM     56  H71 UNL     1      76.949  71.589 101.377  0.00  0.00    +0.000 HD
ATOM     57  H86 UNL     1      74.802  73.486 104.707  0.00  0.00    +0.000 HD
ENDROOT
BRANCH  10  58
ATOM     58  C16 UNL     1      78.616  65.806 105.996  0.00  0.00    +0.000 C 
ATOM     59  C17 UNL     1      77.626  66.829 105.424  0.00  0.00    +0.000 C 
ATOM     60  C18 UNL     1      79.975  65.950 105.302  0.00  0.00    +0.000 C 
ENDBRANCH  10  58
BRANCH  40  61
ATOM     61  C60 UNL     1      72.620  75.296 103.129  0.00  0.00    +0.000 C 
ATOM     62  C61 UNL     1      72.418  76.171 101.877  0.00  0.00    +0.000 C 
ATOM     63  C62 UNL     1      72.902  76.206 104.332  0.00  0.00    +0.000 C 
ENDBRANCH  40  61
BRANCH   1  65
ATOM     64  C1  UNL     1      70.170  63.527 106.177  0.00  0.00    +0.000 C 
ATOM     65  C2  UNL     1      70.445  64.738 107.076  0.00  0.00    +0.000 C 
ENDBRANCH   1  65
BRANCH   5  66
ATOM     66  C6  UNL     1      74.850  63.022 109.400  0.00  0.00    +0.000 C 
BRANCH  66  67
ATOM     67  O2  UNL     1      75.533  61.967 108.766  0.00  0.00    +0.000 OA
ATOM     68  H10 UNL     1      76.149  61.561 109.435  0.00  0.00    +0.000 HD
ENDBRANCH  66  67
BRANCH  66  69
ATOM     69  C7  UNL     1      75.028  62.963 110.962  0.00  0.00    +0.000 C 
ATOM     70  C8  UNL     1      75.255  64.368 111.565  0.00  0.00    +0.000 C 
BRANCH  69  71
ATOM     71  C9  UNL     1      76.227  62.047 111.338  0.00  0.00    +0.000 C 
BRANCH  71  72
ATOM     72  C10 UNL     1      77.073  62.595 112.460  0.00  0.00    +0.000 C 
ATOM     73  C11 UNL     1      77.294  61.905 113.587  0.00  0.00    +0.000 C 
ATOM     74  C12 UNL     1      78.193  62.440 114.654  0.00  0.00    +0.000 C 
ENDBRANCH  71  72
ENDBRANCH  69  71
ENDBRANCH  66  69
ENDBRANCH   5  66
BRANCH  15  75
ATOM     75  C22 UNL     1      79.776  60.553 103.099  0.00  0.00    +0.000 C 
BRANCH  75  76
ATOM     76  C23 UNL     1      79.246  59.535 104.152  0.00  0.00    +0.000 C 
ATOM     77  C24 UNL     1      80.305  58.591 104.729  0.00  0.00    +0.000 C 
ATOM     78  C25 UNL     1      77.983  58.787 103.724  0.00  0.00    +0.000 C 
ENDBRANCH  75  76
ENDBRANCH  15  75
BRANCH  20  79
ATOM     79  C29 UNL     1      80.675  65.156  99.530  0.00  0.00    +0.000 C 
BRANCH  79  80
ATOM     80  C30 UNL     1      79.671  65.620  98.441  0.00  0.00    +0.000 C 
ATOM     81  C31 UNL     1      78.202  65.553  98.874  0.00  0.00    +0.000 C 
ATOM     82  C32 UNL     1      79.910  65.012  97.048  0.00  0.00    +0.000 C 
ENDBRANCH  79  80
ENDBRANCH  20  79
BRANCH  35  83
ATOM     83  C42 UNL     1      73.577  71.797  98.867  0.00  0.00    +0.000 C 
BRANCH  83  84
ATOM     84  C43 UNL     1      72.791  70.456  98.850  0.00  0.00    +0.000 C 
ATOM     85  C44 UNL     1      71.327  70.685  98.453  0.00  0.00    +0.000 C 
ATOM     86  C45 UNL     1      73.429  69.450  97.877  0.00  0.00    +0.000 C 
ENDBRANCH  83  84
ENDBRANCH  35  83
BRANCH  44  87
ATOM     87  C51 UNL     1      73.752  72.948 107.311  0.00  0.00    +0.000 C 
BRANCH  87  88
ATOM     88  C52 UNL     1      75.224  72.754 107.753  0.00  0.00    +0.000 C 
ATOM     89  C53 UNL     1      76.060  73.969 107.316  0.00  0.00    +0.000 C 
ATOM     90  C54 UNL     1      75.355  72.575 109.267  0.00  0.00    +0.000 C 
ENDBRANCH  87  88
ENDBRANCH  44  87
TORSDOF 16
ENDMDL
MODEL 13
REMARK VINA RESULT:      -6.6      4.071      6.051
REMARK  Name = ./S2286.pdb
REMARK  40 active torsions:
REMARK  status: ('A' for Active; 'I' for Inactive)
REMARK    1  A    between atoms: C1_1  and  C2_2
REMARK    2  A    between atoms: C2_2  and  C3_3
REMARK    3  A    between atoms: C5_7  and  C6_8
REMARK    4  A    between atoms: C6_8  and  O2_9
REMARK    5  A    between atoms: C6_8  and  C7_10
REMARK    6  A    between atoms: C7_10  and  C8_11
REMARK    7  A    between atoms: C7_10  and  C9_12
REMARK    8  A    between atoms: C9_12  and  C10_13
REMARK    9  A    between atoms: C11_14  and  C12_15
REMARK   10  A    between atoms: N2_16  and  C13_17
REMARK   11  A    between atoms: C15_20  and  C16_21
REMARK   12  A    between atoms: C16_21  and  C17_22
REMARK   13  A    between atoms: C16_21  and  C18_23
REMARK   14  A    between atoms: N3_24  and  C19_25
REMARK   15  A    between atoms: C21_28  and  C22_29
REMARK   16  A    between atoms: C22_29  and  C23_30
REMARK   17  A    between atoms: C23_30  and  C24_31
REMARK   18  A    between atoms: C23_30  and  C25_32
REMARK   19  A    between atoms: N4_33  and  C26_34
REMARK   20  A    between atoms: C28_37  and  C29_38
REMARK   21  A    between atoms: C29_38  and  C30_39
REMARK   22  A    between atoms: C30_39  and  C31_40
REMARK   23  A    between atoms: C30_39  and  C32_41
REMARK   24  A    between atoms: N5_42  and  C33_43
REMARK   25  A    between atoms: C35_46  and  C36_47
REMARK   26  A    between atoms: C38_51  and  C39_52
REMARK   27  A    between atoms: C41_56  and  C42_57
REMARK   28  A    between atoms: C42_57  and  C43_58
REMARK   29  A    between atoms: C43_58  and  C44_59
REMARK   30  A    between atoms: C43_58  and  C45_60
REMARK   31  A    between atoms: N8_61  and  C46_62
REMARK   32  A    between atoms: C48_65  and  C60_83
REMARK   33  A    between atoms: C50_69  and  C51_70
REMARK   34  A    between atoms: C51_70  and  C52_71
REMARK   35  A    between atoms: C52_71  and  C53_72
REMARK   36  A    between atoms: C52_71  and  C54_73
REMARK   37  A    between atoms: N10_74  and  C55_75
REMARK   38  A    between atoms: N11_79  and  C58_80
REMARK   39  A    between atoms: C60_83  and  C61_84
REMARK   40  A    between atoms: C60_83  and  C62_85
REMARK                            x       y       z     vdW  Elec       q    Type
REMARK                         _______ _______ _______ _____ _____    ______ ____
ROOT
ATOM      1  C3  UNL     1      75.107  71.184 106.501  0.00  0.00    +0.000 C 
ATOM      2  N1  UNL     1      74.395  70.173 107.292  0.00  0.00    +0.000 N 
ATOM      3  C4  UNL     1      74.917  68.835 107.441  0.00  0.00    +0.000 C 
ATOM      4  O1  UNL     1      76.099  68.595 107.054  0.00  0.00    +0.000 OA
ATOM      5  C5  UNL     1      74.156  67.717 108.156  0.00  0.00    +0.000 C 
ATOM      6  N2  UNL     1      74.521  66.362 107.663  0.00  0.00    +0.000 N 
ATOM      7  C13 UNL     1      74.327  65.230 108.590  0.00  0.00    +0.000 C 
ATOM      8  C14 UNL     1      74.892  66.109 106.278  0.00  0.00    +0.000 C 
ATOM      9  O3  UNL     1      74.599  66.970 105.405  0.00  0.00    +0.000 OA
ATOM     10  C15 UNL     1      75.575  64.816 105.828  0.00  0.00    +0.000 C 
ATOM     11  N3  UNL     1      75.530  64.635 104.350  0.00  0.00    +0.000 N 
ATOM     12  C19 UNL     1      76.089  65.650 103.437  0.00  0.00    +0.000 C 
ATOM     13  C20 UNL     1      75.021  63.389 103.792  0.00  0.00    +0.000 C 
ATOM     14  O4  UNL     1      74.861  62.395 104.544  0.00  0.00    +0.000 OA
ATOM     15  C21 UNL     1      74.709  63.243 102.305  0.00  0.00    +0.000 C 
ATOM     16  N4  UNL     1      75.896  62.905 101.477  0.00  0.00    +0.000 N 
ATOM     17  C26 UNL     1      75.905  63.341 100.081  0.00  0.00    +0.000 C 
ATOM     18  C27 UNL     1      77.062  62.232 102.028  0.00  0.00    +0.000 C 
ATOM     19  O5  UNL     1      76.877  61.295 102.844  0.00  0.00    +0.000 OA
ATOM     20  C28 UNL     1      78.491  62.697 101.722  0.00  0.00    +0.000 C 
ATOM     21  N5  UNL     1      79.453  62.498 102.841  0.00  0.00    +0.000 N 
ATOM     22  C33 UNL     1      79.581  61.203 103.521  0.00  0.00    +0.000 C 
ATOM     23  C34 UNL     1      80.270  63.612 103.287  0.00  0.00    +0.000 C 
ATOM     24  O6  UNL     1      79.876  64.795 103.080  0.00  0.00    +0.000 OA
ATOM     25  C35 UNL     1      81.598  63.417 103.987  0.00  0.00    +0.000 C 
ATOM     26  C36 UNL     1      81.411  63.195 105.493  0.00  0.00    +0.000 C 
ATOM     27  N6  UNL     1      82.455  64.591 103.783  0.00  0.00    +0.000 N 
ATOM     28  C37 UNL     1      83.386  64.690 102.696  0.00  0.00    +0.000 C 
ATOM     29  O7  UNL     1      83.233  63.973 101.671  0.00  0.00    +0.000 OA
ATOM     30  C38 UNL     1      84.569  65.617 102.792  0.00  0.00    +0.000 C 
ATOM     31  C39 UNL     1      85.503  65.167 103.915  0.00  0.00    +0.000 C 
ATOM     32  N7  UNL     1      84.124  66.992 103.032  0.00  0.00    +0.000 N 
ATOM     33  C40 UNL     1      84.347  68.056 102.098  0.00  0.00    +0.000 C 
ATOM     34  O8  UNL     1      84.725  67.796 100.919  0.00  0.00    +0.000 OA
ATOM     35  C41 UNL     1      84.123  69.491 102.540  0.00  0.00    +0.000 C 
ATOM     36  N8  UNL     1      84.972  69.867 103.699  0.00  0.00    +0.000 N 
ATOM     37  C46 UNL     1      86.266  69.206 103.940  0.00  0.00    +0.000 C 
ATOM     38  C47 UNL     1      84.500  70.895 104.605  0.00  0.00    +0.000 C 
ATOM     39  O9  UNL     1      83.661  71.733 104.179  0.00  0.00    +0.000 OA
ATOM     40  C48 UNL     1      84.935  70.964 106.067  0.00  0.00    +0.000 C 
ATOM     41  N9  UNL     1      83.817  70.686 106.988  0.00  0.00    +0.000 N 
ATOM     42  C49 UNL     1      82.612  71.460 107.168  0.00  0.00    +0.000 C 
ATOM     43  O10 UNL     1      82.274  72.307 106.299  0.00  0.00    +0.000 OA
ATOM     44  C50 UNL     1      81.639  71.123 108.288  0.00  0.00    +0.000 C 
ATOM     45  N10 UNL     1      80.532  72.104 108.429  0.00  0.00    +0.000 N 
ATOM     46  C55 UNL     1      80.774  73.555 108.368  0.00  0.00    +0.000 C 
ATOM     47  C56 UNL     1      79.207  71.625 108.768  0.00  0.00    +0.000 C 
ATOM     48  O11 UNL     1      79.047  70.423 109.120  0.00  0.00    +0.000 OA
ATOM     49  C57 UNL     1      78.000  72.536 108.753  0.00  0.00    +0.000 C 
ATOM     50  N11 UNL     1      76.783  71.779 108.424  0.00  0.00    +0.000 N 
ATOM     51  C58 UNL     1      76.013  71.186 109.525  0.00  0.00    +0.000 C 
ATOM     52  C59 UNL     1      76.496  71.496 107.034  0.00  0.00    +0.000 C 
ATOM     53  O12 UNL     1      77.429  71.597 106.190  0.00  0.00    +0.000 OA
ATOM     54  H7  UNL     1      73.429  70.393 107.598  0.00  0.00    +0.000 HD
ATOM     55  H66 UNL     1      82.421  65.366 104.488  0.00  0.00    +0.000 HD
ATOM     56  H71 UNL     1      83.704  67.232 103.957  0.00  0.00    +0.000 HD
ATOM     57  H86 UNL     1      83.887  69.791 107.523  0.00  0.00    +0.000 HD
ENDROOT
BRANCH  10  58
ATOM     58  C16 UNL     1      77.016  64.621 106.407  0.00  0.00    +0.000 C 
ATOM     59  C17 UNL     1      77.981  65.790 106.175  0.00  0.00    +0.000 C 
ATOM     60  C18 UNL     1      77.643  63.317 105.900  0.00  0.00    +0.000 C 
ENDBRANCH  10  58
BRANCH  40  61
ATOM     61  C60 UNL     1      85.748  72.233 106.477  0.00  0.00    +0.000 C 
ATOM     62  C61 UNL     1      86.701  72.797 105.406  0.00  0.00    +0.000 C 
ATOM     63  C62 UNL     1      86.538  72.000 107.773  0.00  0.00    +0.000 C 
ENDBRANCH  40  61
BRANCH   1  65
ATOM     64  C1  UNL     1      73.074  72.632 107.216  0.00  0.00    +0.000 C 
ATOM     65  C2  UNL     1      74.273  72.464 106.276  0.00  0.00    +0.000 C 
ENDBRANCH   1  65
BRANCH   5  66
ATOM     66  C6  UNL     1      72.603  67.878 108.259  0.00  0.00    +0.000 C 
BRANCH  66  67
ATOM     67  O2  UNL     1      72.286  69.223 108.531  0.00  0.00    +0.000 OA
ATOM     68  H10 UNL     1      73.079  69.638 108.968  0.00  0.00    +0.000 HD
ENDBRANCH  66  67
BRANCH  66  69
ATOM     69  C7  UNL     1      71.797  67.340 107.020  0.00  0.00    +0.000 C 
ATOM     70  C8  UNL     1      71.262  68.494 106.140  0.00  0.00    +0.000 C 
BRANCH  69  71
ATOM     71  C9  UNL     1      70.602  66.462 107.488  0.00  0.00    +0.000 C 
BRANCH  71  72
ATOM     72  C10 UNL     1      70.623  65.065 106.919  0.00  0.00    +0.000 C 
ATOM     73  C11 UNL     1      71.586  64.651 106.084  0.00  0.00    +0.000 C 
ATOM     74  C12 UNL     1      71.622  63.242 105.589  0.00  0.00    +0.000 C 
ENDBRANCH  71  72
ENDBRANCH  69  71
ENDBRANCH  66  69
ENDBRANCH   5  66
BRANCH  15  75
ATOM     75  C22 UNL     1      73.432  62.402 101.984  0.00  0.00    +0.000 C 
BRANCH  75  76
ATOM     76  C23 UNL     1      73.502  60.912 101.536  0.00  0.00    +0.000 C 
ATOM     77  C24 UNL     1      72.749  60.588 100.243  0.00  0.00    +0.000 C 
ATOM     78  C25 UNL     1      73.195  59.906 102.645  0.00  0.00    +0.000 C 
ENDBRANCH  75  76
ENDBRANCH  15  75
BRANCH  20  79
ATOM     79  C29 UNL     1      79.092  62.299 100.343  0.00  0.00    +0.000 C 
BRANCH  79  80
ATOM     80  C30 UNL     1      79.623  63.357  99.339  0.00  0.00    +0.000 C 
ATOM     81  C31 UNL     1      81.103  63.190  98.976  0.00  0.00    +0.000 C 
ATOM     82  C32 UNL     1      79.255  64.810  99.686  0.00  0.00    +0.000 C 
ENDBRANCH  79  80
ENDBRANCH  20  79
BRANCH  35  83
ATOM     83  C42 UNL     1      84.231  70.512 101.373  0.00  0.00    +0.000 C 
BRANCH  83  84
ATOM     84  C43 UNL     1      82.875  71.053 100.840  0.00  0.00    +0.000 C 
ATOM     85  C44 UNL     1      83.014  72.507 100.370  0.00  0.00    +0.000 C 
ATOM     86  C45 UNL     1      82.352  70.193  99.677  0.00  0.00    +0.000 C 
ENDBRANCH  83  84
ENDBRANCH  35  83
BRANCH  44  87
ATOM     87  C51 UNL     1      82.279  70.790 109.666  0.00  0.00    +0.000 C 
BRANCH  87  88
ATOM     88  C52 UNL     1      83.522  71.613 110.084  0.00  0.00    +0.000 C 
ATOM     89  C53 UNL     1      83.131  72.622 111.178  0.00  0.00    +0.000 C 
ATOM     90  C54 UNL     1      84.656  70.728 110.604  0.00  0.00    +0.000 C 
ENDBRANCH  87  88
ENDBRANCH  44  87
TORSDOF 16
ENDMDL
MODEL 14
REMARK VINA RESULT:      -6.5      2.255      2.829
REMARK  Name = ./S2286.pdb
REMARK  40 active torsions:
REMARK  status: ('A' for Active; 'I' for Inactive)
REMARK    1  A    between atoms: C1_1  and  C2_2
REMARK    2  A    between atoms: C2_2  and  C3_3
REMARK    3  A    between atoms: C5_7  and  C6_8
REMARK    4  A    between atoms: C6_8  and  O2_9
REMARK    5  A    between atoms: C6_8  and  C7_10
REMARK    6  A    between atoms: C7_10  and  C8_11
REMARK    7  A    between atoms: C7_10  and  C9_12
REMARK    8  A    between atoms: C9_12  and  C10_13
REMARK    9  A    between atoms: C11_14  and  C12_15
REMARK   10  A    between atoms: N2_16  and  C13_17
REMARK   11  A    between atoms: C15_20  and  C16_21
REMARK   12  A    between atoms: C16_21  and  C17_22
REMARK   13  A    between atoms: C16_21  and  C18_23
REMARK   14  A    between atoms: N3_24  and  C19_25
REMARK   15  A    between atoms: C21_28  and  C22_29
REMARK   16  A    between atoms: C22_29  and  C23_30
REMARK   17  A    between atoms: C23_30  and  C24_31
REMARK   18  A    between atoms: C23_30  and  C25_32
REMARK   19  A    between atoms: N4_33  and  C26_34
REMARK   20  A    between atoms: C28_37  and  C29_38
REMARK   21  A    between atoms: C29_38  and  C30_39
REMARK   22  A    between atoms: C30_39  and  C31_40
REMARK   23  A    between atoms: C30_39  and  C32_41
REMARK   24  A    between atoms: N5_42  and  C33_43
REMARK   25  A    between atoms: C35_46  and  C36_47
REMARK   26  A    between atoms: C38_51  and  C39_52
REMARK   27  A    between atoms: C41_56  and  C42_57
REMARK   28  A    between atoms: C42_57  and  C43_58
REMARK   29  A    between atoms: C43_58  and  C44_59
REMARK   30  A    between atoms: C43_58  and  C45_60
REMARK   31  A    between atoms: N8_61  and  C46_62
REMARK   32  A    between atoms: C48_65  and  C60_83
REMARK   33  A    between atoms: C50_69  and  C51_70
REMARK   34  A    between atoms: C51_70  and  C52_71
REMARK   35  A    between atoms: C52_71  and  C53_72
REMARK   36  A    between atoms: C52_71  and  C54_73
REMARK   37  A    between atoms: N10_74  and  C55_75
REMARK   38  A    between atoms: N11_79  and  C58_80
REMARK   39  A    between atoms: C60_83  and  C61_84
REMARK   40  A    between atoms: C60_83  and  C62_85
REMARK                            x       y       z     vdW  Elec       q    Type
REMARK                         _______ _______ _______ _____ _____    ______ ____
ROOT
ATOM      1  C3  UNL     1      73.542  69.938 107.757  0.00  0.00    +0.000 C 
ATOM      2  N1  UNL     1      73.828  69.165 108.972  0.00  0.00    +0.000 N 
ATOM      3  C4  UNL     1      74.689  68.007 108.938  0.00  0.00    +0.000 C 
ATOM      4  O1  UNL     1      75.364  67.780 107.890  0.00  0.00    +0.000 OA
ATOM      5  C5  UNL     1      74.923  67.104 110.150  0.00  0.00    +0.000 C 
ATOM      6  N2  UNL     1      75.272  65.708 109.773  0.00  0.00    +0.000 N 
ATOM      7  C13 UNL     1      76.051  64.919 110.747  0.00  0.00    +0.000 C 
ATOM      8  C14 UNL     1      74.738  65.065 108.580  0.00  0.00    +0.000 C 
ATOM      9  O3  UNL     1      73.724  65.566 108.024  0.00  0.00    +0.000 OA
ATOM     10  C15 UNL     1      75.324  63.774 108.005  0.00  0.00    +0.000 C 
ATOM     11  N3  UNL     1      74.413  63.126 107.021  0.00  0.00    +0.000 N 
ATOM     12  C19 UNL     1      73.939  63.848 105.825  0.00  0.00    +0.000 C 
ATOM     13  C20 UNL     1      74.062  61.721 107.182  0.00  0.00    +0.000 C 
ATOM     14  O4  UNL     1      74.713  61.010 107.987  0.00  0.00    +0.000 OA
ATOM     15  C21 UNL     1      72.941  61.076 106.370  0.00  0.00    +0.000 C 
ATOM     16  N4  UNL     1      73.370  60.615 105.023  0.00  0.00    +0.000 N 
ATOM     17  C26 UNL     1      72.367  60.580 103.960  0.00  0.00    +0.000 C 
ATOM     18  C27 UNL     1      74.753  60.279 104.720  0.00  0.00    +0.000 C 
ATOM     19  O5  UNL     1      75.410  59.640 105.578  0.00  0.00    +0.000 OA
ATOM     20  C28 UNL     1      75.448  60.768 103.444  0.00  0.00    +0.000 C 
ATOM     21  N5  UNL     1      76.904  61.039 103.605  0.00  0.00    +0.000 N 
ATOM     22  C33 UNL     1      77.805  60.051 104.210  0.00  0.00    +0.000 C 
ATOM     23  C34 UNL     1      77.444  62.316 103.174  0.00  0.00    +0.000 C 
ATOM     24  O6  UNL     1      76.683  63.323 103.106  0.00  0.00    +0.000 OA
ATOM     25  C35 UNL     1      78.897  62.494 102.787  0.00  0.00    +0.000 C 
ATOM     26  C36 UNL     1      79.778  62.748 104.016  0.00  0.00    +0.000 C 
ATOM     27  N6  UNL     1      79.038  63.624 101.860  0.00  0.00    +0.000 N 
ATOM     28  C37 UNL     1      78.991  63.466 100.435  0.00  0.00    +0.000 C 
ATOM     29  O7  UNL     1      78.445  62.446  99.934  0.00  0.00    +0.000 OA
ATOM     30  C38 UNL     1      79.628  64.492  99.536  0.00  0.00    +0.000 C 
ATOM     31  C39 UNL     1      81.139  64.525  99.759  0.00  0.00    +0.000 C 
ATOM     32  N7  UNL     1      79.056  65.818  99.786  0.00  0.00    +0.000 N 
ATOM     33  C40 UNL     1      78.313  66.544  98.799  0.00  0.00    +0.000 C 
ATOM     34  O8  UNL     1      77.917  65.961  97.748  0.00  0.00    +0.000 OA
ATOM     35  C41 UNL     1      78.009  68.014  99.029  0.00  0.00    +0.000 C 
ATOM     36  N8  UNL     1      79.240  68.827  99.201  0.00  0.00    +0.000 N 
ATOM     37  C46 UNL     1      80.515  68.416  98.589  0.00  0.00    +0.000 C 
ATOM     38  C47 UNL     1      79.171  70.036  99.998  0.00  0.00    +0.000 C 
ATOM     39  O9  UNL     1      78.054  70.601 100.137  0.00  0.00    +0.000 OA
ATOM     40  C48 UNL     1      80.386  70.614 100.720  0.00  0.00    +0.000 C 
ATOM     41  N9  UNL     1      80.247  70.531 102.186  0.00  0.00    +0.000 N 
ATOM     42  C49 UNL     1      79.268  71.192 103.016  0.00  0.00    +0.000 C 
ATOM     43  O10 UNL     1      78.228  71.676 102.496  0.00  0.00    +0.000 OA
ATOM     44  C50 UNL     1      79.376  71.132 104.532  0.00  0.00    +0.000 C 
ATOM     45  N10 UNL     1      78.381  71.986 105.233  0.00  0.00    +0.000 N 
ATOM     46  C55 UNL     1      78.090  73.358 104.785  0.00  0.00    +0.000 C 
ATOM     47  C56 UNL     1      77.785  71.506 106.463  0.00  0.00    +0.000 C 
ATOM     48  O11 UNL     1      78.247  70.470 107.019  0.00  0.00    +0.000 OA
ATOM     49  C57 UNL     1      76.642  72.232 107.135  0.00  0.00    +0.000 C 
ATOM     50  N11 UNL     1      75.783  71.288 107.864  0.00  0.00    +0.000 N 
ATOM     51  C58 UNL     1      76.101  71.002 109.269  0.00  0.00    +0.000 C 
ATOM     52  C59 UNL     1      74.783  70.547 107.126  0.00  0.00    +0.000 C 
ATOM     53  O12 UNL     1      74.890  70.469 105.871  0.00  0.00    +0.000 OA
ATOM     54  H7  UNL     1      73.262  69.369 109.817  0.00  0.00    +0.000 HD
ATOM     55  H66 UNL     1      79.230  64.576 102.254  0.00  0.00    +0.000 HD
ATOM     56  H71 UNL     1      79.268  66.297 100.689  0.00  0.00    +0.000 HD
ATOM     57  H86 UNL     1      80.898  69.866 102.663  0.00  0.00    +0.000 HD
ENDROOT
BRANCH  10  58
ATOM     58  C16 UNL     1      76.781  63.926 107.454  0.00  0.00    +0.000 C 
ATOM     59  C17 UNL     1      77.899  63.617 108.457  0.00  0.00    +0.000 C 
ATOM     60  C18 UNL     1      76.999  65.314 106.841  0.00  0.00    +0.000 C 
ENDBRANCH  10  58
BRANCH  40  61
ATOM     61  C60 UNL     1      80.856  72.026 100.241  0.00  0.00    +0.000 C 
ATOM     62  C61 UNL     1      80.310  72.489  98.878  0.00  0.00    +0.000 C 
ATOM     63  C62 UNL     1      82.387  72.134 100.227  0.00  0.00    +0.000 C 
ENDBRANCH  40  61
BRANCH   1  65
ATOM     64  C1  UNL     1      71.003  70.478 107.697  0.00  0.00    +0.000 C 
ATOM     65  C2  UNL     1      72.425  70.984 107.963  0.00  0.00    +0.000 C 
ENDBRANCH   1  65
BRANCH   5  66
ATOM     66  C6  UNL     1      73.826  67.127 111.266  0.00  0.00    +0.000 C 
BRANCH  66  67
ATOM     67  O2  UNL     1      72.606  66.664 110.736  0.00  0.00    +0.000 OA
ATOM     68  H10 UNL     1      71.996  66.477 111.500  0.00  0.00    +0.000 HD
ENDBRANCH  66  67
BRANCH  66  69
ATOM     69  C7  UNL     1      74.206  66.359 112.585  0.00  0.00    +0.000 C 
ATOM     70  C8  UNL     1      72.953  65.833 113.321  0.00  0.00    +0.000 C 
BRANCH  69  71
ATOM     71  C9  UNL     1      75.006  67.287 113.542  0.00  0.00    +0.000 C 
BRANCH  71  72
ATOM     72  C10 UNL     1      74.688  67.065 115.000  0.00  0.00    +0.000 C 
ATOM     73  C11 UNL     1      74.773  68.050 115.905  0.00  0.00    +0.000 C 
ATOM     74  C12 UNL     1      74.386  67.823 117.330  0.00  0.00    +0.000 C 
ENDBRANCH  71  72
ENDBRANCH  69  71
ENDBRANCH  66  69
ENDBRANCH   5  66
BRANCH  15  75
ATOM     75  C22 UNL     1      72.070  60.048 107.161  0.00  0.00    +0.000 C 
BRANCH  75  76
ATOM     76  C23 UNL     1      72.576  58.618 107.514  0.00  0.00    +0.000 C 
ATOM     77  C24 UNL     1      71.849  57.478 106.794  0.00  0.00    +0.000 C 
ATOM     78  C25 UNL     1      72.716  58.352 109.013  0.00  0.00    +0.000 C 
ENDBRANCH  75  76
ENDBRANCH  15  75
BRANCH  20  79
ATOM     79  C29 UNL     1      75.126  60.014 102.121  0.00  0.00    +0.000 C 
BRANCH  79  80
ATOM     80  C30 UNL     1      75.765  60.419 100.766  0.00  0.00    +0.000 C 
ATOM     81  C31 UNL     1      74.778  61.032  99.766  0.00  0.00    +0.000 C 
ATOM     82  C32 UNL     1      76.663  59.342 100.133  0.00  0.00    +0.000 C 
ENDBRANCH  79  80
ENDBRANCH  20  79
BRANCH  35  83
ATOM     83  C42 UNL     1      77.051  68.612  97.963  0.00  0.00    +0.000 C 
BRANCH  83  84
ATOM     84  C43 UNL     1      75.546  68.613  98.352  0.00  0.00    +0.000 C 
ATOM     85  C44 UNL     1      74.971  70.034  98.310  0.00  0.00    +0.000 C 
ATOM     86  C45 UNL     1      74.729  67.708  97.415  0.00  0.00    +0.000 C 
ENDBRANCH  83  84
ENDBRANCH  35  83
BRANCH  44  87
ATOM     87  C51 UNL     1      80.803  71.326 105.119  0.00  0.00    +0.000 C 
BRANCH  87  88
ATOM     88  C52 UNL     1      81.402  70.146 105.923  0.00  0.00    +0.000 C 
ATOM     89  C53 UNL     1      82.116  69.176 104.965  0.00  0.00    +0.000 C 
ATOM     90  C54 UNL     1      82.393  70.614 106.990  0.00  0.00    +0.000 C 
ENDBRANCH  87  88
ENDBRANCH  44  87
TORSDOF 16
ENDMDL
MODEL 15
REMARK VINA RESULT:      -6.5      6.927     10.473
REMARK  Name = ./S2286.pdb
REMARK  40 active torsions:
REMARK  status: ('A' for Active; 'I' for Inactive)
REMARK    1  A    between atoms: C1_1  and  C2_2
REMARK    2  A    between atoms: C2_2  and  C3_3
REMARK    3  A    between atoms: C5_7  and  C6_8
REMARK    4  A    between atoms: C6_8  and  O2_9
REMARK    5  A    between atoms: C6_8  and  C7_10
REMARK    6  A    between atoms: C7_10  and  C8_11
REMARK    7  A    between atoms: C7_10  and  C9_12
REMARK    8  A    between atoms: C9_12  and  C10_13
REMARK    9  A    between atoms: C11_14  and  C12_15
REMARK   10  A    between atoms: N2_16  and  C13_17
REMARK   11  A    between atoms: C15_20  and  C16_21
REMARK   12  A    between atoms: C16_21  and  C17_22
REMARK   13  A    between atoms: C16_21  and  C18_23
REMARK   14  A    between atoms: N3_24  and  C19_25
REMARK   15  A    between atoms: C21_28  and  C22_29
REMARK   16  A    between atoms: C22_29  and  C23_30
REMARK   17  A    between atoms: C23_30  and  C24_31
REMARK   18  A    between atoms: C23_30  and  C25_32
REMARK   19  A    between atoms: N4_33  and  C26_34
REMARK   20  A    between atoms: C28_37  and  C29_38
REMARK   21  A    between atoms: C29_38  and  C30_39
REMARK   22  A    between atoms: C30_39  and  C31_40
REMARK   23  A    between atoms: C30_39  and  C32_41
REMARK   24  A    between atoms: N5_42  and  C33_43
REMARK   25  A    between atoms: C35_46  and  C36_47
REMARK   26  A    between atoms: C38_51  and  C39_52
REMARK   27  A    between atoms: C41_56  and  C42_57
REMARK   28  A    between atoms: C42_57  and  C43_58
REMARK   29  A    between atoms: C43_58  and  C44_59
REMARK   30  A    between atoms: C43_58  and  C45_60
REMARK   31  A    between atoms: N8_61  and  C46_62
REMARK   32  A    between atoms: C48_65  and  C60_83
REMARK   33  A    between atoms: C50_69  and  C51_70
REMARK   34  A    between atoms: C51_70  and  C52_71
REMARK   35  A    between atoms: C52_71  and  C53_72
REMARK   36  A    between atoms: C52_71  and  C54_73
REMARK   37  A    between atoms: N10_74  and  C55_75
REMARK   38  A    between atoms: N11_79  and  C58_80
REMARK   39  A    between atoms: C60_83  and  C61_84
REMARK   40  A    between atoms: C60_83  and  C62_85
REMARK                            x       y       z     vdW  Elec       q    Type
REMARK                         _______ _______ _______ _____ _____    ______ ____
ROOT
ATOM      1  C3  UNL     1      79.358  76.290 100.019  0.00  0.00    +0.000 C 
ATOM      2  N1  UNL     1      78.259  75.705 100.797  0.00  0.00    +0.000 N 
ATOM      3  C4  UNL     1      78.177  74.281 101.024  0.00  0.00    +0.000 C 
ATOM      4  O1  UNL     1      79.172  73.558 100.723  0.00  0.00    +0.000 OA
ATOM      5  C5  UNL     1      76.993  73.615 101.726  0.00  0.00    +0.000 C 
ATOM      6  N2  UNL     1      76.790  72.203 101.305  0.00  0.00    +0.000 N 
ATOM      7  C13 UNL     1      76.107  71.305 102.255  0.00  0.00    +0.000 C 
ATOM      8  C14 UNL     1      77.087  71.741  99.955  0.00  0.00    +0.000 C 
ATOM      9  O3  UNL     1      77.213  72.595  99.037  0.00  0.00    +0.000 OA
ATOM     10  C15 UNL     1      77.197  70.259  99.595  0.00  0.00    +0.000 C 
ATOM     11  N3  UNL     1      77.149  70.026  98.124  0.00  0.00    +0.000 N 
ATOM     12  C19 UNL     1      78.116  70.671  97.215  0.00  0.00    +0.000 C 
ATOM     13  C20 UNL     1      76.198  69.067  97.578  0.00  0.00    +0.000 C 
ATOM     14  O4  UNL     1      75.610  68.271  98.351  0.00  0.00    +0.000 OA
ATOM     15  C21 UNL     1      75.921  68.976  96.079  0.00  0.00    +0.000 C 
ATOM     16  N4  UNL     1      76.900  68.135  95.342  0.00  0.00    +0.000 N 
ATOM     17  C26 UNL     1      77.150  68.449  93.936  0.00  0.00    +0.000 C 
ATOM     18  C27 UNL     1      77.660  67.078  95.989  0.00  0.00    +0.000 C 
ATOM     19  O5  UNL     1      77.070  66.348  96.824  0.00  0.00    +0.000 OA
ATOM     20  C28 UNL     1      79.166  66.901  95.761  0.00  0.00    +0.000 C 
ATOM     21  N5  UNL     1      79.910  66.391  96.946  0.00  0.00    +0.000 N 
ATOM     22  C33 UNL     1      79.464  65.198  97.677  0.00  0.00    +0.000 C 
ATOM     23  C34 UNL     1      81.092  67.098  97.405  0.00  0.00    +0.000 C 
ATOM     24  O6  UNL     1      81.228  68.325  97.133  0.00  0.00    +0.000 OA
ATOM     25  C35 UNL     1      82.189  66.418  98.197  0.00  0.00    +0.000 C 
ATOM     26  C36 UNL     1      81.860  66.380  99.694  0.00  0.00    +0.000 C 
ATOM     27  N6  UNL     1      83.462  67.126  98.008  0.00  0.00    +0.000 N 
ATOM     28  C37 UNL     1      84.399  66.774  96.981  0.00  0.00    +0.000 C 
ATOM     29  O7  UNL     1      84.011  66.124  95.974  0.00  0.00    +0.000 OA
ATOM     30  C38 UNL     1      85.852  67.141  97.121  0.00  0.00    +0.000 C 
ATOM     31  C39 UNL     1      86.468  66.414  98.317  0.00  0.00    +0.000 C 
ATOM     32  N7  UNL     1      86.002  68.589  97.285  0.00  0.00    +0.000 N 
ATOM     33  C40 UNL     1      86.683  69.413  96.332  0.00  0.00    +0.000 C 
ATOM     34  O8  UNL     1      86.974  68.954  95.189  0.00  0.00    +0.000 OA
ATOM     35  C41 UNL     1      87.050  70.838  96.709  0.00  0.00    +0.000 C 
ATOM     36  N8  UNL     1      87.925  70.900  97.907  0.00  0.00    +0.000 N 
ATOM     37  C46 UNL     1      88.821  69.783  98.253  0.00  0.00    +0.000 C 
ATOM     38  C47 UNL     1      87.877  72.082  98.745  0.00  0.00    +0.000 C 
ATOM     39  O9  UNL     1      87.477  73.163  98.238  0.00  0.00    +0.000 OA
ATOM     40  C48 UNL     1      88.236  72.051 100.229  0.00  0.00    +0.000 C 
ATOM     41  N9  UNL     1      87.063  72.307 101.085  0.00  0.00    +0.000 N 
ATOM     42  C49 UNL     1      86.275  73.515 101.160  0.00  0.00    +0.000 C 
ATOM     43  O10 UNL     1      86.354  74.375 100.243  0.00  0.00    +0.000 OA
ATOM     44  C50 UNL     1      85.200  73.670 102.226  0.00  0.00    +0.000 C 
ATOM     45  N10 UNL     1      84.589  75.024 102.261  0.00  0.00    +0.000 N 
ATOM     46  C55 UNL     1      85.409  76.244 102.166  0.00  0.00    +0.000 C 
ATOM     47  C56 UNL     1      83.170  75.148 102.530  0.00  0.00    +0.000 C 
ATOM     48  O11 UNL     1      82.515  74.139 102.912  0.00  0.00    +0.000 OA
ATOM     49  C57 UNL     1      82.446  76.470 102.406  0.00  0.00    +0.000 C 
ATOM     50  N11 UNL     1      81.042  76.259 102.024  0.00  0.00    +0.000 N 
ATOM     51  C58 UNL     1      80.048  76.096 103.094  0.00  0.00    +0.000 C 
ATOM     52  C59 UNL     1      80.727  76.037 100.630  0.00  0.00    +0.000 C 
ATOM     53  O12 UNL     1      81.656  75.700  99.845  0.00  0.00    +0.000 OA
ATOM     54  H7  UNL     1      77.456  76.317 101.031  0.00  0.00    +0.000 HD
ATOM     55  H66 UNL     1      83.717  67.887  98.682  0.00  0.00    +0.000 HD
ATOM     56  H71 UNL     1      85.677  69.032  98.173  0.00  0.00    +0.000 HD
ATOM     57  H86 UNL     1      86.734  71.494 101.653  0.00  0.00    +0.000 HD
ENDROOT
BRANCH  10  58
ATOM     58  C16 UNL     1      78.403  69.526 100.272  0.00  0.00    +0.000 C 
ATOM     59  C17 UNL     1      79.774  70.180 100.059  0.00  0.00    +0.000 C 
ATOM     60  C18 UNL     1      78.458  68.052  99.856  0.00  0.00    +0.000 C 
ENDBRANCH  10  58
BRANCH  40  61
ATOM     61  C60 UNL     1      89.480  72.899 100.647  0.00  0.00    +0.000 C 
ATOM     62  C61 UNL     1      90.754  72.684  99.809  0.00  0.00    +0.000 C 
ATOM     63  C62 UNL     1      89.821  72.702 102.131  0.00  0.00    +0.000 C 
ENDBRANCH  40  61
BRANCH   1  65
ATOM     64  C1  UNL     1      78.255  78.540 100.699  0.00  0.00    +0.000 C 
ATOM     65  C2  UNL     1      79.135  77.784  99.697  0.00  0.00    +0.000 C 
ENDBRANCH   1  65
BRANCH   5  66
ATOM     66  C6  UNL     1      75.640  74.402 101.723  0.00  0.00    +0.000 C 
BRANCH  66  67
ATOM     67  O2  UNL     1      75.846  75.693 102.245  0.00  0.00    +0.000 OA
ATOM     68  H10 UNL     1      75.116  75.877 102.896  0.00  0.00    +0.000 HD
ENDBRANCH  66  67
BRANCH  66  69
ATOM     69  C7  UNL     1      74.908  74.457 100.332  0.00  0.00    +0.000 C 
ATOM     70  C8  UNL     1      75.107  75.822  99.634  0.00  0.00    +0.000 C 
BRANCH  69  71
ATOM     71  C9  UNL     1      73.386  74.192 100.508  0.00  0.00    +0.000 C 
BRANCH  71  72
ATOM     72  C10 UNL     1      73.030  72.727 100.545  0.00  0.00    +0.000 C 
ATOM     73  C11 UNL     1      73.448  71.869  99.604  0.00  0.00    +0.000 C 
ATOM     74  C12 UNL     1      73.141  70.410  99.701  0.00  0.00    +0.000 C 
ENDBRANCH  71  72
ENDBRANCH  69  71
ENDBRANCH  66  69
ENDBRANCH   5  66
BRANCH  15  75
ATOM     75  C22 UNL     1      74.427  68.713  95.705  0.00  0.00    +0.000 C 
BRANCH  75  76
ATOM     76  C23 UNL     1      73.493  69.831  95.156  0.00  0.00    +0.000 C 
ATOM     77  C24 UNL     1      73.786  70.273  93.719  0.00  0.00    +0.000 C 
ATOM     78  C25 UNL     1      73.316  71.023  96.097  0.00  0.00    +0.000 C 
ENDBRANCH  75  76
ENDBRANCH  15  75
BRANCH  20  79
ATOM     79  C29 UNL     1      79.612  66.213  94.438  0.00  0.00    +0.000 C 
BRANCH  79  80
ATOM     80  C30 UNL     1      80.387  66.979  93.333  0.00  0.00    +0.000 C 
ATOM     81  C31 UNL     1      81.487  66.155  92.653  0.00  0.00    +0.000 C 
ATOM     82  C32 UNL     1      80.861  68.385  93.739  0.00  0.00    +0.000 C 
ENDBRANCH  79  80
ENDBRANCH  20  79
BRANCH  35  83
ATOM     83  C42 UNL     1      87.620  71.656  95.518  0.00  0.00    +0.000 C 
BRANCH  83  84
ATOM     84  C43 UNL     1      89.165  71.826  95.511  0.00  0.00    +0.000 C 
ATOM     85  C44 UNL     1      89.804  70.971  94.409  0.00  0.00    +0.000 C 
ATOM     86  C45 UNL     1      89.562  73.297  95.304  0.00  0.00    +0.000 C 
ENDBRANCH  83  84
ENDBRANCH  35  83
BRANCH  44  87
ATOM     87  C51 UNL     1      85.584  73.184 103.653  0.00  0.00    +0.000 C 
BRANCH  87  88
ATOM     88  C52 UNL     1      85.000  71.828 104.117  0.00  0.00    +0.000 C 
ATOM     89  C53 UNL     1      84.087  72.047 105.336  0.00  0.00    +0.000 C 
ATOM     90  C54 UNL     1      84.202  71.132 103.013  0.00  0.00    +0.000 C 
ENDBRANCH  87  88
ENDBRANCH  44  87
TORSDOF 16
ENDMDL
MODEL 16
REMARK VINA RESULT:      -6.4      2.200     11.914
REMARK  Name = ./S2286.pdb
REMARK  40 active torsions:
REMARK  status: ('A' for Active; 'I' for Inactive)
REMARK    1  A    between atoms: C1_1  and  C2_2
REMARK    2  A    between atoms: C2_2  and  C3_3
REMARK    3  A    between atoms: C5_7  and  C6_8
REMARK    4  A    between atoms: C6_8  and  O2_9
REMARK    5  A    between atoms: C6_8  and  C7_10
REMARK    6  A    between atoms: C7_10  and  C8_11
REMARK    7  A    between atoms: C7_10  and  C9_12
REMARK    8  A    between atoms: C9_12  and  C10_13
REMARK    9  A    between atoms: C11_14  and  C12_15
REMARK   10  A    between atoms: N2_16  and  C13_17
REMARK   11  A    between atoms: C15_20  and  C16_21
REMARK   12  A    between atoms: C16_21  and  C17_22
REMARK   13  A    between atoms: C16_21  and  C18_23
REMARK   14  A    between atoms: N3_24  and  C19_25
REMARK   15  A    between atoms: C21_28  and  C22_29
REMARK   16  A    between atoms: C22_29  and  C23_30
REMARK   17  A    between atoms: C23_30  and  C24_31
REMARK   18  A    between atoms: C23_30  and  C25_32
REMARK   19  A    between atoms: N4_33  and  C26_34
REMARK   20  A    between atoms: C28_37  and  C29_38
REMARK   21  A    between atoms: C29_38  and  C30_39
REMARK   22  A    between atoms: C30_39  and  C31_40
REMARK   23  A    between atoms: C30_39  and  C32_41
REMARK   24  A    between atoms: N5_42  and  C33_43
REMARK   25  A    between atoms: C35_46  and  C36_47
REMARK   26  A    between atoms: C38_51  and  C39_52
REMARK   27  A    between atoms: C41_56  and  C42_57
REMARK   28  A    between atoms: C42_57  and  C43_58
REMARK   29  A    between atoms: C43_58  and  C44_59
REMARK   30  A    between atoms: C43_58  and  C45_60
REMARK   31  A    between atoms: N8_61  and  C46_62
REMARK   32  A    between atoms: C48_65  and  C60_83
REMARK   33  A    between atoms: C50_69  and  C51_70
REMARK   34  A    between atoms: C51_70  and  C52_71
REMARK   35  A    between atoms: C52_71  and  C53_72
REMARK   36  A    between atoms: C52_71  and  C54_73
REMARK   37  A    between atoms: N10_74  and  C55_75
REMARK   38  A    between atoms: N11_79  and  C58_80
REMARK   39  A    between atoms: C60_83  and  C61_84
REMARK   40  A    between atoms: C60_83  and  C62_85
REMARK                            x       y       z     vdW  Elec       q    Type
REMARK                         _______ _______ _______ _____ _____    ______ ____
ROOT
ATOM      1  C3  UNL     1      76.166  67.617  97.578  0.00  0.00    +0.000 C 
ATOM      2  N1  UNL     1      76.911  68.880  97.649  0.00  0.00    +0.000 N 
ATOM      3  C4  UNL     1      77.172  69.526  98.913  0.00  0.00    +0.000 C 
ATOM      4  O1  UNL     1      76.931  68.891  99.983  0.00  0.00    +0.000 OA
ATOM      5  C5  UNL     1      77.839  70.897  99.028  0.00  0.00    +0.000 C 
ATOM      6  N2  UNL     1      77.446  71.631 100.261  0.00  0.00    +0.000 N 
ATOM      7  C13 UNL     1      78.389  72.641 100.777  0.00  0.00    +0.000 C 
ATOM      8  C14 UNL     1      76.123  71.504 100.856  0.00  0.00    +0.000 C 
ATOM      9  O3  UNL     1      75.189  71.023 100.159  0.00  0.00    +0.000 OA
ATOM     10  C15 UNL     1      75.805  71.980 102.275  0.00  0.00    +0.000 C 
ATOM     11  N3  UNL     1      74.340  72.075 102.527  0.00  0.00    +0.000 N 
ATOM     12  C19 UNL     1      73.457  70.906 102.355  0.00  0.00    +0.000 C 
ATOM     13  C20 UNL     1      73.779  73.312 103.054  0.00  0.00    +0.000 C 
ATOM     14  O4  UNL     1      74.547  74.189 103.521  0.00  0.00    +0.000 OA
ATOM     15  C21 UNL     1      72.272  73.559 103.088  0.00  0.00    +0.000 C 
ATOM     16  N4  UNL     1      71.599  72.973 104.276  0.00  0.00    +0.000 N 
ATOM     17  C26 UNL     1      70.197  72.580 104.143  0.00  0.00    +0.000 C 
ATOM     18  C27 UNL     1      72.305  72.714 105.521  0.00  0.00    +0.000 C 
ATOM     19  O5  UNL     1      73.131  73.569 105.924  0.00  0.00    +0.000 OA
ATOM     20  C28 UNL     1      72.145  71.395 106.288  0.00  0.00    +0.000 C 
ATOM     21  N5  UNL     1      73.372  70.949 107.002  0.00  0.00    +0.000 N 
ATOM     22  C33 UNL     1      74.114  71.852 107.891  0.00  0.00    +0.000 C 
ATOM     23  C34 UNL     1      73.862  69.597 106.802  0.00  0.00    +0.000 C 
ATOM     24  O6  UNL     1      73.566  68.978 105.741  0.00  0.00    +0.000 OA
ATOM     25  C35 UNL     1      74.717  68.882 107.828  0.00  0.00    +0.000 C 
ATOM     26  C36 UNL     1      76.199  69.243 107.674  0.00  0.00    +0.000 C 
ATOM     27  N6  UNL     1      74.564  67.429 107.689  0.00  0.00    +0.000 N 
ATOM     28  C37 UNL     1      73.587  66.679 108.425  0.00  0.00    +0.000 C 
ATOM     29  O7  UNL     1      72.580  67.265 108.908  0.00  0.00    +0.000 OA
ATOM     30  C38 UNL     1      73.778  65.204 108.657  0.00  0.00    +0.000 C 
ATOM     31  C39 UNL     1      75.017  64.962 109.519  0.00  0.00    +0.000 C 
ATOM     32  N7  UNL     1      73.911  64.498 107.380  0.00  0.00    +0.000 N 
ATOM     33  C40 UNL     1      72.967  63.518 106.932  0.00  0.00    +0.000 C 
ATOM     34  O8  UNL     1      71.850  63.400 107.514  0.00  0.00    +0.000 OA
ATOM     35  C41 UNL     1      73.322  62.628 105.754  0.00  0.00    +0.000 C 
ATOM     36  N8  UNL     1      74.554  61.834 105.995  0.00  0.00    +0.000 N 
ATOM     37  C46 UNL     1      74.967  61.464 107.360  0.00  0.00    +0.000 C 
ATOM     38  C47 UNL     1      75.359  61.433 104.858  0.00  0.00    +0.000 C 
ATOM     39  O9  UNL     1      74.809  61.357 103.728  0.00  0.00    +0.000 OA
ATOM     40  C48 UNL     1      76.857  61.159 104.968  0.00  0.00    +0.000 C 
ATOM     41  N9  UNL     1      77.657  62.158 104.235  0.00  0.00    +0.000 N 
ATOM     42  C49 UNL     1      77.667  62.404 102.813  0.00  0.00    +0.000 C 
ATOM     43  O10 UNL     1      76.733  61.964 102.092  0.00  0.00    +0.000 OA
ATOM     44  C50 UNL     1      78.683  63.359 102.203  0.00  0.00    +0.000 C 
ATOM     45  N10 UNL     1      78.658  63.384 100.717  0.00  0.00    +0.000 N 
ATOM     46  C55 UNL     1      78.567  62.146  99.926  0.00  0.00    +0.000 C 
ATOM     47  C56 UNL     1      78.863  64.644 100.031  0.00  0.00    +0.000 C 
ATOM     48  O11 UNL     1      79.243  65.656 100.683  0.00  0.00    +0.000 OA
ATOM     49  C57 UNL     1      78.676  64.781  98.537  0.00  0.00    +0.000 C 
ATOM     50  N11 UNL     1      78.241  66.142  98.191  0.00  0.00    +0.000 N 
ATOM     51  C58 UNL     1      79.271  67.149  97.905  0.00  0.00    +0.000 C 
ATOM     52  C59 UNL     1      76.840  66.479  98.326  0.00  0.00    +0.000 C 
ATOM     53  O12 UNL     1      76.104  65.738  99.034  0.00  0.00    +0.000 OA
ATOM     54  H7  UNL     1      77.096  69.381  96.760  0.00  0.00    +0.000 HD
ATOM     55  H66 UNL     1      75.228  66.912 107.065  0.00  0.00    +0.000 HD
ATOM     56  H71 UNL     1      74.773  64.645 106.809  0.00  0.00    +0.000 HD
ATOM     57  H86 UNL     1      78.231  62.799 104.828  0.00  0.00    +0.000 HD
ENDROOT
BRANCH  10  58
ATOM     58  C16 UNL     1      76.551  71.184 103.397  0.00  0.00    +0.000 C 
ATOM     59  C17 UNL     1      76.377  69.661 103.348  0.00  0.00    +0.000 C 
ATOM     60  C18 UNL     1      76.178  71.708 104.788  0.00  0.00    +0.000 C 
ENDBRANCH  10  58
BRANCH  40  61
ATOM     61  C60 UNL     1      77.306  59.693 104.665  0.00  0.00    +0.000 C 
ATOM     62  C61 UNL     1      78.723  59.530 104.083  0.00  0.00    +0.000 C 
ATOM     63  C62 UNL     1      76.305  58.977 103.747  0.00  0.00    +0.000 C 
ENDBRANCH  40  61
BRANCH   1  65
ATOM     64  C1  UNL     1      74.484  66.445  95.984  0.00  0.00    +0.000 C 
ATOM     65  C2  UNL     1      75.797  67.221  96.131  0.00  0.00    +0.000 C 
ENDBRANCH   1  65
BRANCH   5  66
ATOM     66  C6  UNL     1      77.759  71.826  97.771  0.00  0.00    +0.000 C 
BRANCH  66  67
ATOM     67  O2  UNL     1      76.822  72.851  98.003  0.00  0.00    +0.000 OA
ATOM     68  H10 UNL     1      76.957  73.548  97.305  0.00  0.00    +0.000 HD
ENDBRANCH  66  67
BRANCH  66  69
ATOM     69  C7  UNL     1      79.138  72.410  97.290  0.00  0.00    +0.000 C 
ATOM     70  C8  UNL     1      79.213  73.941  97.490  0.00  0.00    +0.000 C 
BRANCH  69  71
ATOM     71  C9  UNL     1      79.373  72.081  95.788  0.00  0.00    +0.000 C 
BRANCH  71  72
ATOM     72  C10 UNL     1      78.938  70.689  95.402  0.00  0.00    +0.000 C 
ATOM     73  C11 UNL     1      79.622  69.949  94.518  0.00  0.00    +0.000 C 
ATOM     74  C12 UNL     1      79.211  68.548  94.204  0.00  0.00    +0.000 C 
ENDBRANCH  71  72
ENDBRANCH  69  71
ENDBRANCH  66  69
ENDBRANCH   5  66
BRANCH  15  75
ATOM     75  C22 UNL     1      71.843  75.024 102.754  0.00  0.00    +0.000 C 
BRANCH  75  76
ATOM     76  C23 UNL     1      71.714  75.545 101.292  0.00  0.00    +0.000 C 
ATOM     77  C24 UNL     1      70.661  76.638 101.085  0.00  0.00    +0.000 C 
ATOM     78  C25 UNL     1      71.610  74.443 100.237  0.00  0.00    +0.000 C 
ENDBRANCH  75  76
ENDBRANCH  15  75
BRANCH  20  79
ATOM     79  C29 UNL     1      70.859  71.221 107.148  0.00  0.00    +0.000 C 
BRANCH  79  80
ATOM     80  C30 UNL     1      69.846  70.074 106.892  0.00  0.00    +0.000 C 
ATOM     81  C31 UNL     1      70.443  68.861 106.168  0.00  0.00    +0.000 C 
ATOM     82  C32 UNL     1      68.504  70.525 106.291  0.00  0.00    +0.000 C 
ENDBRANCH  79  80
ENDBRANCH  20  79
BRANCH  35  83
ATOM     83  C42 UNL     1      72.136  61.746 105.276  0.00  0.00    +0.000 C 
BRANCH  83  84
ATOM     84  C43 UNL     1      71.338  62.308 104.066  0.00  0.00    +0.000 C 
ATOM     85  C44 UNL     1      71.329  61.307 102.904  0.00  0.00    +0.000 C 
ATOM     86  C45 UNL     1      69.890  62.639 104.462  0.00  0.00    +0.000 C 
ENDBRANCH  83  84
ENDBRANCH  35  83
BRANCH  44  87
ATOM     87  C51 UNL     1      80.137  63.240 102.743  0.00  0.00    +0.000 C 
BRANCH  87  88
ATOM     88  C52 UNL     1      80.579  64.270 103.811  0.00  0.00    +0.000 C 
ATOM     89  C53 UNL     1      79.465  65.310 104.021  0.00  0.00    +0.000 C 
ATOM     90  C54 UNL     1      80.906  63.610 105.152  0.00  0.00    +0.000 C 
ENDBRANCH  87  88
ENDBRANCH  44  87
TORSDOF 16
ENDMDL
MODEL 17
REMARK VINA RESULT:      -6.4      2.814      5.151
REMARK  Name = ./S2286.pdb
REMARK  40 active torsions:
REMARK  status: ('A' for Active; 'I' for Inactive)
REMARK    1  A    between atoms: C1_1  and  C2_2
REMARK    2  A    between atoms: C2_2  and  C3_3
REMARK    3  A    between atoms: C5_7  and  C6_8
REMARK    4  A    between atoms: C6_8  and  O2_9
REMARK    5  A    between atoms: C6_8  and  C7_10
REMARK    6  A    between atoms: C7_10  and  C8_11
REMARK    7  A    between atoms: C7_10  and  C9_12
REMARK    8  A    between atoms: C9_12  and  C10_13
REMARK    9  A    between atoms: C11_14  and  C12_15
REMARK   10  A    between atoms: N2_16  and  C13_17
REMARK   11  A    between atoms: C15_20  and  C16_21
REMARK   12  A    between atoms: C16_21  and  C17_22
REMARK   13  A    between atoms: C16_21  and  C18_23
REMARK   14  A    between atoms: N3_24  and  C19_25
REMARK   15  A    between atoms: C21_28  and  C22_29
REMARK   16  A    between atoms: C22_29  and  C23_30
REMARK   17  A    between atoms: C23_30  and  C24_31
REMARK   18  A    between atoms: C23_30  and  C25_32
REMARK   19  A    between atoms: N4_33  and  C26_34
REMARK   20  A    between atoms: C28_37  and  C29_38
REMARK   21  A    between atoms: C29_38  and  C30_39
REMARK   22  A    between atoms: C30_39  and  C31_40
REMARK   23  A    between atoms: C30_39  and  C32_41
REMARK   24  A    between atoms: N5_42  and  C33_43
REMARK   25  A    between atoms: C35_46  and  C36_47
REMARK   26  A    between atoms: C38_51  and  C39_52
REMARK   27  A    between atoms: C41_56  and  C42_57
REMARK   28  A    between atoms: C42_57  and  C43_58
REMARK   29  A    between atoms: C43_58  and  C44_59
REMARK   30  A    between atoms: C43_58  and  C45_60
REMARK   31  A    between atoms: N8_61  and  C46_62
REMARK   32  A    between atoms: C48_65  and  C60_83
REMARK   33  A    between atoms: C50_69  and  C51_70
REMARK   34  A    between atoms: C51_70  and  C52_71
REMARK   35  A    between atoms: C52_71  and  C53_72
REMARK   36  A    between atoms: C52_71  and  C54_73
REMARK   37  A    between atoms: N10_74  and  C55_75
REMARK   38  A    between atoms: N11_79  and  C58_80
REMARK   39  A    between atoms: C60_83  and  C61_84
REMARK   40  A    between atoms: C60_83  and  C62_85
REMARK                            x       y       z     vdW  Elec       q    Type
REMARK                         _______ _______ _______ _____ _____    ______ ____
ROOT
ATOM      1  C3  UNL     1      73.961  71.520 100.407  0.00  0.00    +0.000 C 
ATOM      2  N1  UNL     1      73.353  71.832 101.706  0.00  0.00    +0.000 N 
ATOM      3  C4  UNL     1      73.848  71.241 102.926  0.00  0.00    +0.000 C 
ATOM      4  O1  UNL     1      74.945  70.608 102.895  0.00  0.00    +0.000 OA
ATOM      5  C5  UNL     1      73.175  71.443 104.284  0.00  0.00    +0.000 C 
ATOM      6  N2  UNL     1      73.413  70.314 105.222  0.00  0.00    +0.000 N 
ATOM      7  C13 UNL     1      73.333  70.605 106.666  0.00  0.00    +0.000 C 
ATOM      8  C14 UNL     1      73.551  68.937 104.767  0.00  0.00    +0.000 C 
ATOM      9  O3  UNL     1      73.150  68.639 103.609  0.00  0.00    +0.000 OA
ATOM     10  C15 UNL     1      74.111  67.824 105.655  0.00  0.00    +0.000 C 
ATOM     11  N3  UNL     1      73.825  66.466 105.112  0.00  0.00    +0.000 N 
ATOM     12  C19 UNL     1      74.264  66.075 103.759  0.00  0.00    +0.000 C 
ATOM     13  C20 UNL     1      73.194  65.468 105.965  0.00  0.00    +0.000 C 
ATOM     14  O4  UNL     1      73.124  65.669 107.203  0.00  0.00    +0.000 OA
ATOM     15  C21 UNL     1      72.645  64.161 105.399  0.00  0.00    +0.000 C 
ATOM     16  N4  UNL     1      73.673  63.099 105.245  0.00  0.00    +0.000 N 
ATOM     17  C26 UNL     1      73.473  62.099 104.198  0.00  0.00    +0.000 C 
ATOM     18  C27 UNL     1      74.890  63.073 106.042  0.00  0.00    +0.000 C 
ATOM     19  O5  UNL     1      74.807  63.361 107.262  0.00  0.00    +0.000 OA
ATOM     20  C28 UNL     1      76.266  62.809 105.419  0.00  0.00    +0.000 C 
ATOM     21  N5  UNL     1      77.387  63.533 106.080  0.00  0.00    +0.000 N 
ATOM     22  C33 UNL     1      77.580  63.482 107.535  0.00  0.00    +0.000 C 
ATOM     23  C34 UNL     1      78.300  64.323 105.274  0.00  0.00    +0.000 C 
ATOM     24  O6  UNL     1      77.916  64.771 104.157  0.00  0.00    +0.000 OA
ATOM     25  C35 UNL     1      79.716  64.629 105.715  0.00  0.00    +0.000 C 
ATOM     26  C36 UNL     1      79.764  65.855 106.636  0.00  0.00    +0.000 C 
ATOM     27  N6  UNL     1      80.566  64.880 104.546  0.00  0.00    +0.000 N 
ATOM     28  C37 UNL     1      81.315  63.843 103.896  0.00  0.00    +0.000 C 
ATOM     29  O7  UNL     1      80.978  62.638 104.046  0.00  0.00    +0.000 OA
ATOM     30  C38 UNL     1      82.527  64.185 103.071  0.00  0.00    +0.000 C 
ATOM     31  C39 UNL     1      83.613  64.796 103.955  0.00  0.00    +0.000 C 
ATOM     32  N7  UNL     1      82.170  65.118 102.000  0.00  0.00    +0.000 N 
ATOM     33  C40 UNL     1      82.275  64.784 100.610  0.00  0.00    +0.000 C 
ATOM     34  O8  UNL     1      82.452  63.582 100.258  0.00  0.00    +0.000 OA
ATOM     35  C41 UNL     1      82.171  65.886  99.570  0.00  0.00    +0.000 C 
ATOM     36  N8  UNL     1      83.206  66.936  99.752  0.00  0.00    +0.000 N 
ATOM     37  C46 UNL     1      84.500  66.628 100.384  0.00  0.00    +0.000 C 
ATOM     38  C47 UNL     1      82.917  68.284  99.303  0.00  0.00    +0.000 C 
ATOM     39  O9  UNL     1      82.049  68.446  98.406  0.00  0.00    +0.000 OA
ATOM     40  C48 UNL     1      83.582  69.514  99.918  0.00  0.00    +0.000 C 
ATOM     41  N9  UNL     1      82.617  70.351 100.655  0.00  0.00    +0.000 N 
ATOM     42  C49 UNL     1      81.481  71.063 100.119  0.00  0.00    +0.000 C 
ATOM     43  O10 UNL     1      81.036  70.770  98.978  0.00  0.00    +0.000 OA
ATOM     44  C50 UNL     1      80.689  72.023 100.995  0.00  0.00    +0.000 C 
ATOM     45  N10 UNL     1      79.650  72.785 100.254  0.00  0.00    +0.000 N 
ATOM     46  C55 UNL     1      79.926  73.387  98.939  0.00  0.00    +0.000 C 
ATOM     47  C56 UNL     1      78.382  73.055 100.900  0.00  0.00    +0.000 C 
ATOM     48  O11 UNL     1      78.242  72.810 102.131  0.00  0.00    +0.000 OA
ATOM     49  C57 UNL     1      77.217  73.664 100.152  0.00  0.00    +0.000 C 
ATOM     50  N11 UNL     1      75.940  73.207 100.718  0.00  0.00    +0.000 N 
ATOM     51  C58 UNL     1      75.338  73.996 101.801  0.00  0.00    +0.000 C 
ATOM     52  C59 UNL     1      75.427  71.914 100.319  0.00  0.00    +0.000 C 
ATOM     53  O12 UNL     1      76.216  71.088  99.784  0.00  0.00    +0.000 OA
ATOM     54  H7  UNL     1      72.455  72.351 101.705  0.00  0.00    +0.000 HD
ATOM     55  H66 UNL     1      80.670  65.865 104.202  0.00  0.00    +0.000 HD
ATOM     56  H71 UNL     1      81.911  66.099 102.249  0.00  0.00    +0.000 HD
ATOM     57  H86 UNL     1      82.742  70.376 101.692  0.00  0.00    +0.000 HD
ENDROOT
BRANCH  10  58
ATOM     58  C16 UNL     1      75.618  68.008 106.032  0.00  0.00    +0.000 C 
ATOM     59  C17 UNL     1      76.573  68.210 104.848  0.00  0.00    +0.000 C 
ATOM     60  C18 UNL     1      76.113  66.853 106.910  0.00  0.00    +0.000 C 
ENDBRANCH  10  58
BRANCH  40  61
ATOM     61  C60 UNL     1      84.491  70.349  98.959  0.00  0.00    +0.000 C 
ATOM     62  C61 UNL     1      85.552  69.553  98.176  0.00  0.00    +0.000 C 
ATOM     63  C62 UNL     1      85.180  71.503  99.701  0.00  0.00    +0.000 C 
ENDBRANCH  40  61
BRANCH   1  65
ATOM     64  C1  UNL     1      72.895  71.065  98.083  0.00  0.00    +0.000 C 
ATOM     65  C2  UNL     1      73.143  72.067  99.216  0.00  0.00    +0.000 C 
ENDBRANCH   1  65
BRANCH   5  66
ATOM     66  C6  UNL     1      71.664  71.850 104.267  0.00  0.00    +0.000 C 
BRANCH  66  67
ATOM     67  O2  UNL     1      71.484  72.955 103.413  0.00  0.00    +0.000 OA
ATOM     68  H10 UNL     1      71.848  73.758 103.876  0.00  0.00    +0.000 HD
ENDBRANCH  66  67
BRANCH  66  69
ATOM     69  C7  UNL     1      70.668  70.686 103.914  0.00  0.00    +0.000 C 
ATOM     70  C8  UNL     1      70.183  70.772 102.449  0.00  0.00    +0.000 C 
BRANCH  69  71
ATOM     71  C9  UNL     1      69.435  70.720 104.861  0.00  0.00    +0.000 C 
BRANCH  71  72
ATOM     72  C10 UNL     1      69.715  70.163 106.234  0.00  0.00    +0.000 C 
ATOM     73  C11 UNL     1      70.199  68.926 106.416  0.00  0.00    +0.000 C 
ATOM     74  C12 UNL     1      70.534  68.423 107.782  0.00  0.00    +0.000 C 
ENDBRANCH  71  72
ENDBRANCH  69  71
ENDBRANCH  66  69
ENDBRANCH   5  66
BRANCH  15  75
ATOM     75  C22 UNL     1      71.306  63.680 106.047  0.00  0.00    +0.000 C 
BRANCH  75  76
ATOM     76  C23 UNL     1      70.250  62.847 105.263  0.00  0.00    +0.000 C 
ATOM     77  C24 UNL     1      70.200  61.360 105.623  0.00  0.00    +0.000 C 
ATOM     78  C25 UNL     1      70.268  63.070 103.750  0.00  0.00    +0.000 C 
ENDBRANCH  75  76
ENDBRANCH  15  75
BRANCH  20  79
ATOM     79  C29 UNL     1      76.626  61.333 105.082  0.00  0.00    +0.000 C 
BRANCH  79  80
ATOM     80  C30 UNL     1      77.027  60.889 103.651  0.00  0.00    +0.000 C 
ATOM     81  C31 UNL     1      78.419  60.253 103.558  0.00  0.00    +0.000 C 
ATOM     82  C32 UNL     1      76.781  61.945 102.559  0.00  0.00    +0.000 C 
ENDBRANCH  79  80
ENDBRANCH  20  79
BRANCH  35  83
ATOM     83  C42 UNL     1      82.125  65.348  98.114  0.00  0.00    +0.000 C 
BRANCH  83  84
ATOM     84  C43 UNL     1      80.706  65.264  97.484  0.00  0.00    +0.000 C 
ATOM     85  C44 UNL     1      79.649  65.831  98.440  0.00  0.00    +0.000 C 
ATOM     86  C45 UNL     1      80.644  66.027  96.150  0.00  0.00    +0.000 C 
ENDBRANCH  83  84
ENDBRANCH  35  83
BRANCH  44  87
ATOM     87  C51 UNL     1      81.529  72.956 101.913  0.00  0.00    +0.000 C 
BRANCH  87  88
ATOM     88  C52 UNL     1      82.668  73.764 101.244  0.00  0.00    +0.000 C 
ATOM     89  C53 UNL     1      82.205  75.211 101.005  0.00  0.00    +0.000 C 
ATOM     90  C54 UNL     1      83.942  73.780 102.091  0.00  0.00    +0.000 C 
ENDBRANCH  87  88
ENDBRANCH  44  87
TORSDOF 16
ENDMDL
MODEL 18
REMARK VINA RESULT:      -6.4      2.647      9.533
REMARK  Name = ./S2286.pdb
REMARK  40 active torsions:
REMARK  status: ('A' for Active; 'I' for Inactive)
REMARK    1  A    between atoms: C1_1  and  C2_2
REMARK    2  A    between atoms: C2_2  and  C3_3
REMARK    3  A    between atoms: C5_7  and  C6_8
REMARK    4  A    between atoms: C6_8  and  O2_9
REMARK    5  A    between atoms: C6_8  and  C7_10
REMARK    6  A    between atoms: C7_10  and  C8_11
REMARK    7  A    between atoms: C7_10  and  C9_12
REMARK    8  A    between atoms: C9_12  and  C10_13
REMARK    9  A    between atoms: C11_14  and  C12_15
REMARK   10  A    between atoms: N2_16  and  C13_17
REMARK   11  A    between atoms: C15_20  and  C16_21
REMARK   12  A    between atoms: C16_21  and  C17_22
REMARK   13  A    between atoms: C16_21  and  C18_23
REMARK   14  A    between atoms: N3_24  and  C19_25
REMARK   15  A    between atoms: C21_28  and  C22_29
REMARK   16  A    between atoms: C22_29  and  C23_30
REMARK   17  A    between atoms: C23_30  and  C24_31
REMARK   18  A    between atoms: C23_30  and  C25_32
REMARK   19  A    between atoms: N4_33  and  C26_34
REMARK   20  A    between atoms: C28_37  and  C29_38
REMARK   21  A    between atoms: C29_38  and  C30_39
REMARK   22  A    between atoms: C30_39  and  C31_40
REMARK   23  A    between atoms: C30_39  and  C32_41
REMARK   24  A    between atoms: N5_42  and  C33_43
REMARK   25  A    between atoms: C35_46  and  C36_47
REMARK   26  A    between atoms: C38_51  and  C39_52
REMARK   27  A    between atoms: C41_56  and  C42_57
REMARK   28  A    between atoms: C42_57  and  C43_58
REMARK   29  A    between atoms: C43_58  and  C44_59
REMARK   30  A    between atoms: C43_58  and  C45_60
REMARK   31  A    between atoms: N8_61  and  C46_62
REMARK   32  A    between atoms: C48_65  and  C60_83
REMARK   33  A    between atoms: C50_69  and  C51_70
REMARK   34  A    between atoms: C51_70  and  C52_71
REMARK   35  A    between atoms: C52_71  and  C53_72
REMARK   36  A    between atoms: C52_71  and  C54_73
REMARK   37  A    between atoms: N10_74  and  C55_75
REMARK   38  A    between atoms: N11_79  and  C58_80
REMARK   39  A    between atoms: C60_83  and  C61_84
REMARK   40  A    between atoms: C60_83  and  C62_85
REMARK                            x       y       z     vdW  Elec       q    Type
REMARK                         _______ _______ _______ _____ _____    ______ ____
ROOT
ATOM      1  C3  UNL     1      77.019  64.797 107.755  0.00  0.00    +0.000 C 
ATOM      2  N1  UNL     1      75.656  64.654 108.282  0.00  0.00    +0.000 N 
ATOM      3  C4  UNL     1      74.538  65.317 107.656  0.00  0.00    +0.000 C 
ATOM      4  O1  UNL     1      74.707  65.861 106.524  0.00  0.00    +0.000 OA
ATOM      5  C5  UNL     1      73.122  65.293 108.234  0.00  0.00    +0.000 C 
ATOM      6  N2  UNL     1      72.319  66.484 107.849  0.00  0.00    +0.000 N 
ATOM      7  C13 UNL     1      70.851  66.335 107.837  0.00  0.00    +0.000 C 
ATOM      8  C14 UNL     1      72.916  67.798 107.654  0.00  0.00    +0.000 C 
ATOM      9  O3  UNL     1      74.066  68.016 108.122  0.00  0.00    +0.000 OA
ATOM     10  C15 UNL     1      72.183  68.944 106.954  0.00  0.00    +0.000 C 
ATOM     11  N3  UNL     1      72.835  70.263 107.187  0.00  0.00    +0.000 N 
ATOM     12  C19 UNL     1      74.248  70.492 106.829  0.00  0.00    +0.000 C 
ATOM     13  C20 UNL     1      72.042  71.380 107.682  0.00  0.00    +0.000 C 
ATOM     14  O4  UNL     1      70.788  71.301 107.671  0.00  0.00    +0.000 OA
ATOM     15  C21 UNL     1      72.694  72.667 108.184  0.00  0.00    +0.000 C 
ATOM     16  N4  UNL     1      73.023  73.630 107.101  0.00  0.00    +0.000 N 
ATOM     17  C26 UNL     1      74.147  74.540 107.313  0.00  0.00    +0.000 C 
ATOM     18  C27 UNL     1      72.320  73.639 105.828  0.00  0.00    +0.000 C 
ATOM     19  O5  UNL     1      71.075  73.473 105.836  0.00  0.00    +0.000 OA
ATOM     20  C28 UNL     1      73.061  73.740 104.489  0.00  0.00    +0.000 C 
ATOM     21  N5  UNL     1      72.412  73.000 103.372  0.00  0.00    +0.000 N 
ATOM     22  C33 UNL     1      70.986  73.171 103.065  0.00  0.00    +0.000 C 
ATOM     23  C34 UNL     1      73.198  72.072 102.579  0.00  0.00    +0.000 C 
ATOM     24  O6  UNL     1      74.237  71.552 103.077  0.00  0.00    +0.000 OA
ATOM     25  C35 UNL     1      72.829  71.703 101.158  0.00  0.00    +0.000 C 
ATOM     26  C36 UNL     1      71.799  70.569 101.122  0.00  0.00    +0.000 C 
ATOM     27  N6  UNL     1      74.026  71.282 100.418  0.00  0.00    +0.000 N 
ATOM     28  C37 UNL     1      74.825  72.195  99.653  0.00  0.00    +0.000 C 
ATOM     29  O7  UNL     1      74.771  73.431  99.896  0.00  0.00    +0.000 OA
ATOM     30  C38 UNL     1      75.695  71.689  98.534  0.00  0.00    +0.000 C 
ATOM     31  C39 UNL     1      74.833  71.083  97.427  0.00  0.00    +0.000 C 
ATOM     32  N7  UNL     1      76.642  70.689  99.034  0.00  0.00    +0.000 N 
ATOM     33  C40 UNL     1      78.062  70.884  99.014  0.00  0.00    +0.000 C 
ATOM     34  O8  UNL     1      78.542  72.032  98.784  0.00  0.00    +0.000 OA
ATOM     35  C41 UNL     1      78.978  69.700  99.273  0.00  0.00    +0.000 C 
ATOM     36  N8  UNL     1      78.768  68.598  98.300  0.00  0.00    +0.000 N 
ATOM     37  C46 UNL     1      78.261  68.866  96.943  0.00  0.00    +0.000 C 
ATOM     38  C47 UNL     1      79.060  67.240  98.713  0.00  0.00    +0.000 C 
ATOM     39  O9  UNL     1      79.874  67.059  99.656  0.00  0.00    +0.000 OA
ATOM     40  C48 UNL     1      78.376  66.026  98.088  0.00  0.00    +0.000 C 
ATOM     41  N9  UNL     1      77.494  65.335  99.047  0.00  0.00    +0.000 N 
ATOM     42  C49 UNL     1      77.876  64.663 100.267  0.00  0.00    +0.000 C 
ATOM     43  O10 UNL     1      79.007  64.882 100.777  0.00  0.00    +0.000 OA
ATOM     44  C50 UNL     1      76.857  63.851 101.052  0.00  0.00    +0.000 C 
ATOM     45  N10 UNL     1      77.445  63.103 102.194  0.00  0.00    +0.000 N 
ATOM     46  C55 UNL     1      78.710  62.362 102.061  0.00  0.00    +0.000 C 
ATOM     47  C56 UNL     1      76.688  62.990 103.424  0.00  0.00    +0.000 C 
ATOM     48  O11 UNL     1      75.481  63.357 103.452  0.00  0.00    +0.000 OA
ATOM     49  C57 UNL     1      77.289  62.402 104.681  0.00  0.00    +0.000 C 
ATOM     50  N11 UNL     1      76.683  63.004 105.877  0.00  0.00    +0.000 N 
ATOM     51  C58 UNL     1      75.488  62.366 106.446  0.00  0.00    +0.000 C 
ATOM     52  C59 UNL     1      77.170  64.288 106.331  0.00  0.00    +0.000 C 
ATOM     53  O12 UNL     1      77.838  65.000 105.531  0.00  0.00    +0.000 OA
ATOM     54  H7  UNL     1      75.543  64.205 109.210  0.00  0.00    +0.000 HD
ATOM     55  H66 UNL     1      74.277  70.264 100.408  0.00  0.00    +0.000 HD
ATOM     56  H71 UNL     1      76.280  69.758  99.339  0.00  0.00    +0.000 HD
ATOM     57  H86 UNL     1      76.471  65.398  98.845  0.00  0.00    +0.000 HD
ENDROOT
BRANCH  10  58
ATOM     58  C16 UNL     1      71.896  68.684 105.437  0.00  0.00    +0.000 C 
ATOM     59  C17 UNL     1      73.118  68.300 104.593  0.00  0.00    +0.000 C 
ATOM     60  C18 UNL     1      71.175  69.876 104.799  0.00  0.00    +0.000 C 
ENDBRANCH  10  58
BRANCH  40  61
ATOM     61  C60 UNL     1      79.309  65.040  97.314  0.00  0.00    +0.000 C 
ATOM     62  C61 UNL     1      80.737  64.889  97.871  0.00  0.00    +0.000 C 
ATOM     63  C62 UNL     1      79.391  65.397  95.823  0.00  0.00    +0.000 C 
ENDBRANCH  40  61
BRANCH   1  65
ATOM     64  C1  UNL     1      77.568  63.188 109.718  0.00  0.00    +0.000 C 
ATOM     65  C2  UNL     1      78.090  64.205 108.698  0.00  0.00    +0.000 C 
ENDBRANCH   1  65
BRANCH   5  66
ATOM     66  C6  UNL     1      72.994  65.000 109.766  0.00  0.00    +0.000 C 
BRANCH  66  67
ATOM     67  O2  UNL     1      72.857  63.613 109.970  0.00  0.00    +0.000 OA
ATOM     68  H10 UNL     1      72.884  63.448 110.951  0.00  0.00    +0.000 HD
ENDBRANCH  66  67
BRANCH  66  69
ATOM     69  C7  UNL     1      74.145  65.598 110.654  0.00  0.00    +0.000 C 
ATOM     70  C8  UNL     1      74.701  64.554 111.650  0.00  0.00    +0.000 C 
BRANCH  69  71
ATOM     71  C9  UNL     1      73.634  66.834 111.447  0.00  0.00    +0.000 C 
BRANCH  71  72
ATOM     72  C10 UNL     1      74.078  66.851 112.888  0.00  0.00    +0.000 C 
ATOM     73  C11 UNL     1      75.111  67.596 113.306  0.00  0.00    +0.000 C 
ATOM     74  C12 UNL     1      75.487  67.649 114.751  0.00  0.00    +0.000 C 
ENDBRANCH  71  72
ENDBRANCH  69  71
ENDBRANCH  66  69
ENDBRANCH   5  66
BRANCH  15  75
ATOM     75  C22 UNL     1      72.004  73.304 109.433  0.00  0.00    +0.000 C 
BRANCH  75  76
ATOM     76  C23 UNL     1      70.969  74.462 109.317  0.00  0.00    +0.000 C 
ATOM     77  C24 UNL     1      71.295  75.708 110.146  0.00  0.00    +0.000 C 
ATOM     78  C25 UNL     1      69.513  74.025 109.489  0.00  0.00    +0.000 C 
ENDBRANCH  75  76
ENDBRANCH  15  75
BRANCH  20  79
ATOM     79  C29 UNL     1      73.565  75.148 104.057  0.00  0.00    +0.000 C 
BRANCH  79  80
ATOM     80  C30 UNL     1      72.755  76.438 104.351  0.00  0.00    +0.000 C 
ATOM     81  C31 UNL     1      71.825  76.869 103.211  0.00  0.00    +0.000 C 
ATOM     82  C32 UNL     1      73.587  77.604 104.913  0.00  0.00    +0.000 C 
ENDBRANCH  79  80
ENDBRANCH  20  79
BRANCH  35  83
ATOM     83  C42 UNL     1      80.474  70.103  99.395  0.00  0.00    +0.000 C 
BRANCH  83  84
ATOM     84  C43 UNL     1      81.012  70.216 100.848  0.00  0.00    +0.000 C 
ATOM     85  C44 UNL     1      79.948  69.775 101.861  0.00  0.00    +0.000 C 
ATOM     86  C45 UNL     1      82.279  69.364 101.040  0.00  0.00    +0.000 C 
ENDBRANCH  83  84
ENDBRANCH  35  83
BRANCH  44  87
ATOM     87  C51 UNL     1      75.913  62.947 100.208  0.00  0.00    +0.000 C 
BRANCH  87  88
ATOM     88  C52 UNL     1      75.769  61.471 100.651  0.00  0.00    +0.000 C 
ATOM     89  C53 UNL     1      74.283  61.075 100.659  0.00  0.00    +0.000 C 
ATOM     90  C54 UNL     1      76.536  60.514  99.736  0.00  0.00    +0.000 C 
ENDBRANCH  87  88
ENDBRANCH  44  87
TORSDOF 16
ENDMDL
MODEL 19
REMARK VINA RESULT:      -6.3      2.905      4.686
REMARK  Name = ./S2286.pdb
REMARK  40 active torsions:
REMARK  status: ('A' for Active; 'I' for Inactive)
REMARK    1  A    between atoms: C1_1  and  C2_2
REMARK    2  A    between atoms: C2_2  and  C3_3
REMARK    3  A    between atoms: C5_7  and  C6_8
REMARK    4  A    between atoms: C6_8  and  O2_9
REMARK    5  A    between atoms: C6_8  and  C7_10
REMARK    6  A    between atoms: C7_10  and  C8_11
REMARK    7  A    between atoms: C7_10  and  C9_12
REMARK    8  A    between atoms: C9_12  and  C10_13
REMARK    9  A    between atoms: C11_14  and  C12_15
REMARK   10  A    between atoms: N2_16  and  C13_17
REMARK   11  A    between atoms: C15_20  and  C16_21
REMARK   12  A    between atoms: C16_21  and  C17_22
REMARK   13  A    between atoms: C16_21  and  C18_23
REMARK   14  A    between atoms: N3_24  and  C19_25
REMARK   15  A    between atoms: C21_28  and  C22_29
REMARK   16  A    between atoms: C22_29  and  C23_30
REMARK   17  A    between atoms: C23_30  and  C24_31
REMARK   18  A    between atoms: C23_30  and  C25_32
REMARK   19  A    between atoms: N4_33  and  C26_34
REMARK   20  A    between atoms: C28_37  and  C29_38
REMARK   21  A    between atoms: C29_38  and  C30_39
REMARK   22  A    between atoms: C30_39  and  C31_40
REMARK   23  A    between atoms: C30_39  and  C32_41
REMARK   24  A    between atoms: N5_42  and  C33_43
REMARK   25  A    between atoms: C35_46  and  C36_47
REMARK   26  A    between atoms: C38_51  and  C39_52
REMARK   27  A    between atoms: C41_56  and  C42_57
REMARK   28  A    between atoms: C42_57  and  C43_58
REMARK   29  A    between atoms: C43_58  and  C44_59
REMARK   30  A    between atoms: C43_58  and  C45_60
REMARK   31  A    between atoms: N8_61  and  C46_62
REMARK   32  A    between atoms: C48_65  and  C60_83
REMARK   33  A    between atoms: C50_69  and  C51_70
REMARK   34  A    between atoms: C51_70  and  C52_71
REMARK   35  A    between atoms: C52_71  and  C53_72
REMARK   36  A    between atoms: C52_71  and  C54_73
REMARK   37  A    between atoms: N10_74  and  C55_75
REMARK   38  A    between atoms: N11_79  and  C58_80
REMARK   39  A    between atoms: C60_83  and  C61_84
REMARK   40  A    between atoms: C60_83  and  C62_85
REMARK                            x       y       z     vdW  Elec       q    Type
REMARK                         _______ _______ _______ _____ _____    ______ ____
ROOT
ATOM      1  C3  UNL     1      73.177  69.766 106.904  0.00  0.00    +0.000 C 
ATOM      2  N1  UNL     1      73.265  68.634 107.835  0.00  0.00    +0.000 N 
ATOM      3  C4  UNL     1      74.393  67.733 107.814  0.00  0.00    +0.000 C 
ATOM      4  O1  UNL     1      75.408  68.044 107.123  0.00  0.00    +0.000 OA
ATOM      5  C5  UNL     1      74.474  66.477 108.682  0.00  0.00    +0.000 C 
ATOM      6  N2  UNL     1      75.325  65.414 108.083  0.00  0.00    +0.000 N 
ATOM      7  C13 UNL     1      75.939  64.439 109.005  0.00  0.00    +0.000 C 
ATOM      8  C14 UNL     1      75.428  65.214 106.644  0.00  0.00    +0.000 C 
ATOM      9  O3  UNL     1      74.551  65.726 105.898  0.00  0.00    +0.000 OA
ATOM     10  C15 UNL     1      76.525  64.362 106.004  0.00  0.00    +0.000 C 
ATOM     11  N3  UNL     1      76.221  64.016 104.587  0.00  0.00    +0.000 N 
ATOM     12  C19 UNL     1      75.973  65.064 103.579  0.00  0.00    +0.000 C 
ATOM     13  C20 UNL     1      76.271  62.624 104.159  0.00  0.00    +0.000 C 
ATOM     14  O4  UNL     1      76.803  61.766 104.907  0.00  0.00    +0.000 OA
ATOM     15  C21 UNL     1      75.723  62.181 102.804  0.00  0.00    +0.000 C 
ATOM     16  N4  UNL     1      76.685  62.358 101.685  0.00  0.00    +0.000 N 
ATOM     17  C26 UNL     1      76.143  62.585 100.347  0.00  0.00    +0.000 C 
ATOM     18  C27 UNL     1      78.124  62.390 101.895  0.00  0.00    +0.000 C 
ATOM     19  O5  UNL     1      78.623  61.577 102.712  0.00  0.00    +0.000 OA
ATOM     20  C28 UNL     1      79.020  63.442 101.231  0.00  0.00    +0.000 C 
ATOM     21  N5  UNL     1      80.193  63.854 102.052  0.00  0.00    +0.000 N 
ATOM     22  C33 UNL     1      81.098  62.862 102.647  0.00  0.00    +0.000 C 
ATOM     23  C34 UNL     1      80.439  65.265 102.287  0.00  0.00    +0.000 C 
ATOM     24  O6  UNL     1      79.480  66.085 102.216  0.00  0.00    +0.000 OA
ATOM     25  C35 UNL     1      81.816  65.807 102.607  0.00  0.00    +0.000 C 
ATOM     26  C36 UNL     1      82.130  65.694 104.104  0.00  0.00    +0.000 C 
ATOM     27  N6  UNL     1      81.911  67.216 102.207  0.00  0.00    +0.000 N 
ATOM     28  C37 UNL     1      82.382  67.624 100.915  0.00  0.00    +0.000 C 
ATOM     29  O7  UNL     1      82.358  66.810  99.953  0.00  0.00    +0.000 OA
ATOM     30  C38 UNL     1      82.942  69.007 100.713  0.00  0.00    +0.000 C 
ATOM     31  C39 UNL     1      84.215  69.187 101.539  0.00  0.00    +0.000 C 
ATOM     32  N7  UNL     1      81.954  70.020 101.089  0.00  0.00    +0.000 N 
ATOM     33  C40 UNL     1      81.395  70.948 100.151  0.00  0.00    +0.000 C 
ATOM     34  O8  UNL     1      81.556  70.769  98.909  0.00  0.00    +0.000 OA
ATOM     35  C41 UNL     1      80.610  72.143 100.665  0.00  0.00    +0.000 C 
ATOM     36  N8  UNL     1      81.417  73.006 101.565  0.00  0.00    +0.000 N 
ATOM     37  C46 UNL     1      82.883  73.074 101.442  0.00  0.00    +0.000 C 
ATOM     38  C47 UNL     1      80.735  73.779 102.584  0.00  0.00    +0.000 C 
ATOM     39  O9  UNL     1      79.520  74.062 102.413  0.00  0.00    +0.000 OA
ATOM     40  C48 UNL     1      81.417  74.211 103.880  0.00  0.00    +0.000 C 
ATOM     41  N9  UNL     1      80.838  73.540 105.059  0.00  0.00    +0.000 N 
ATOM     42  C49 UNL     1      79.492  73.660 105.566  0.00  0.00    +0.000 C 
ATOM     43  O10 UNL     1      78.585  74.140 104.835  0.00  0.00    +0.000 OA
ATOM     44  C50 UNL     1      79.111  73.029 106.897  0.00  0.00    +0.000 C 
ATOM     45  N10 UNL     1      77.735  73.372 107.346  0.00  0.00    +0.000 N 
ATOM     46  C55 UNL     1      77.213  74.746 107.252  0.00  0.00    +0.000 C 
ATOM     47  C56 UNL     1      76.941  72.361 108.013  0.00  0.00    +0.000 C 
ATOM     48  O11 UNL     1      77.480  71.277 108.371  0.00  0.00    +0.000 OA
ATOM     49  C57 UNL     1      75.480  72.577 108.337  0.00  0.00    +0.000 C 
ATOM     50  N11 UNL     1      74.751  71.301 108.326  0.00  0.00    +0.000 N 
ATOM     51  C58 UNL     1      74.661  70.541 109.580  0.00  0.00    +0.000 C 
ATOM     52  C59 UNL     1      74.316  70.760 107.056  0.00  0.00    +0.000 C 
ATOM     53  O12 UNL     1      74.846  71.198 105.998  0.00  0.00    +0.000 OA
ATOM     54  H7  UNL     1      72.421  68.399 108.390  0.00  0.00    +0.000 HD
ATOM     55  H66 UNL     1      81.671  67.955 102.911  0.00  0.00    +0.000 HD
ATOM     56  H71 UNL     1      81.706  70.134 102.097  0.00  0.00    +0.000 HD
ATOM     57  H86 UNL     1      81.463  72.853 105.538  0.00  0.00    +0.000 HD
ENDROOT
BRANCH  10  58
ATOM     58  C16 UNL     1      77.967  64.944 106.177  0.00  0.00    +0.000 C 
ATOM     59  C17 UNL     1      78.153  66.391 105.702  0.00  0.00    +0.000 C 
ATOM     60  C18 UNL     1      79.012  64.039 105.515  0.00  0.00    +0.000 C 
ENDBRANCH  10  58
BRANCH  40  61
ATOM     61  C60 UNL     1      81.576  75.753 104.086  0.00  0.00    +0.000 C 
ATOM     62  C61 UNL     1      82.211  76.525 102.915  0.00  0.00    +0.000 C 
ATOM     63  C62 UNL     1      82.352  76.071 105.372  0.00  0.00    +0.000 C 
ENDBRANCH  40  61
BRANCH   1  65
ATOM     64  C1  UNL     1      70.595  69.521 106.774  0.00  0.00    +0.000 C 
ATOM     65  C2  UNL     1      71.796  70.458 106.934  0.00  0.00    +0.000 C 
ENDBRANCH   1  65
BRANCH   5  66
ATOM     66  C6  UNL     1      73.118  65.888 109.195  0.00  0.00    +0.000 C 
BRANCH  66  67
ATOM     67  O2  UNL     1      72.568  66.749 110.164  0.00  0.00    +0.000 OA
ATOM     68  H10 UNL     1      71.993  66.202 110.764  0.00  0.00    +0.000 HD
ENDBRANCH  66  67
BRANCH  66  69
ATOM     69  C7  UNL     1      72.073  65.552 108.069  0.00  0.00    +0.000 C 
ATOM     70  C8  UNL     1      70.664  66.082 108.419  0.00  0.00    +0.000 C 
BRANCH  69  71
ATOM     71  C9  UNL     1      71.996  64.015 107.841  0.00  0.00    +0.000 C 
BRANCH  71  72
ATOM     72  C10 UNL     1      70.905  63.603 106.884  0.00  0.00    +0.000 C 
ATOM     73  C11 UNL     1      71.165  63.256 105.615  0.00  0.00    +0.000 C 
ATOM     74  C12 UNL     1      70.077  62.785 104.707  0.00  0.00    +0.000 C 
ENDBRANCH  71  72
ENDBRANCH  69  71
ENDBRANCH  66  69
ENDBRANCH   5  66
BRANCH  15  75
ATOM     75  C22 UNL     1      74.987  60.802 102.816  0.00  0.00    +0.000 C 
BRANCH  75  76
ATOM     76  C23 UNL     1      73.435  60.682 102.790  0.00  0.00    +0.000 C 
ATOM     77  C24 UNL     1      72.704  61.875 102.167  0.00  0.00    +0.000 C 
ATOM     78  C25 UNL     1      72.813  60.260 104.121  0.00  0.00    +0.000 C 
ENDBRANCH  75  76
ENDBRANCH  15  75
BRANCH  20  79
ATOM     79  C29 UNL     1      79.388  63.226  99.734  0.00  0.00    +0.000 C 
BRANCH  79  80
ATOM     80  C30 UNL     1      79.144  64.320  98.661  0.00  0.00    +0.000 C 
ATOM     81  C31 UNL     1      80.417  64.800  97.954  0.00  0.00    +0.000 C 
ATOM     82  C32 UNL     1      78.245  65.481  99.120  0.00  0.00    +0.000 C 
ENDBRANCH  79  80
ENDBRANCH  20  79
BRANCH  35  83
ATOM     83  C42 UNL     1      79.921  72.953  99.532  0.00  0.00    +0.000 C 
BRANCH  83  84
ATOM     84  C43 UNL     1      78.430  72.596  99.277  0.00  0.00    +0.000 C 
ATOM     85  C44 UNL     1      78.265  71.852  97.946  0.00  0.00    +0.000 C 
ATOM     86  C45 UNL     1      77.863  71.730 100.415  0.00  0.00    +0.000 C 
ENDBRANCH  83  84
ENDBRANCH  35  83
BRANCH  44  87
ATOM     87  C51 UNL     1      80.141  73.199 108.050  0.00  0.00    +0.000 C 
BRANCH  87  88
ATOM     88  C52 UNL     1      81.042  71.983 108.376  0.00  0.00    +0.000 C 
ATOM     89  C53 UNL     1      80.705  71.450 109.779  0.00  0.00    +0.000 C 
ATOM     90  C54 UNL     1      80.879  70.852 107.359  0.00  0.00    +0.000 C 
ENDBRANCH  87  88
ENDBRANCH  44  87
TORSDOF 16
ENDMDL
MODEL 20
REMARK VINA RESULT:      -6.3      6.578     14.815
REMARK  Name = ./S2286.pdb
REMARK  40 active torsions:
REMARK  status: ('A' for Active; 'I' for Inactive)
REMARK    1  A    between atoms: C1_1  and  C2_2
REMARK    2  A    between atoms: C2_2  and  C3_3
REMARK    3  A    between atoms: C5_7  and  C6_8
REMARK    4  A    between atoms: C6_8  and  O2_9
REMARK    5  A    between atoms: C6_8  and  C7_10
REMARK    6  A    between atoms: C7_10  and  C8_11
REMARK    7  A    between atoms: C7_10  and  C9_12
REMARK    8  A    between atoms: C9_12  and  C10_13
REMARK    9  A    between atoms: C11_14  and  C12_15
REMARK   10  A    between atoms: N2_16  and  C13_17
REMARK   11  A    between atoms: C15_20  and  C16_21
REMARK   12  A    between atoms: C16_21  and  C17_22
REMARK   13  A    between atoms: C16_21  and  C18_23
REMARK   14  A    between atoms: N3_24  and  C19_25
REMARK   15  A    between atoms: C21_28  and  C22_29
REMARK   16  A    between atoms: C22_29  and  C23_30
REMARK   17  A    between atoms: C23_30  and  C24_31
REMARK   18  A    between atoms: C23_30  and  C25_32
REMARK   19  A    between atoms: N4_33  and  C26_34
REMARK   20  A    between atoms: C28_37  and  C29_38
REMARK   21  A    between atoms: C29_38  and  C30_39
REMARK   22  A    between atoms: C30_39  and  C31_40
REMARK   23  A    between atoms: C30_39  and  C32_41
REMARK   24  A    between atoms: N5_42  and  C33_43
REMARK   25  A    between atoms: C35_46  and  C36_47
REMARK   26  A    between atoms: C38_51  and  C39_52
REMARK   27  A    between atoms: C41_56  and  C42_57
REMARK   28  A    between atoms: C42_57  and  C43_58
REMARK   29  A    between atoms: C43_58  and  C44_59
REMARK   30  A    between atoms: C43_58  and  C45_60
REMARK   31  A    between atoms: N8_61  and  C46_62
REMARK   32  A    between atoms: C48_65  and  C60_83
REMARK   33  A    between atoms: C50_69  and  C51_70
REMARK   34  A    between atoms: C51_70  and  C52_71
REMARK   35  A    between atoms: C52_71  and  C53_72
REMARK   36  A    between atoms: C52_71  and  C54_73
REMARK   37  A    between atoms: N10_74  and  C55_75
REMARK   38  A    between atoms: N11_79  and  C58_80
REMARK   39  A    between atoms: C60_83  and  C61_84
REMARK   40  A    between atoms: C60_83  and  C62_85
REMARK                            x       y       z     vdW  Elec       q    Type
REMARK                         _______ _______ _______ _____ _____    ______ ____
ROOT
ATOM      1  C3  UNL     1      88.555  64.311  96.892  0.00  0.00    +0.000 C 
ATOM      2  N1  UNL     1      88.477  65.773  96.779  0.00  0.00    +0.000 N 
ATOM      3  C4  UNL     1      87.582  66.542  97.610  0.00  0.00    +0.000 C 
ATOM      4  O1  UNL     1      87.010  65.968  98.584  0.00  0.00    +0.000 OA
ATOM      5  C5  UNL     1      87.382  68.050  97.449  0.00  0.00    +0.000 C 
ATOM      6  N2  UNL     1      86.042  68.507  97.904  0.00  0.00    +0.000 N 
ATOM      7  C13 UNL     1      85.917  69.913  98.335  0.00  0.00    +0.000 C 
ATOM      8  C14 UNL     1      84.850  67.679  97.779  0.00  0.00    +0.000 C 
ATOM      9  O3  UNL     1      84.877  66.694  96.993  0.00  0.00    +0.000 OA
ATOM     10  C15 UNL     1      83.548  67.986  98.522  0.00  0.00    +0.000 C 
ATOM     11  N3  UNL     1      82.389  67.229  97.972  0.00  0.00    +0.000 N 
ATOM     12  C19 UNL     1      82.401  65.756  97.901  0.00  0.00    +0.000 C 
ATOM     13  C20 UNL     1      81.177  67.944  97.593  0.00  0.00    +0.000 C 
ATOM     14  O4  UNL     1      81.024  69.137  97.956  0.00  0.00    +0.000 OA
ATOM     15  C21 UNL     1      80.066  67.270  96.791  0.00  0.00    +0.000 C 
ATOM     16  N4  UNL     1      79.115  66.493  97.627  0.00  0.00    +0.000 N 
ATOM     17  C26 UNL     1      78.442  65.349  97.015  0.00  0.00    +0.000 C 
ATOM     18  C27 UNL     1      78.898  66.787  99.035  0.00  0.00    +0.000 C 
ATOM     19  O5  UNL     1      78.832  67.990  99.388  0.00  0.00    +0.000 OA
ATOM     20  C28 UNL     1      78.852  65.683 100.099  0.00  0.00    +0.000 C 
ATOM     21  N5  UNL     1      79.390  66.089 101.427  0.00  0.00    +0.000 N 
ATOM     22  C33 UNL     1      78.941  67.319 102.092  0.00  0.00    +0.000 C 
ATOM     23  C34 UNL     1      80.395  65.264 102.072  0.00  0.00    +0.000 C 
ATOM     24  O6  UNL     1      81.127  64.511 101.369  0.00  0.00    +0.000 OA
ATOM     25  C35 UNL     1      80.601  65.260 103.572  0.00  0.00    +0.000 C 
ATOM     26  C36 UNL     1      81.523  66.402 104.016  0.00  0.00    +0.000 C 
ATOM     27  N6  UNL     1      81.189  63.983 103.997  0.00  0.00    +0.000 N 
ATOM     28  C37 UNL     1      80.392  62.863 104.407  0.00  0.00    +0.000 C 
ATOM     29  O7  UNL     1      79.186  62.787 104.051  0.00  0.00    +0.000 OA
ATOM     30  C38 UNL     1      80.980  61.797 105.293  0.00  0.00    +0.000 C 
ATOM     31  C39 UNL     1      81.347  62.386 106.655  0.00  0.00    +0.000 C 
ATOM     32  N7  UNL     1      82.166  61.207 104.667  0.00  0.00    +0.000 N 
ATOM     33  C40 UNL     1      82.235  59.830 104.275  0.00  0.00    +0.000 C 
ATOM     34  O8  UNL     1      81.182  59.128 104.235  0.00  0.00    +0.000 OA
ATOM     35  C41 UNL     1      83.580  59.228 103.909  0.00  0.00    +0.000 C 
ATOM     36  N8  UNL     1      84.563  59.319 105.019  0.00  0.00    +0.000 N 
ATOM     37  C46 UNL     1      84.122  59.362 106.424  0.00  0.00    +0.000 C 
ATOM     38  C47 UNL     1      85.974  59.378 104.696  0.00  0.00    +0.000 C 
ATOM     39  O9  UNL     1      86.359  58.912 103.592  0.00  0.00    +0.000 OA
ATOM     40  C48 UNL     1      87.000  60.036 105.617  0.00  0.00    +0.000 C 
ATOM     41  N9  UNL     1      87.576  61.255 105.019  0.00  0.00    +0.000 N 
ATOM     42  C49 UNL     1      88.380  61.354 103.825  0.00  0.00    +0.000 C 
ATOM     43  O10 UNL     1      88.405  60.400 103.003  0.00  0.00    +0.000 OA
ATOM     44  C50 UNL     1      89.038  62.673 103.445  0.00  0.00    +0.000 C 
ATOM     45  N10 UNL     1      89.951  62.567 102.277  0.00  0.00    +0.000 N 
ATOM     46  C55 UNL     1      90.902  61.452 102.139  0.00  0.00    +0.000 C 
ATOM     47  C56 UNL     1      89.999  63.656 101.322  0.00  0.00    +0.000 C 
ATOM     48  O11 UNL     1      89.418  64.745 101.585  0.00  0.00    +0.000 OA
ATOM     49  C57 UNL     1      90.764  63.546 100.022  0.00  0.00    +0.000 C 
ATOM     50  N11 UNL     1      90.136  64.369  98.979  0.00  0.00    +0.000 N 
ATOM     51  C58 UNL     1      90.577  65.763  98.834  0.00  0.00    +0.000 C 
ATOM     52  C59 UNL     1      88.993  63.837  98.268  0.00  0.00    +0.000 C 
ATOM     53  O12 UNL     1      88.368  62.862  98.769  0.00  0.00    +0.000 OA
ATOM     54  H7  UNL     1      88.954  66.220  95.974  0.00  0.00    +0.000 HD
ATOM     55  H66 UNL     1      82.233  63.904 104.051  0.00  0.00    +0.000 HD
ATOM     56  H71 UNL     1      83.031  61.785 104.580  0.00  0.00    +0.000 HD
ATOM     57  H86 UNL     1      87.313  62.152 105.486  0.00  0.00    +0.000 HD
ENDROOT
BRANCH  10  58
ATOM     58  C16 UNL     1      83.657  67.859 100.078  0.00  0.00    +0.000 C 
ATOM     59  C17 UNL     1      83.729  69.187 100.843  0.00  0.00    +0.000 C 
ATOM     60  C18 UNL     1      84.832  66.961 100.479  0.00  0.00    +0.000 C 
ENDBRANCH  10  58
BRANCH  40  61
ATOM     61  C60 UNL     1      88.091  59.087 106.210  0.00  0.00    +0.000 C 
ATOM     62  C61 UNL     1      87.580  57.757 106.794  0.00  0.00    +0.000 C 
ATOM     63  C62 UNL     1      88.942  59.802 107.270  0.00  0.00    +0.000 C 
ENDBRANCH  40  61
BRANCH   1  65
ATOM     64  C1  UNL     1      90.261  64.641  94.963  0.00  0.00    +0.000 C 
ATOM     65  C2  UNL     1      89.391  63.667  95.764  0.00  0.00    +0.000 C 
ENDBRANCH   1  65
BRANCH   5  66
ATOM     66  C6  UNL     1      87.740  68.661  96.054  0.00  0.00    +0.000 C 
BRANCH  66  67
ATOM     67  O2  UNL     1      89.132  68.588  95.852  0.00  0.00    +0.000 OA
ATOM     68  H10 UNL     1      89.403  69.386  95.322  0.00  0.00    +0.000 HD
ENDBRANCH  66  67
BRANCH  66  69
ATOM     69  C7  UNL     1      86.952  68.048  94.838  0.00  0.00    +0.000 C 
ATOM     70  C8  UNL     1      87.908  67.536  93.737  0.00  0.00    +0.000 C 
BRANCH  69  71
ATOM     71  C9  UNL     1      85.990  69.104  94.226  0.00  0.00    +0.000 C 
BRANCH  71  72
ATOM     72  C10 UNL     1      84.649  68.538  93.828  0.00  0.00    +0.000 C 
ATOM     73  C11 UNL     1      83.879  69.119  92.897  0.00  0.00    +0.000 C 
ATOM     74  C12 UNL     1      82.588  68.501  92.471  0.00  0.00    +0.000 C 
ENDBRANCH  71  72
ENDBRANCH  69  71
ENDBRANCH  66  69
ENDBRANCH   5  66
BRANCH  15  75
ATOM     75  C22 UNL     1      79.391  68.182  95.716  0.00  0.00    +0.000 C 
BRANCH  75  76
ATOM     76  C23 UNL     1      79.307  67.782  94.213  0.00  0.00    +0.000 C 
ATOM     77  C24 UNL     1      77.926  67.951  93.574  0.00  0.00    +0.000 C 
ATOM     78  C25 UNL     1      79.926  66.422  93.888  0.00  0.00    +0.000 C 
ENDBRANCH  75  76
ENDBRANCH  15  75
BRANCH  20  79
ATOM     79  C29 UNL     1      77.537  64.859 100.216  0.00  0.00    +0.000 C 
BRANCH  79  80
ATOM     80  C30 UNL     1      77.529  63.386 100.706  0.00  0.00    +0.000 C 
ATOM     81  C31 UNL     1      78.640  62.519 100.103  0.00  0.00    +0.000 C 
ATOM     82  C32 UNL     1      76.151  62.703 100.664  0.00  0.00    +0.000 C 
ENDBRANCH  79  80
ENDBRANCH  20  79
BRANCH  35  83
ATOM     83  C42 UNL     1      83.468  57.787 103.338  0.00  0.00    +0.000 C 
BRANCH  83  84
ATOM     84  C43 UNL     1      83.225  56.673 104.394  0.00  0.00    +0.000 C 
ATOM     85  C44 UNL     1      82.150  55.689 103.914  0.00  0.00    +0.000 C 
ATOM     86  C45 UNL     1      84.520  55.901 104.695  0.00  0.00    +0.000 C 
ENDBRANCH  83  84
ENDBRANCH  35  83
BRANCH  44  87
ATOM     87  C51 UNL     1      89.699  63.462 104.611  0.00  0.00    +0.000 C 
BRANCH  87  88
ATOM     88  C52 UNL     1      88.933  64.695 105.152  0.00  0.00    +0.000 C 
ATOM     89  C53 UNL     1      89.762  65.968 104.910  0.00  0.00    +0.000 C 
ATOM     90  C54 UNL     1      87.561  64.858 104.495  0.00  0.00    +0.000 C 
ENDBRANCH  87  88
ENDBRANCH  44  87
TORSDOF 16
ENDMDL
