MODEL 1
REMARK VINA RESULT:      -6.5      0.000      0.000
REMARK  Name = ./S2506.pdb
REMARK  32 active torsions:
REMARK  status: ('A' for Active; 'I' for Inactive)
REMARK    1  A    between atoms: C1_1  and  C2_2
REMARK    2  A    between atoms: C2_2  and  C3_3
REMARK    3  A    between atoms: C5_7  and  C6_8
REMARK    4  A    between atoms: C7_9  and  O3_10
REMARK    5  A    between atoms: O3_10  and  C8_11
REMARK    6  A    between atoms: C10_13  and  C11_14
REMARK    7  A    between atoms: C10_13  and  O4_15
REMARK    8  A    between atoms: O4_15  and  C12_16
REMARK    9  A    between atoms: C13_17  and  O5_18
REMARK   10  A    between atoms: C14_19  and  C15_20
REMARK   11  A    between atoms: C16_22  and  C17_23
REMARK   12  A    between atoms: C18_24  and  O7_25
REMARK   13  A    between atoms: O7_25  and  C19_26
REMARK   14  A    between atoms: C20_28  and  C21_29
REMARK   15  A    between atoms: C23_31  and  N1_34
REMARK   16  A    between atoms: C24_32  and  O9_33
REMARK   17  A    between atoms: N1_34  and  C25_35
REMARK   18  A    between atoms: N1_34  and  C26_36
REMARK   19  A    between atoms: C27_37  and  C28_38
REMARK   20  A    between atoms: C27_37  and  O10_39
REMARK   21  A    between atoms: C30_41  and  C31_42
REMARK   22  A    between atoms: N2_44  and  O11_45
REMARK   23  A    between atoms: O11_45  and  C33_46
REMARK   24  A    between atoms: C33_46  and  O12_47
REMARK   25  A    between atoms: O12_47  and  C34_48
REMARK   26  A    between atoms: C34_48  and  C35_49
REMARK   27  A    between atoms: C35_49  and  O13_50
REMARK   28  A    between atoms: O13_50  and  C36_51
REMARK   29  A    between atoms: C37_52  and  C38_53
REMARK   30  A    between atoms: C39_54  and  O14_55
REMARK   31  A    between atoms: C40_56  and  C41_57
REMARK   32  A    between atoms: C40_56  and  O15_58
REMARK                            x       y       z     vdW  Elec       q    Type
REMARK                         _______ _______ _______ _____ _____    ______ ____
ROOT
ATOM      1  C3  UNL     1      72.443  61.975 105.913  0.00  0.00    +0.000 C 
ATOM      2  O1  UNL     1      72.287  63.198 106.648  0.00  0.00    +0.000 OA
ATOM      3  C4  UNL     1      72.623  63.344 108.000  0.00  0.00    +0.000 C 
ATOM      4  O2  UNL     1      72.827  62.327 108.718  0.00  0.00    +0.000 OA
ATOM      5  C5  UNL     1      72.699  64.725 108.614  0.00  0.00    +0.000 C 
ATOM      6  C6  UNL     1      71.494  64.905 109.548  0.00  0.00    +0.000 C 
ATOM      7  C7  UNL     1      74.093  64.924 109.294  0.00  0.00    +0.000 C 
ATOM      8  C16 UNL     1      74.503  66.384 109.714  0.00  0.00    +0.000 C 
ATOM      9  C17 UNL     1      73.654  66.935 110.879  0.00  0.00    +0.000 C 
ATOM     10  C18 UNL     1      74.666  67.478 108.591  0.00  0.00    +0.000 C 
ATOM     11  C27 UNL     1      75.808  67.265 107.507  0.00  0.00    +0.000 C 
ATOM     12  C28 UNL     1      77.039  66.524 108.101  0.00  0.00    +0.000 C 
ATOM     13  C29 UNL     1      75.241  66.524 106.252  0.00  0.00    +0.000 C 
ATOM     14  C30 UNL     1      76.239  65.962 105.199  0.00  0.00    +0.000 C 
ATOM     15  C31 UNL     1      77.157  67.083 104.650  0.00  0.00    +0.000 C 
ATOM     16  C32 UNL     1      75.518  65.234 104.039  0.00  0.00    +0.000 C 
ATOM     17  N2  UNL     1      75.918  65.481 102.824  0.00  0.00    +0.000 NA
ATOM     18  C37 UNL     1      74.401  64.194 104.263  0.00  0.00    +0.000 C 
ATOM     19  C38 UNL     1      73.067  64.946 104.453  0.00  0.00    +0.000 C 
ATOM     20  C39 UNL     1      74.787  63.128 105.351  0.00  0.00    +0.000 C 
ATOM     21  C40 UNL     1      73.930  61.796 105.377  0.00  0.00    +0.000 C 
ATOM     22  C41 UNL     1      74.644  60.782 106.319  0.00  0.00    +0.000 C 
ENDROOT
BRANCH   1  24
ATOM     23  C1  UNL     1      70.155  62.754 105.045  0.00  0.00    +0.000 C 
ATOM     24  C2  UNL     1      71.358  61.838 104.813  0.00  0.00    +0.000 C 
ENDBRANCH   1  24
BRANCH  11  25
ATOM     25  O10 UNL     1      76.228  68.536 107.065  0.00  0.00    +0.000 OA
ATOM     26  H51 UNL     1      76.315  68.515 106.073  0.00  0.00    +0.000 HD
ENDBRANCH  11  25
BRANCH  20  27
ATOM     27  O14 UNL     1      76.134  62.778 105.116  0.00  0.00    +0.000 OA
ATOM     28  H72 UNL     1      76.143  61.955 104.560  0.00  0.00    +0.000 HD
ENDBRANCH  20  27
BRANCH  21  29
ATOM     29  O15 UNL     1      73.935  61.253 104.074  0.00  0.00    +0.000 OA
ATOM     30  H76 UNL     1      73.261  61.741 103.529  0.00  0.00    +0.000 HD
ENDBRANCH  21  29
BRANCH   7  31
ATOM     31  O3  UNL     1      74.160  64.077 110.436  0.00  0.00    +0.000 OA
BRANCH  31  32
ATOM     32  C8  UNL     1      75.482  63.838 110.910  0.00  0.00    +0.000 C 
ATOM     33  C9  UNL     1      75.459  63.897 112.463  0.00  0.00    +0.000 C 
ATOM     34  C10 UNL     1      75.829  62.544 113.106  0.00  0.00    +0.000 C 
ATOM     35  C11 UNL     1      75.959  62.747 114.633  0.00  0.00    +0.000 C 
ATOM     36  C13 UNL     1      77.185  62.075 112.472  0.00  0.00    +0.000 C 
ATOM     37  C14 UNL     1      77.123  62.117 110.912  0.00  0.00    +0.000 C 
ATOM     38  C15 UNL     1      78.295  62.838 110.222  0.00  0.00    +0.000 C 
ATOM     39  O6  UNL     1      75.868  62.564 110.418  0.00  0.00    +0.000 OA
BRANCH  34  40
ATOM     40  O4  UNL     1      74.731  61.673 112.812  0.00  0.00    +0.000 OA
ATOM     41  C12 UNL     1      74.364  60.803 113.865  0.00  0.00    +0.000 C 
ENDBRANCH  34  40
BRANCH  36  42
ATOM     42  O5  UNL     1      78.293  62.789 112.983  0.00  0.00    +0.000 OA
ATOM     43  H22 UNL     1      78.888  63.035 112.228  0.00  0.00    +0.000 HD
ENDBRANCH  36  42
ENDBRANCH  31  32
ENDBRANCH   7  31
BRANCH  10  44
ATOM     44  O7  UNL     1      73.413  67.687 107.942  0.00  0.00    +0.000 OA
BRANCH  44  45
ATOM     45  C19 UNL     1      72.889  68.999 108.091  0.00  0.00    +0.000 C 
ATOM     46  O8  UNL     1      71.582  68.900 108.646  0.00  0.00    +0.000 OA
ATOM     47  C20 UNL     1      70.544  68.733 107.696  0.00  0.00    +0.000 C 
ATOM     48  C21 UNL     1      70.615  67.390 106.952  0.00  0.00    +0.000 C 
ATOM     49  C22 UNL     1      70.400  69.952 106.761  0.00  0.00    +0.000 C 
ATOM     50  C23 UNL     1      71.731  70.677 106.461  0.00  0.00    +0.000 C 
ATOM     51  C24 UNL     1      72.964  69.768 106.740  0.00  0.00    +0.000 C 
BRANCH  50  52
ATOM     52  N1  UNL     1      71.741  72.026 107.100  0.00  0.00    +0.000 NA
ATOM     53  C25 UNL     1      70.590  72.273 107.988  0.00  0.00    +0.000 C 
ATOM     54  C26 UNL     1      71.985  73.173 106.208  0.00  0.00    +0.000 C 
ENDBRANCH  50  52
BRANCH  51  55
ATOM     55  O9  UNL     1      74.161  70.498 106.667  0.00  0.00    +0.000 OA
ATOM     56  H41 UNL     1      74.800  70.070 107.300  0.00  0.00    +0.000 HD
ENDBRANCH  51  55
ENDBRANCH  44  45
ENDBRANCH  10  44
BRANCH  17  57
ATOM     57  O11 UNL     1      75.377  64.886 101.704  0.00  0.00    +0.000 OA
BRANCH  57  58
ATOM     58  C33 UNL     1      76.225  64.295 100.733  0.00  0.00    +0.000 C 
BRANCH  58  59
ATOM     59  O12 UNL     1      75.483  63.349  99.995  0.00  0.00    +0.000 OA
BRANCH  59  60
ATOM     60  C34 UNL     1      75.126  62.268 100.829  0.00  0.00    +0.000 C 
BRANCH  60  61
ATOM     61  C35 UNL     1      73.664  61.904 100.581  0.00  0.00    +0.000 C 
BRANCH  61  62
ATOM     62  O13 UNL     1      72.820  62.603 101.480  0.00  0.00    +0.000 OA
ATOM     63  C36 UNL     1      71.465  62.361 101.172  0.00  0.00    +0.000 C 
ENDBRANCH  61  62
ENDBRANCH  60  61
ENDBRANCH  59  60
ENDBRANCH  58  59
ENDBRANCH  57  58
ENDBRANCH  17  57
TORSDOF 18
ENDMDL
MODEL 2
REMARK VINA RESULT:      -6.5      1.168      1.610
REMARK  Name = ./S2506.pdb
REMARK  32 active torsions:
REMARK  status: ('A' for Active; 'I' for Inactive)
REMARK    1  A    between atoms: C1_1  and  C2_2
REMARK    2  A    between atoms: C2_2  and  C3_3
REMARK    3  A    between atoms: C5_7  and  C6_8
REMARK    4  A    between atoms: C7_9  and  O3_10
REMARK    5  A    between atoms: O3_10  and  C8_11
REMARK    6  A    between atoms: C10_13  and  C11_14
REMARK    7  A    between atoms: C10_13  and  O4_15
REMARK    8  A    between atoms: O4_15  and  C12_16
REMARK    9  A    between atoms: C13_17  and  O5_18
REMARK   10  A    between atoms: C14_19  and  C15_20
REMARK   11  A    between atoms: C16_22  and  C17_23
REMARK   12  A    between atoms: C18_24  and  O7_25
REMARK   13  A    between atoms: O7_25  and  C19_26
REMARK   14  A    between atoms: C20_28  and  C21_29
REMARK   15  A    between atoms: C23_31  and  N1_34
REMARK   16  A    between atoms: C24_32  and  O9_33
REMARK   17  A    between atoms: N1_34  and  C25_35
REMARK   18  A    between atoms: N1_34  and  C26_36
REMARK   19  A    between atoms: C27_37  and  C28_38
REMARK   20  A    between atoms: C27_37  and  O10_39
REMARK   21  A    between atoms: C30_41  and  C31_42
REMARK   22  A    between atoms: N2_44  and  O11_45
REMARK   23  A    between atoms: O11_45  and  C33_46
REMARK   24  A    between atoms: C33_46  and  O12_47
REMARK   25  A    between atoms: O12_47  and  C34_48
REMARK   26  A    between atoms: C34_48  and  C35_49
REMARK   27  A    between atoms: C35_49  and  O13_50
REMARK   28  A    between atoms: O13_50  and  C36_51
REMARK   29  A    between atoms: C37_52  and  C38_53
REMARK   30  A    between atoms: C39_54  and  O14_55
REMARK   31  A    between atoms: C40_56  and  C41_57
REMARK   32  A    between atoms: C40_56  and  O15_58
REMARK                            x       y       z     vdW  Elec       q    Type
REMARK                         _______ _______ _______ _____ _____    ______ ____
ROOT
ATOM      1  C3  UNL     1      72.490  61.946 105.928  0.00  0.00    +0.000 C 
ATOM      2  O1  UNL     1      72.316  63.168 106.658  0.00  0.00    +0.000 OA
ATOM      3  C4  UNL     1      72.629  63.319 108.015  0.00  0.00    +0.000 C 
ATOM      4  O2  UNL     1      72.827  62.304 108.738  0.00  0.00    +0.000 OA
ATOM      5  C5  UNL     1      72.688  64.701 108.628  0.00  0.00    +0.000 C 
ATOM      6  C6  UNL     1      71.467  64.876 109.543  0.00  0.00    +0.000 C 
ATOM      7  C7  UNL     1      74.070  64.909 109.329  0.00  0.00    +0.000 C 
ATOM      8  C16 UNL     1      74.466  66.371 109.754  0.00  0.00    +0.000 C 
ATOM      9  C17 UNL     1      73.595  66.920 110.904  0.00  0.00    +0.000 C 
ATOM     10  C18 UNL     1      74.640  67.464 108.631  0.00  0.00    +0.000 C 
ATOM     11  C27 UNL     1      75.800  67.256 107.566  0.00  0.00    +0.000 C 
ATOM     12  C28 UNL     1      77.025  66.522 108.181  0.00  0.00    +0.000 C 
ATOM     13  C29 UNL     1      75.257  66.510 106.304  0.00  0.00    +0.000 C 
ATOM     14  C30 UNL     1      76.275  65.951 105.267  0.00  0.00    +0.000 C 
ATOM     15  C31 UNL     1      77.195  67.076 104.731  0.00  0.00    +0.000 C 
ATOM     16  C32 UNL     1      75.576  65.218 104.098  0.00  0.00    +0.000 C 
ATOM     17  N2  UNL     1      75.995  65.465 102.888  0.00  0.00    +0.000 NA
ATOM     18  C37 UNL     1      74.462  64.172 104.305  0.00  0.00    +0.000 C 
ATOM     19  C38 UNL     1      73.121  64.917 104.473  0.00  0.00    +0.000 C 
ATOM     20  C39 UNL     1      74.836  63.110 105.401  0.00  0.00    +0.000 C 
ATOM     21  C40 UNL     1      73.986  61.774 105.416  0.00  0.00    +0.000 C 
ATOM     22  C41 UNL     1      74.690  60.765 106.371  0.00  0.00    +0.000 C 
ENDROOT
BRANCH   1  24
ATOM     23  C1  UNL     1      70.181  62.660 105.058  0.00  0.00    +0.000 C 
ATOM     24  C2  UNL     1      71.423  61.801 104.811  0.00  0.00    +0.000 C 
ENDBRANCH   1  24
BRANCH  11  25
ATOM     25  O10 UNL     1      76.220  68.528 107.128  0.00  0.00    +0.000 OA
ATOM     26  H51 UNL     1      76.915  68.867 107.755  0.00  0.00    +0.000 HD
ENDBRANCH  11  25
BRANCH  20  27
ATOM     27  O14 UNL     1      76.189  62.767 105.188  0.00  0.00    +0.000 OA
ATOM     28  H72 UNL     1      76.707  63.610 105.103  0.00  0.00    +0.000 HD
ENDBRANCH  20  27
BRANCH  21  29
ATOM     29  O15 UNL     1      74.015  61.228 104.114  0.00  0.00    +0.000 OA
ATOM     30  H76 UNL     1      74.379  60.304 104.170  0.00  0.00    +0.000 HD
ENDBRANCH  21  29
BRANCH   7  31
ATOM     31  O3  UNL     1      74.123  64.064 110.474  0.00  0.00    +0.000 OA
BRANCH  31  32
ATOM     32  C8  UNL     1      75.439  63.824 110.963  0.00  0.00    +0.000 C 
ATOM     33  C9  UNL     1      75.403  63.900 112.514  0.00  0.00    +0.000 C 
ATOM     34  C10 UNL     1      75.760  62.553 113.176  0.00  0.00    +0.000 C 
ATOM     35  C11 UNL     1      75.878  62.773 114.702  0.00  0.00    +0.000 C 
ATOM     36  C13 UNL     1      77.120  62.071 112.560  0.00  0.00    +0.000 C 
ATOM     37  C14 UNL     1      77.072  62.095 110.999  0.00  0.00    +0.000 C 
ATOM     38  C15 UNL     1      78.254  62.802 110.311  0.00  0.00    +0.000 C 
ATOM     39  O6  UNL     1      75.823  62.542 110.488  0.00  0.00    +0.000 OA
BRANCH  34  40
ATOM     40  O4  UNL     1      74.661  61.685 112.882  0.00  0.00    +0.000 OA
ATOM     41  C12 UNL     1      74.334  60.770 113.910  0.00  0.00    +0.000 C 
ENDBRANCH  34  40
BRANCH  36  42
ATOM     42  O5  UNL     1      78.227  62.784 113.073  0.00  0.00    +0.000 OA
ATOM     43  H22 UNL     1      79.056  62.285 112.853  0.00  0.00    +0.000 HD
ENDBRANCH  36  42
ENDBRANCH  31  32
ENDBRANCH   7  31
BRANCH  10  44
ATOM     44  O7  UNL     1      73.397  67.665 107.963  0.00  0.00    +0.000 OA
BRANCH  44  45
ATOM     45  C19 UNL     1      72.874  68.981 108.084  0.00  0.00    +0.000 C 
ATOM     46  O8  UNL     1      71.566  68.894 108.640  0.00  0.00    +0.000 OA
ATOM     47  C20 UNL     1      70.528  68.708 107.692  0.00  0.00    +0.000 C 
ATOM     48  C21 UNL     1      70.600  67.350 106.976  0.00  0.00    +0.000 C 
ATOM     49  C22 UNL     1      70.386  69.908 106.733  0.00  0.00    +0.000 C 
ATOM     50  C23 UNL     1      71.718  70.626 106.418  0.00  0.00    +0.000 C 
ATOM     51  C24 UNL     1      72.950  69.722 106.717  0.00  0.00    +0.000 C 
BRANCH  50  52
ATOM     52  N1  UNL     1      71.728  71.988 107.030  0.00  0.00    +0.000 NA
ATOM     53  C25 UNL     1      70.593  72.243 107.934  0.00  0.00    +0.000 C 
ATOM     54  C26 UNL     1      71.944  73.118 106.110  0.00  0.00    +0.000 C 
ENDBRANCH  50  52
BRANCH  51  55
ATOM     55  O9  UNL     1      74.148  70.449 106.630  0.00  0.00    +0.000 OA
ATOM     56  H41 UNL     1      74.270  70.692 105.672  0.00  0.00    +0.000 HD
ENDBRANCH  51  55
ENDBRANCH  44  45
ENDBRANCH  10  44
BRANCH  17  57
ATOM     57  O11 UNL     1      75.474  64.865 101.761  0.00  0.00    +0.000 OA
BRANCH  57  58
ATOM     58  C33 UNL     1      76.239  64.811 100.568  0.00  0.00    +0.000 C 
BRANCH  58  59
ATOM     59  O12 UNL     1      75.925  65.935  99.774  0.00  0.00    +0.000 OA
BRANCH  59  60
ATOM     60  C34 UNL     1      76.558  65.823  98.518  0.00  0.00    +0.000 C 
BRANCH  60  61
ATOM     61  C35 UNL     1      75.563  66.191  97.420  0.00  0.00    +0.000 C 
BRANCH  61  62
ATOM     62  O13 UNL     1      74.560  67.054  97.929  0.00  0.00    +0.000 OA
ATOM     63  C36 UNL     1      74.061  67.885  96.905  0.00  0.00    +0.000 C 
ENDBRANCH  61  62
ENDBRANCH  60  61
ENDBRANCH  59  60
ENDBRANCH  58  59
ENDBRANCH  57  58
ENDBRANCH  17  57
TORSDOF 18
ENDMDL
MODEL 3
REMARK VINA RESULT:      -6.4      2.612      7.986
REMARK  Name = ./S2506.pdb
REMARK  32 active torsions:
REMARK  status: ('A' for Active; 'I' for Inactive)
REMARK    1  A    between atoms: C1_1  and  C2_2
REMARK    2  A    between atoms: C2_2  and  C3_3
REMARK    3  A    between atoms: C5_7  and  C6_8
REMARK    4  A    between atoms: C7_9  and  O3_10
REMARK    5  A    between atoms: O3_10  and  C8_11
REMARK    6  A    between atoms: C10_13  and  C11_14
REMARK    7  A    between atoms: C10_13  and  O4_15
REMARK    8  A    between atoms: O4_15  and  C12_16
REMARK    9  A    between atoms: C13_17  and  O5_18
REMARK   10  A    between atoms: C14_19  and  C15_20
REMARK   11  A    between atoms: C16_22  and  C17_23
REMARK   12  A    between atoms: C18_24  and  O7_25
REMARK   13  A    between atoms: O7_25  and  C19_26
REMARK   14  A    between atoms: C20_28  and  C21_29
REMARK   15  A    between atoms: C23_31  and  N1_34
REMARK   16  A    between atoms: C24_32  and  O9_33
REMARK   17  A    between atoms: N1_34  and  C25_35
REMARK   18  A    between atoms: N1_34  and  C26_36
REMARK   19  A    between atoms: C27_37  and  C28_38
REMARK   20  A    between atoms: C27_37  and  O10_39
REMARK   21  A    between atoms: C30_41  and  C31_42
REMARK   22  A    between atoms: N2_44  and  O11_45
REMARK   23  A    between atoms: O11_45  and  C33_46
REMARK   24  A    between atoms: C33_46  and  O12_47
REMARK   25  A    between atoms: O12_47  and  C34_48
REMARK   26  A    between atoms: C34_48  and  C35_49
REMARK   27  A    between atoms: C35_49  and  O13_50
REMARK   28  A    between atoms: O13_50  and  C36_51
REMARK   29  A    between atoms: C37_52  and  C38_53
REMARK   30  A    between atoms: C39_54  and  O14_55
REMARK   31  A    between atoms: C40_56  and  C41_57
REMARK   32  A    between atoms: C40_56  and  O15_58
REMARK                            x       y       z     vdW  Elec       q    Type
REMARK                         _______ _______ _______ _____ _____    ______ ____
ROOT
ATOM      1  C3  UNL     1      76.899  63.202 108.321  0.00  0.00    +0.000 C 
ATOM      2  O1  UNL     1      76.461  64.448 107.763  0.00  0.00    +0.000 OA
ATOM      3  C4  UNL     1      75.922  64.581 106.476  0.00  0.00    +0.000 C 
ATOM      4  O2  UNL     1      76.047  63.648 105.636  0.00  0.00    +0.000 OA
ATOM      5  C5  UNL     1      75.225  65.863 106.077  0.00  0.00    +0.000 C 
ATOM      6  C6  UNL     1      76.127  66.616 105.089  0.00  0.00    +0.000 C 
ATOM      7  C7  UNL     1      73.791  65.541 105.544  0.00  0.00    +0.000 C 
ATOM      8  C16 UNL     1      72.784  66.738 105.374  0.00  0.00    +0.000 C 
ATOM      9  C17 UNL     1      73.186  67.705 104.240  0.00  0.00    +0.000 C 
ATOM     10  C18 UNL     1      72.349  67.549 106.654  0.00  0.00    +0.000 C 
ATOM     11  C27 UNL     1      71.536  66.777 107.781  0.00  0.00    +0.000 C 
ATOM     12  C28 UNL     1      70.635  65.661 107.182  0.00  0.00    +0.000 C 
ATOM     13  C29 UNL     1      72.508  66.211 108.866  0.00  0.00    +0.000 C 
ATOM     14  C30 UNL     1      71.961  65.184 109.900  0.00  0.00    +0.000 C 
ATOM     15  C31 UNL     1      70.754  65.768 110.676  0.00  0.00    +0.000 C 
ATOM     16  C32 UNL     1      73.056  64.703 110.882  0.00  0.00    +0.000 C 
ATOM     17  N2  UNL     1      72.752  64.639 112.148  0.00  0.00    +0.000 NA
ATOM     18  C37 UNL     1      74.454  64.241 110.424  0.00  0.00    +0.000 C 
ATOM     19  C38 UNL     1      75.343  65.489 110.243  0.00  0.00    +0.000 C 
ATOM     20  C39 UNL     1      74.386  63.228 109.225  0.00  0.00    +0.000 C 
ATOM     21  C40 UNL     1      75.689  62.375 108.939  0.00  0.00    +0.000 C 
ATOM     22  C41 UNL     1      75.320  61.259 107.917  0.00  0.00    +0.000 C 
ENDROOT
BRANCH   1  24
ATOM     23  C1  UNL     1      79.348  63.921 108.610  0.00  0.00    +0.000 C 
ATOM     24  C2  UNL     1      78.083  63.411 109.303  0.00  0.00    +0.000 C 
ENDBRANCH   1  24
BRANCH  11  25
ATOM     25  O10 UNL     1      70.708  67.712 108.434  0.00  0.00    +0.000 OA
ATOM     26  H51 UNL     1      71.130  68.611 108.371  0.00  0.00    +0.000 HD
ENDBRANCH  11  25
BRANCH  20  27
ATOM     27  O14 UNL     1      73.330  62.334 109.510  0.00  0.00    +0.000 OA
ATOM     28  H72 UNL     1      73.431  61.544 108.915  0.00  0.00    +0.000 HD
ENDBRANCH  20  27
BRANCH  21  29
ATOM     29  O15 UNL     1      76.069  61.748 110.146  0.00  0.00    +0.000 OA
ATOM     30  H76 UNL     1      76.680  60.994 109.927  0.00  0.00    +0.000 HD
ENDBRANCH  21  29
BRANCH   7  31
ATOM     31  O3  UNL     1      73.918  64.863 104.299  0.00  0.00    +0.000 OA
BRANCH  31  32
ATOM     32  C8  UNL     1      72.830  63.996 103.992  0.00  0.00    +0.000 C 
ATOM     33  C9  UNL     1      73.236  63.119 102.776  0.00  0.00    +0.000 C 
ATOM     34  C10 UNL     1      73.304  61.619 103.131  0.00  0.00    +0.000 C 
ATOM     35  C11 UNL     1      73.532  60.817 101.828  0.00  0.00    +0.000 C 
ATOM     36  C13 UNL     1      71.945  61.233 103.812  0.00  0.00    +0.000 C 
ATOM     37  C14 UNL     1      71.599  62.215 104.976  0.00  0.00    +0.000 C 
ATOM     38  C15 UNL     1      70.175  62.799 104.947  0.00  0.00    +0.000 C 
ATOM     39  O6  UNL     1      72.579  63.227 105.160  0.00  0.00    +0.000 OA
BRANCH  34  40
ATOM     40  O4  UNL     1      74.435  61.488 103.999  0.00  0.00    +0.000 OA
ATOM     41  C12 UNL     1      74.754  60.159 104.363  0.00  0.00    +0.000 C 
ENDBRANCH  34  40
BRANCH  36  42
ATOM     42  O5  UNL     1      70.890  61.114 102.879  0.00  0.00    +0.000 OA
ATOM     43  H22 UNL     1      70.639  62.023 102.567  0.00  0.00    +0.000 HD
ENDBRANCH  36  42
ENDBRANCH  31  32
ENDBRANCH   7  31
BRANCH  10  44
ATOM     44  O7  UNL     1      73.488  68.186 107.227  0.00  0.00    +0.000 OA
BRANCH  44  45
ATOM     45  C19 UNL     1      73.526  69.595 107.041  0.00  0.00    +0.000 C 
ATOM     46  O8  UNL     1      74.818  69.950 106.562  0.00  0.00    +0.000 OA
ATOM     47  C20 UNL     1      75.783  70.187 107.573  0.00  0.00    +0.000 C 
ATOM     48  C21 UNL     1      76.139  68.927 108.377  0.00  0.00    +0.000 C 
ATOM     49  C22 UNL     1      75.426  71.404 108.452  0.00  0.00    +0.000 C 
ATOM     50  C23 UNL     1      73.908  71.618 108.646  0.00  0.00    +0.000 C 
ATOM     51  C24 UNL     1      73.095  70.324 108.347  0.00  0.00    +0.000 C 
BRANCH  50  52
ATOM     52  N1  UNL     1      73.468  72.858 107.941  0.00  0.00    +0.000 NA
ATOM     53  C25 UNL     1      74.519  73.481 107.118  0.00  0.00    +0.000 C 
ATOM     54  C26 UNL     1      72.763  73.861 108.758  0.00  0.00    +0.000 C 
ENDBRANCH  50  52
BRANCH  51  55
ATOM     55  O9  UNL     1      71.716  70.584 108.321  0.00  0.00    +0.000 OA
ATOM     56  H41 UNL     1      71.573  71.327 107.673  0.00  0.00    +0.000 HD
ENDBRANCH  51  55
ENDBRANCH  44  45
ENDBRANCH  10  44
BRANCH  17  57
ATOM     57  O11 UNL     1      73.626  64.208 113.124  0.00  0.00    +0.000 OA
BRANCH  57  58
ATOM     58  C33 UNL     1      74.058  65.103 114.135  0.00  0.00    +0.000 C 
BRANCH  58  59
ATOM     59  O12 UNL     1      73.739  66.421 113.744  0.00  0.00    +0.000 OA
BRANCH  59  60
ATOM     60  C34 UNL     1      74.926  67.161 113.556  0.00  0.00    +0.000 C 
BRANCH  60  61
ATOM     61  C35 UNL     1      75.438  67.641 114.913  0.00  0.00    +0.000 C 
BRANCH  61  62
ATOM     62  O13 UNL     1      74.430  68.369 115.594  0.00  0.00    +0.000 OA
ATOM     63  C36 UNL     1      74.387  67.995 116.953  0.00  0.00    +0.000 C 
ENDBRANCH  61  62
ENDBRANCH  60  61
ENDBRANCH  59  60
ENDBRANCH  58  59
ENDBRANCH  57  58
ENDBRANCH  17  57
TORSDOF 18
ENDMDL
MODEL 4
REMARK VINA RESULT:      -6.1      3.149      6.947
REMARK  Name = ./S2506.pdb
REMARK  32 active torsions:
REMARK  status: ('A' for Active; 'I' for Inactive)
REMARK    1  A    between atoms: C1_1  and  C2_2
REMARK    2  A    between atoms: C2_2  and  C3_3
REMARK    3  A    between atoms: C5_7  and  C6_8
REMARK    4  A    between atoms: C7_9  and  O3_10
REMARK    5  A    between atoms: O3_10  and  C8_11
REMARK    6  A    between atoms: C10_13  and  C11_14
REMARK    7  A    between atoms: C10_13  and  O4_15
REMARK    8  A    between atoms: O4_15  and  C12_16
REMARK    9  A    between atoms: C13_17  and  O5_18
REMARK   10  A    between atoms: C14_19  and  C15_20
REMARK   11  A    between atoms: C16_22  and  C17_23
REMARK   12  A    between atoms: C18_24  and  O7_25
REMARK   13  A    between atoms: O7_25  and  C19_26
REMARK   14  A    between atoms: C20_28  and  C21_29
REMARK   15  A    between atoms: C23_31  and  N1_34
REMARK   16  A    between atoms: C24_32  and  O9_33
REMARK   17  A    between atoms: N1_34  and  C25_35
REMARK   18  A    between atoms: N1_34  and  C26_36
REMARK   19  A    between atoms: C27_37  and  C28_38
REMARK   20  A    between atoms: C27_37  and  O10_39
REMARK   21  A    between atoms: C30_41  and  C31_42
REMARK   22  A    between atoms: N2_44  and  O11_45
REMARK   23  A    between atoms: O11_45  and  C33_46
REMARK   24  A    between atoms: C33_46  and  O12_47
REMARK   25  A    between atoms: O12_47  and  C34_48
REMARK   26  A    between atoms: C34_48  and  C35_49
REMARK   27  A    between atoms: C35_49  and  O13_50
REMARK   28  A    between atoms: O13_50  and  C36_51
REMARK   29  A    between atoms: C37_52  and  C38_53
REMARK   30  A    between atoms: C39_54  and  O14_55
REMARK   31  A    between atoms: C40_56  and  C41_57
REMARK   32  A    between atoms: C40_56  and  O15_58
REMARK                            x       y       z     vdW  Elec       q    Type
REMARK                         _______ _______ _______ _____ _____    ______ ____
ROOT
ATOM      1  C3  UNL     1      78.158  65.376 104.670  0.00  0.00    +0.000 C 
ATOM      2  O1  UNL     1      76.755  65.672 104.646  0.00  0.00    +0.000 OA
ATOM      3  C4  UNL     1      75.750  64.712 104.832  0.00  0.00    +0.000 C 
ATOM      4  O2  UNL     1      76.026  63.483 104.760  0.00  0.00    +0.000 OA
ATOM      5  C5  UNL     1      74.323  65.150 105.077  0.00  0.00    +0.000 C 
ATOM      6  C6  UNL     1      73.501  64.845 103.817  0.00  0.00    +0.000 C 
ATOM      7  C7  UNL     1      73.787  64.490 106.389  0.00  0.00    +0.000 C 
ATOM      8  C16 UNL     1      72.448  65.050 106.999  0.00  0.00    +0.000 C 
ATOM      9  C17 UNL     1      71.215  64.743 106.124  0.00  0.00    +0.000 C 
ATOM     10  C18 UNL     1      72.409  66.547 107.492  0.00  0.00    +0.000 C 
ATOM     11  C27 UNL     1      73.354  66.954 108.704  0.00  0.00    +0.000 C 
ATOM     12  C28 UNL     1      73.559  65.777 109.698  0.00  0.00    +0.000 C 
ATOM     13  C29 UNL     1      74.718  67.503 108.173  0.00  0.00    +0.000 C 
ATOM     14  C30 UNL     1      75.892  67.691 109.178  0.00  0.00    +0.000 C 
ATOM     15  C31 UNL     1      75.482  68.627 110.342  0.00  0.00    +0.000 C 
ATOM     16  C32 UNL     1      77.175  68.213 108.487  0.00  0.00    +0.000 C 
ATOM     17  N2  UNL     1      77.833  69.173 109.073  0.00  0.00    +0.000 NA
ATOM     18  C37 UNL     1      77.735  67.608 107.183  0.00  0.00    +0.000 C 
ATOM     19  C38 UNL     1      76.987  68.244 105.992  0.00  0.00    +0.000 C 
ATOM     20  C39 UNL     1      77.804  66.039 107.233  0.00  0.00    +0.000 C 
ATOM     21  C40 UNL     1      78.725  65.333 106.156  0.00  0.00    +0.000 C 
ATOM     22  C41 UNL     1      78.871  63.834 106.554  0.00  0.00    +0.000 C 
ENDROOT
BRANCH   1  24
ATOM     23  C1  UNL     1      78.073  66.935 102.632  0.00  0.00    +0.000 C 
ATOM     24  C2  UNL     1      78.948  66.317 103.723  0.00  0.00    +0.000 C 
ENDBRANCH   1  24
BRANCH  11  25
ATOM     25  O10 UNL     1      72.737  68.016 109.396  0.00  0.00    +0.000 OA
ATOM     26  H51 UNL     1      71.831  67.723 109.686  0.00  0.00    +0.000 HD
ENDBRANCH  11  25
BRANCH  20  27
ATOM     27  O14 UNL     1      78.287  65.695 108.515  0.00  0.00    +0.000 OA
ATOM     28  H72 UNL     1      77.534  65.297 109.027  0.00  0.00    +0.000 HD
ENDBRANCH  20  27
BRANCH  21  29
ATOM     29  O15 UNL     1      80.005  65.925 106.225  0.00  0.00    +0.000 OA
ATOM     30  H76 UNL     1      79.925  66.784 106.721  0.00  0.00    +0.000 HD
ENDBRANCH  21  29
BRANCH   7  31
ATOM     31  O3  UNL     1      73.642  63.093 106.161  0.00  0.00    +0.000 OA
BRANCH  31  32
ATOM     32  C8  UNL     1      73.672  62.301 107.344  0.00  0.00    +0.000 C 
ATOM     33  C9  UNL     1      72.546  61.235 107.244  0.00  0.00    +0.000 C 
ATOM     34  C10 UNL     1      73.102  59.796 107.212  0.00  0.00    +0.000 C 
ATOM     35  C11 UNL     1      71.914  58.810 107.298  0.00  0.00    +0.000 C 
ATOM     36  C13 UNL     1      74.069  59.636 108.436  0.00  0.00    +0.000 C 
ATOM     37  C14 UNL     1      75.118  60.793 108.481  0.00  0.00    +0.000 C 
ATOM     38  C15 UNL     1      75.263  61.503 109.839  0.00  0.00    +0.000 C 
ATOM     39  O6  UNL     1      74.967  61.722 107.416  0.00  0.00    +0.000 OA
BRANCH  34  40
ATOM     40  O4  UNL     1      73.759  59.674 105.946  0.00  0.00    +0.000 OA
ATOM     41  C12 UNL     1      72.893  59.625 104.829  0.00  0.00    +0.000 C 
ENDBRANCH  34  40
BRANCH  36  42
ATOM     42  O5  UNL     1      73.373  59.497 109.658  0.00  0.00    +0.000 OA
ATOM     43  H22 UNL     1      73.984  59.094 110.328  0.00  0.00    +0.000 HD
ENDBRANCH  36  42
ENDBRANCH  31  32
ENDBRANCH   7  31
BRANCH  10  44
ATOM     44  O7  UNL     1      72.631  67.421 106.388  0.00  0.00    +0.000 OA
BRANCH  44  45
ATOM     45  C19 UNL     1      71.473  68.121 105.954  0.00  0.00    +0.000 C 
ATOM     46  O8  UNL     1      71.778  68.775 104.727  0.00  0.00    +0.000 OA
ATOM     47  C20 UNL     1      72.348  70.066 104.866  0.00  0.00    +0.000 C 
ATOM     48  C21 UNL     1      73.745  70.043 105.506  0.00  0.00    +0.000 C 
ATOM     49  C22 UNL     1      71.379  71.068 105.528  0.00  0.00    +0.000 C 
ATOM     50  C23 UNL     1      70.426  70.433 106.565  0.00  0.00    +0.000 C 
ATOM     51  C24 UNL     1      70.957  69.062 107.080  0.00  0.00    +0.000 C 
BRANCH  50  52
ATOM     52  N1  UNL     1      69.022  70.454 106.058  0.00  0.00    +0.000 NA
ATOM     53  C25 UNL     1      68.920  70.528 104.589  0.00  0.00    +0.000 C 
ATOM     54  C26 UNL     1      68.105  71.407 106.706  0.00  0.00    +0.000 C 
ENDBRANCH  50  52
BRANCH  51  55
ATOM     55  O9  UNL     1      69.991  68.401 107.855  0.00  0.00    +0.000 OA
ATOM     56  H41 UNL     1      70.404  68.223 108.743  0.00  0.00    +0.000 HD
ENDBRANCH  51  55
ENDBRANCH  44  45
ENDBRANCH  10  44
BRANCH  17  57
ATOM     57  O11 UNL     1      79.001  69.714 108.577  0.00  0.00    +0.000 OA
BRANCH  57  58
ATOM     58  C33 UNL     1      79.630  70.788 109.256  0.00  0.00    +0.000 C 
BRANCH  58  59
ATOM     59  O12 UNL     1      80.071  70.334 110.517  0.00  0.00    +0.000 OA
BRANCH  59  60
ATOM     60  C34 UNL     1      81.318  70.920 110.824  0.00  0.00    +0.000 C 
BRANCH  60  61
ATOM     61  C35 UNL     1      82.191  70.927 109.571  0.00  0.00    +0.000 C 
BRANCH  61  62
ATOM     62  O13 UNL     1      83.320  70.088 109.749  0.00  0.00    +0.000 OA
ATOM     63  C36 UNL     1      83.447  69.716 111.104  0.00  0.00    +0.000 C 
ENDBRANCH  61  62
ENDBRANCH  60  61
ENDBRANCH  59  60
ENDBRANCH  58  59
ENDBRANCH  57  58
ENDBRANCH  17  57
TORSDOF 18
ENDMDL
MODEL 5
REMARK VINA RESULT:      -5.9      2.327      6.346
REMARK  Name = ./S2506.pdb
REMARK  32 active torsions:
REMARK  status: ('A' for Active; 'I' for Inactive)
REMARK    1  A    between atoms: C1_1  and  C2_2
REMARK    2  A    between atoms: C2_2  and  C3_3
REMARK    3  A    between atoms: C5_7  and  C6_8
REMARK    4  A    between atoms: C7_9  and  O3_10
REMARK    5  A    between atoms: O3_10  and  C8_11
REMARK    6  A    between atoms: C10_13  and  C11_14
REMARK    7  A    between atoms: C10_13  and  O4_15
REMARK    8  A    between atoms: O4_15  and  C12_16
REMARK    9  A    between atoms: C13_17  and  O5_18
REMARK   10  A    between atoms: C14_19  and  C15_20
REMARK   11  A    between atoms: C16_22  and  C17_23
REMARK   12  A    between atoms: C18_24  and  O7_25
REMARK   13  A    between atoms: O7_25  and  C19_26
REMARK   14  A    between atoms: C20_28  and  C21_29
REMARK   15  A    between atoms: C23_31  and  N1_34
REMARK   16  A    between atoms: C24_32  and  O9_33
REMARK   17  A    between atoms: N1_34  and  C25_35
REMARK   18  A    between atoms: N1_34  and  C26_36
REMARK   19  A    between atoms: C27_37  and  C28_38
REMARK   20  A    between atoms: C27_37  and  O10_39
REMARK   21  A    between atoms: C30_41  and  C31_42
REMARK   22  A    between atoms: N2_44  and  O11_45
REMARK   23  A    between atoms: O11_45  and  C33_46
REMARK   24  A    between atoms: C33_46  and  O12_47
REMARK   25  A    between atoms: O12_47  and  C34_48
REMARK   26  A    between atoms: C34_48  and  C35_49
REMARK   27  A    between atoms: C35_49  and  O13_50
REMARK   28  A    between atoms: O13_50  and  C36_51
REMARK   29  A    between atoms: C37_52  and  C38_53
REMARK   30  A    between atoms: C39_54  and  O14_55
REMARK   31  A    between atoms: C40_56  and  C41_57
REMARK   32  A    between atoms: C40_56  and  O15_58
REMARK                            x       y       z     vdW  Elec       q    Type
REMARK                         _______ _______ _______ _____ _____    ______ ____
ROOT
ATOM      1  C3  UNL     1      72.012  67.378 107.454  0.00  0.00    +0.000 C 
ATOM      2  O1  UNL     1      73.355  66.976 107.145  0.00  0.00    +0.000 OA
ATOM      3  C4  UNL     1      74.345  66.753 108.112  0.00  0.00    +0.000 C 
ATOM      4  O2  UNL     1      74.180  67.159 109.295  0.00  0.00    +0.000 OA
ATOM      5  C5  UNL     1      75.633  66.060 107.727  0.00  0.00    +0.000 C 
ATOM      6  C6  UNL     1      76.761  67.102 107.728  0.00  0.00    +0.000 C 
ATOM      7  C7  UNL     1      75.872  64.831 108.663  0.00  0.00    +0.000 C 
ATOM      8  C16 UNL     1      76.976  63.791 108.243  0.00  0.00    +0.000 C 
ATOM      9  C17 UNL     1      78.406  64.365 108.331  0.00  0.00    +0.000 C 
ATOM     10  C18 UNL     1      76.789  62.990 106.899  0.00  0.00    +0.000 C 
ATOM     11  C27 UNL     1      75.549  62.003 106.788  0.00  0.00    +0.000 C 
ATOM     12  C28 UNL     1      75.185  61.376 108.163  0.00  0.00    +0.000 C 
ATOM     13  C29 UNL     1      74.324  62.733 106.146  0.00  0.00    +0.000 C 
ATOM     14  C30 UNL     1      72.928  62.048 106.205  0.00  0.00    +0.000 C 
ATOM     15  C31 UNL     1      72.972  60.642 105.555  0.00  0.00    +0.000 C 
ATOM     16  C32 UNL     1      71.824  62.913 105.552  0.00  0.00    +0.000 C 
ATOM     17  N2  UNL     1      70.977  62.321 104.758  0.00  0.00    +0.000 NA
ATOM     18  C37 UNL     1      71.647  64.417 105.849  0.00  0.00    +0.000 C 
ATOM     19  C38 UNL     1      72.621  65.208 104.951  0.00  0.00    +0.000 C 
ATOM     20  C39 UNL     1      71.675  64.729 107.389  0.00  0.00    +0.000 C 
ATOM     21  C40 UNL     1      71.099  66.134 107.840  0.00  0.00    +0.000 C 
ATOM     22  C41 UNL     1      70.962  66.124 109.391  0.00  0.00    +0.000 C 
ENDROOT
BRANCH   1  24
ATOM     23  C1  UNL     1      70.786  69.555 106.859  0.00  0.00    +0.000 C 
ATOM     24  C2  UNL     1      71.420  68.268 106.329  0.00  0.00    +0.000 C 
ENDBRANCH   1  24
BRANCH  11  25
ATOM     25  O10 UNL     1      75.901  60.961 105.906  0.00  0.00    +0.000 OA
ATOM     26  H51 UNL     1      76.496  60.325 106.387  0.00  0.00    +0.000 HD
ENDBRANCH  11  25
BRANCH  20  27
ATOM     27  O14 UNL     1      70.914  63.721 108.021  0.00  0.00    +0.000 OA
ATOM     28  H72 UNL     1      70.017  64.098 108.224  0.00  0.00    +0.000 HD
ENDBRANCH  20  27
BRANCH  21  29
ATOM     29  O15 UNL     1      69.805  66.268 107.292  0.00  0.00    +0.000 OA
ATOM     30  H76 UNL     1      69.636  65.490 106.697  0.00  0.00    +0.000 HD
ENDBRANCH  21  29
BRANCH   7  31
ATOM     31  O3  UNL     1      76.163  65.313 109.970  0.00  0.00    +0.000 OA
BRANCH  31  32
ATOM     32  C8  UNL     1      75.163  65.015 110.940  0.00  0.00    +0.000 C 
ATOM     33  C9  UNL     1      75.150  63.478 111.166  0.00  0.00    +0.000 C 
ATOM     34  C10 UNL     1      75.544  63.095 112.608  0.00  0.00    +0.000 C 
ATOM     35  C11 UNL     1      75.325  61.575 112.789  0.00  0.00    +0.000 C 
ATOM     36  C13 UNL     1      74.636  63.925 113.582  0.00  0.00    +0.000 C 
ATOM     37  C14 UNL     1      74.670  65.445 113.226  0.00  0.00    +0.000 C 
ATOM     38  C15 UNL     1      73.294  66.125 113.099  0.00  0.00    +0.000 C 
ATOM     39  O6  UNL     1      75.504  65.737 112.114  0.00  0.00    +0.000 OA
BRANCH  34  40
ATOM     40  O4  UNL     1      76.936  63.413 112.716  0.00  0.00    +0.000 OA
ATOM     41  C12 UNL     1      77.789  62.634 111.900  0.00  0.00    +0.000 C 
ENDBRANCH  34  40
BRANCH  36  42
ATOM     42  O5  UNL     1      73.318  63.419 113.651  0.00  0.00    +0.000 OA
ATOM     43  H22 UNL     1      73.185  62.777 112.906  0.00  0.00    +0.000 HD
ENDBRANCH  36  42
ENDBRANCH  31  32
ENDBRANCH   7  31
BRANCH  10  44
ATOM     44  O7  UNL     1      76.789  63.896 105.798  0.00  0.00    +0.000 OA
BRANCH  44  45
ATOM     45  C19 UNL     1      77.782  63.627 104.818  0.00  0.00    +0.000 C 
ATOM     46  O8  UNL     1      78.616  64.775 104.697  0.00  0.00    +0.000 OA
ATOM     47  C20 UNL     1      78.156  65.750 103.776  0.00  0.00    +0.000 C 
ATOM     48  C21 UNL     1      76.845  66.422 104.213  0.00  0.00    +0.000 C 
ATOM     49  C22 UNL     1      78.129  65.223 102.326  0.00  0.00    +0.000 C 
ATOM     50  C23 UNL     1      77.815  63.714 102.209  0.00  0.00    +0.000 C 
ATOM     51  C24 UNL     1      77.119  63.164 103.489  0.00  0.00    +0.000 C 
BRANCH  50  52
ATOM     52  N1  UNL     1      79.020  62.970 101.736  0.00  0.00    +0.000 NA
ATOM     53  C25 UNL     1      80.254  63.776 101.732  0.00  0.00    +0.000 C 
ATOM     54  C26 UNL     1      78.872  62.212 100.482  0.00  0.00    +0.000 C 
ENDBRANCH  50  52
BRANCH  51  55
ATOM     55  O9  UNL     1      77.029  61.763 103.458  0.00  0.00    +0.000 OA
ATOM     56  H41 UNL     1      76.355  61.501 104.141  0.00  0.00    +0.000 HD
ENDBRANCH  51  55
ENDBRANCH  44  45
ENDBRANCH  10  44
BRANCH  17  57
ATOM     57  O11 UNL     1      69.935  62.970 104.130  0.00  0.00    +0.000 OA
BRANCH  57  58
ATOM     58  C33 UNL     1      69.747  62.825 102.732  0.00  0.00    +0.000 C 
BRANCH  58  59
ATOM     59  O12 UNL     1      70.932  63.212 102.071  0.00  0.00    +0.000 OA
BRANCH  59  60
ATOM     60  C34 UNL     1      71.422  62.134 101.302  0.00  0.00    +0.000 C 
BRANCH  60  61
ATOM     61  C35 UNL     1      72.935  62.033 101.488  0.00  0.00    +0.000 C 
BRANCH  61  62
ATOM     62  O13 UNL     1      73.608  62.498 100.330  0.00  0.00    +0.000 OA
ATOM     63  C36 UNL     1      74.963  62.107 100.359  0.00  0.00    +0.000 C 
ENDBRANCH  61  62
ENDBRANCH  60  61
ENDBRANCH  59  60
ENDBRANCH  58  59
ENDBRANCH  57  58
ENDBRANCH  17  57
TORSDOF 18
ENDMDL
MODEL 6
REMARK VINA RESULT:      -5.8      4.688      9.348
REMARK  Name = ./S2506.pdb
REMARK  32 active torsions:
REMARK  status: ('A' for Active; 'I' for Inactive)
REMARK    1  A    between atoms: C1_1  and  C2_2
REMARK    2  A    between atoms: C2_2  and  C3_3
REMARK    3  A    between atoms: C5_7  and  C6_8
REMARK    4  A    between atoms: C7_9  and  O3_10
REMARK    5  A    between atoms: O3_10  and  C8_11
REMARK    6  A    between atoms: C10_13  and  C11_14
REMARK    7  A    between atoms: C10_13  and  O4_15
REMARK    8  A    between atoms: O4_15  and  C12_16
REMARK    9  A    between atoms: C13_17  and  O5_18
REMARK   10  A    between atoms: C14_19  and  C15_20
REMARK   11  A    between atoms: C16_22  and  C17_23
REMARK   12  A    between atoms: C18_24  and  O7_25
REMARK   13  A    between atoms: O7_25  and  C19_26
REMARK   14  A    between atoms: C20_28  and  C21_29
REMARK   15  A    between atoms: C23_31  and  N1_34
REMARK   16  A    between atoms: C24_32  and  O9_33
REMARK   17  A    between atoms: N1_34  and  C25_35
REMARK   18  A    between atoms: N1_34  and  C26_36
REMARK   19  A    between atoms: C27_37  and  C28_38
REMARK   20  A    between atoms: C27_37  and  O10_39
REMARK   21  A    between atoms: C30_41  and  C31_42
REMARK   22  A    between atoms: N2_44  and  O11_45
REMARK   23  A    between atoms: O11_45  and  C33_46
REMARK   24  A    between atoms: C33_46  and  O12_47
REMARK   25  A    between atoms: O12_47  and  C34_48
REMARK   26  A    between atoms: C34_48  and  C35_49
REMARK   27  A    between atoms: C35_49  and  O13_50
REMARK   28  A    between atoms: O13_50  and  C36_51
REMARK   29  A    between atoms: C37_52  and  C38_53
REMARK   30  A    between atoms: C39_54  and  O14_55
REMARK   31  A    between atoms: C40_56  and  C41_57
REMARK   32  A    between atoms: C40_56  and  O15_58
REMARK                            x       y       z     vdW  Elec       q    Type
REMARK                         _______ _______ _______ _____ _____    ______ ____
ROOT
ATOM      1  C3  UNL     1      73.382  62.943 107.013  0.00  0.00    +0.000 C 
ATOM      2  O1  UNL     1      73.588  62.903 105.593  0.00  0.00    +0.000 OA
ATOM      3  C4  UNL     1      74.733  63.401 104.956  0.00  0.00    +0.000 C 
ATOM      4  O2  UNL     1      75.526  64.160 105.578  0.00  0.00    +0.000 OA
ATOM      5  C5  UNL     1      74.997  63.063 103.506  0.00  0.00    +0.000 C 
ATOM      6  C6  UNL     1      74.754  64.324 102.664  0.00  0.00    +0.000 C 
ATOM      7  C7  UNL     1      76.424  62.441 103.360  0.00  0.00    +0.000 C 
ATOM      8  C16 UNL     1      76.781  61.731 102.002  0.00  0.00    +0.000 C 
ATOM      9  C17 UNL     1      76.893  62.717 100.820  0.00  0.00    +0.000 C 
ATOM     10  C18 UNL     1      75.958  60.456 101.576  0.00  0.00    +0.000 C 
ATOM     11  C27 UNL     1      76.059  59.164 102.496  0.00  0.00    +0.000 C 
ATOM     12  C28 UNL     1      77.455  59.041 103.168  0.00  0.00    +0.000 C 
ATOM     13  C29 UNL     1      74.908  59.156 103.554  0.00  0.00    +0.000 C 
ATOM     14  C30 UNL     1      74.981  58.141 104.732  0.00  0.00    +0.000 C 
ATOM     15  C31 UNL     1      75.084  56.688 104.207  0.00  0.00    +0.000 C 
ATOM     16  C32 UNL     1      73.783  58.284 105.702  0.00  0.00    +0.000 C 
ATOM     17  N2  UNL     1      73.195  57.193 106.107  0.00  0.00    +0.000 NA
ATOM     18  C37 UNL     1      73.302  59.642 106.251  0.00  0.00    +0.000 C 
ATOM     19  C38 UNL     1      72.369  60.287 105.205  0.00  0.00    +0.000 C 
ATOM     20  C39 UNL     1      74.486  60.520 106.796  0.00  0.00    +0.000 C 
ATOM     21  C40 UNL     1      74.098  61.727 107.746  0.00  0.00    +0.000 C 
ATOM     22  C41 UNL     1      75.407  62.277 108.385  0.00  0.00    +0.000 C 
ENDROOT
BRANCH   1  24
ATOM     23  C1  UNL     1      71.053  63.666 106.207  0.00  0.00    +0.000 C 
ATOM     24  C2  UNL     1      71.876  63.086 107.358  0.00  0.00    +0.000 C 
ENDBRANCH   1  24
BRANCH  11  25
ATOM     25  O10 UNL     1      75.859  58.033 101.679  0.00  0.00    +0.000 OA
ATOM     26  H51 UNL     1      76.194  58.239 100.764  0.00  0.00    +0.000 HD
ENDBRANCH  11  25
BRANCH  20  27
ATOM     27  O14 UNL     1      75.336  59.652 107.515  0.00  0.00    +0.000 OA
ATOM     28  H72 UNL     1      75.245  58.743 107.124  0.00  0.00    +0.000 HD
ENDBRANCH  20  27
BRANCH  21  29
ATOM     29  O15 UNL     1      73.290  61.217 108.786  0.00  0.00    +0.000 OA
ATOM     30  H76 UNL     1      72.633  60.585 108.389  0.00  0.00    +0.000 HD
ENDBRANCH  21  29
BRANCH   7  31
ATOM     31  O3  UNL     1      77.385  63.459 103.617  0.00  0.00    +0.000 OA
BRANCH  31  32
ATOM     32  C8  UNL     1      78.735  63.003 103.613  0.00  0.00    +0.000 C 
ATOM     33  C9  UNL     1      79.664  64.240 103.466  0.00  0.00    +0.000 C 
ATOM     34  C10 UNL     1      80.566  64.446 104.700  0.00  0.00    +0.000 C 
ATOM     35  C11 UNL     1      81.575  65.576 104.388  0.00  0.00    +0.000 C 
ATOM     36  C13 UNL     1      81.297  63.088 104.984  0.00  0.00    +0.000 C 
ATOM     37  C14 UNL     1      80.280  61.903 105.047  0.00  0.00    +0.000 C 
ATOM     38  C15 UNL     1      80.642  60.675 104.192  0.00  0.00    +0.000 C 
ATOM     39  O6  UNL     1      78.936  62.312 104.838  0.00  0.00    +0.000 OA
BRANCH  34  40
ATOM     40  O4  UNL     1      79.680  64.847 105.751  0.00  0.00    +0.000 OA
ATOM     41  C12 UNL     1      79.098  66.126 105.583  0.00  0.00    +0.000 C 
ENDBRANCH  34  40
BRANCH  36  42
ATOM     42  O5  UNL     1      82.349  62.842 104.074  0.00  0.00    +0.000 OA
ATOM     43  H22 UNL     1      83.081  63.489 104.253  0.00  0.00    +0.000 HD
ENDBRANCH  36  42
ENDBRANCH  31  32
ENDBRANCH   7  31
BRANCH  10  44
ATOM     44  O7  UNL     1      74.591  60.811 101.385  0.00  0.00    +0.000 OA
BRANCH  44  45
ATOM     45  C19 UNL     1      74.178  60.840 100.025  0.00  0.00    +0.000 C 
ATOM     46  O8  UNL     1      73.490  62.064  99.791  0.00  0.00    +0.000 OA
ATOM     47  C20 UNL     1      72.101  62.030 100.077  0.00  0.00    +0.000 C 
ATOM     48  C21 UNL     1      71.797  61.839 101.571  0.00  0.00    +0.000 C 
ATOM     49  C22 UNL     1      71.336  61.055  99.158  0.00  0.00    +0.000 C 
ATOM     50  C23 UNL     1      72.156  59.817  98.729  0.00  0.00    +0.000 C 
ATOM     51  C24 UNL     1      73.362  59.561  99.680  0.00  0.00    +0.000 C 
BRANCH  50  52
ATOM     52  N1  UNL     1      72.461  59.880  97.269  0.00  0.00    +0.000 NA
ATOM     53  C25 UNL     1      72.078  61.154  96.635  0.00  0.00    +0.000 C 
ATOM     54  C26 UNL     1      72.030  58.728  96.459  0.00  0.00    +0.000 C 
ENDBRANCH  50  52
BRANCH  51  55
ATOM     55  O9  UNL     1      74.214  58.571  99.166  0.00  0.00    +0.000 OA
ATOM     56  H41 UNL     1      74.898  58.385  99.865  0.00  0.00    +0.000 HD
ENDBRANCH  51  55
ENDBRANCH  44  45
ENDBRANCH  10  44
BRANCH  17  57
ATOM     57  O11 UNL     1      72.133  57.178 106.986  0.00  0.00    +0.000 OA
BRANCH  57  58
ATOM     58  C33 UNL     1      70.838  56.826 106.528  0.00  0.00    +0.000 C 
BRANCH  58  59
ATOM     59  O12 UNL     1      70.919  55.604 105.827  0.00  0.00    +0.000 OA
BRANCH  59  60
ATOM     60  C34 UNL     1      70.042  54.663 106.407  0.00  0.00    +0.000 C 
BRANCH  60  61
ATOM     61  C35 UNL     1      69.746  53.561 105.393  0.00  0.00    +0.000 C 
BRANCH  61  62
ATOM     62  O13 UNL     1      68.646  52.775 105.822  0.00  0.00    +0.000 OA
ATOM     63  C36 UNL     1      67.619  53.600 106.324  0.00  0.00    +0.000 C 
ENDBRANCH  61  62
ENDBRANCH  60  61
ENDBRANCH  59  60
ENDBRANCH  58  59
ENDBRANCH  57  58
ENDBRANCH  17  57
TORSDOF 18
ENDMDL
MODEL 7
REMARK VINA RESULT:      -5.8      3.288      8.016
REMARK  Name = ./S2506.pdb
REMARK  32 active torsions:
REMARK  status: ('A' for Active; 'I' for Inactive)
REMARK    1  A    between atoms: C1_1  and  C2_2
REMARK    2  A    between atoms: C2_2  and  C3_3
REMARK    3  A    between atoms: C5_7  and  C6_8
REMARK    4  A    between atoms: C7_9  and  O3_10
REMARK    5  A    between atoms: O3_10  and  C8_11
REMARK    6  A    between atoms: C10_13  and  C11_14
REMARK    7  A    between atoms: C10_13  and  O4_15
REMARK    8  A    between atoms: O4_15  and  C12_16
REMARK    9  A    between atoms: C13_17  and  O5_18
REMARK   10  A    between atoms: C14_19  and  C15_20
REMARK   11  A    between atoms: C16_22  and  C17_23
REMARK   12  A    between atoms: C18_24  and  O7_25
REMARK   13  A    between atoms: O7_25  and  C19_26
REMARK   14  A    between atoms: C20_28  and  C21_29
REMARK   15  A    between atoms: C23_31  and  N1_34
REMARK   16  A    between atoms: C24_32  and  O9_33
REMARK   17  A    between atoms: N1_34  and  C25_35
REMARK   18  A    between atoms: N1_34  and  C26_36
REMARK   19  A    between atoms: C27_37  and  C28_38
REMARK   20  A    between atoms: C27_37  and  O10_39
REMARK   21  A    between atoms: C30_41  and  C31_42
REMARK   22  A    between atoms: N2_44  and  O11_45
REMARK   23  A    between atoms: O11_45  and  C33_46
REMARK   24  A    between atoms: C33_46  and  O12_47
REMARK   25  A    between atoms: O12_47  and  C34_48
REMARK   26  A    between atoms: C34_48  and  C35_49
REMARK   27  A    between atoms: C35_49  and  O13_50
REMARK   28  A    between atoms: O13_50  and  C36_51
REMARK   29  A    between atoms: C37_52  and  C38_53
REMARK   30  A    between atoms: C39_54  and  O14_55
REMARK   31  A    between atoms: C40_56  and  C41_57
REMARK   32  A    between atoms: C40_56  and  O15_58
REMARK                            x       y       z     vdW  Elec       q    Type
REMARK                         _______ _______ _______ _____ _____    ______ ____
ROOT
ATOM      1  C3  UNL     1      72.425  62.239 104.185  0.00  0.00    +0.000 C 
ATOM      2  O1  UNL     1      73.730  62.831 104.110  0.00  0.00    +0.000 OA
ATOM      3  C4  UNL     1      73.961  64.213 104.091  0.00  0.00    +0.000 C 
ATOM      4  O2  UNL     1      73.012  65.012 103.863  0.00  0.00    +0.000 OA
ATOM      5  C5  UNL     1      75.361  64.747 104.302  0.00  0.00    +0.000 C 
ATOM      6  C6  UNL     1      75.881  65.282 102.960  0.00  0.00    +0.000 C 
ATOM      7  C7  UNL     1      75.358  65.788 105.469  0.00  0.00    +0.000 C 
ATOM      8  C16 UNL     1      76.747  66.229 106.063  0.00  0.00    +0.000 C 
ATOM      9  C17 UNL     1      77.584  67.068 105.074  0.00  0.00    +0.000 C 
ATOM     10  C18 UNL     1      77.651  65.143 106.761  0.00  0.00    +0.000 C 
ATOM     11  C27 UNL     1      77.095  64.448 108.077  0.00  0.00    +0.000 C 
ATOM     12  C28 UNL     1      76.199  65.412 108.905  0.00  0.00    +0.000 C 
ATOM     13  C29 UNL     1      76.341  63.126 107.721  0.00  0.00    +0.000 C 
ATOM     14  C30 UNL     1      75.477  62.438 108.817  0.00  0.00    +0.000 C 
ATOM     15  C31 UNL     1      76.324  62.117 110.073  0.00  0.00    +0.000 C 
ATOM     16  C32 UNL     1      74.778  61.160 108.293  0.00  0.00    +0.000 C 
ATOM     17  N2  UNL     1      74.800  60.100 109.052  0.00  0.00    +0.000 NA
ATOM     18  C37 UNL     1      74.010  61.108 106.957  0.00  0.00    +0.000 C 
ATOM     19  C38 UNL     1      75.027  60.863 105.822  0.00  0.00    +0.000 C 
ATOM     20  C39 UNL     1      73.021  62.317 106.787  0.00  0.00    +0.000 C 
ATOM     21  C40 UNL     1      71.896  62.166 105.683  0.00  0.00    +0.000 C 
ATOM     22  C41 UNL     1      70.876  63.328 105.872  0.00  0.00    +0.000 C 
ENDROOT
BRANCH   1  24
ATOM     23  C1  UNL     1      73.505  60.728 102.411  0.00  0.00    +0.000 C 
ATOM     24  C2  UNL     1      72.379  60.882 103.435  0.00  0.00    +0.000 C 
ENDBRANCH   1  24
BRANCH  11  25
ATOM     25  O10 UNL     1      78.199  64.078 108.871  0.00  0.00    +0.000 OA
ATOM     26  H51 UNL     1      78.713  63.373 108.393  0.00  0.00    +0.000 HD
ENDBRANCH  11  25
BRANCH  20  27
ATOM     27  O14 UNL     1      72.388  62.500 108.036  0.00  0.00    +0.000 OA
ATOM     28  H72 UNL     1      71.577  63.055 107.888  0.00  0.00    +0.000 HD
ENDBRANCH  20  27
BRANCH  21  29
ATOM     29  O15 UNL     1      71.216  60.951 105.920  0.00  0.00    +0.000 OA
ATOM     30  H76 UNL     1      71.846  60.202 105.745  0.00  0.00    +0.000 HD
ENDBRANCH  21  29
BRANCH   7  31
ATOM     31  O3  UNL     1      74.652  66.945 105.034  0.00  0.00    +0.000 OA
BRANCH  31  32
ATOM     32  C8  UNL     1      74.346  67.868 106.076  0.00  0.00    +0.000 C 
ATOM     33  C9  UNL     1      73.128  68.721 105.625  0.00  0.00    +0.000 C 
ATOM     34  C10 UNL     1      71.895  68.506 106.528  0.00  0.00    +0.000 C 
ATOM     35  C11 UNL     1      70.805  69.523 106.120  0.00  0.00    +0.000 C 
ATOM     36  C13 UNL     1      72.353  68.721 108.013  0.00  0.00    +0.000 C 
ATOM     37  C14 UNL     1      73.621  67.870 108.341  0.00  0.00    +0.000 C 
ATOM     38  C15 UNL     1      74.776  68.635 109.011  0.00  0.00    +0.000 C 
ATOM     39  O6  UNL     1      74.073  67.097 107.237  0.00  0.00    +0.000 OA
BRANCH  34  40
ATOM     40  O4  UNL     1      71.457  67.170 106.254  0.00  0.00    +0.000 OA
ATOM     41  C12 UNL     1      70.610  66.610 107.238  0.00  0.00    +0.000 C 
ENDBRANCH  34  40
BRANCH  36  42
ATOM     42  O5  UNL     1      72.529  70.087 108.329  0.00  0.00    +0.000 OA
ATOM     43  H22 UNL     1      73.172  70.482 107.685  0.00  0.00    +0.000 HD
ENDBRANCH  36  42
ENDBRANCH  31  32
ENDBRANCH   7  31
BRANCH  10  44
ATOM     44  O7  UNL     1      78.027  64.151 105.809  0.00  0.00    +0.000 OA
BRANCH  44  45
ATOM     45  C19 UNL     1      79.420  64.106 105.529  0.00  0.00    +0.000 C 
ATOM     46  O8  UNL     1      79.598  64.207 104.121  0.00  0.00    +0.000 OA
ATOM     47  C20 UNL     1      79.550  62.973 103.425  0.00  0.00    +0.000 C 
ATOM     48  C21 UNL     1      78.165  62.309 103.466  0.00  0.00    +0.000 C 
ATOM     49  C22 UNL     1      80.703  62.028 103.823  0.00  0.00    +0.000 C 
ATOM     50  C23 UNL     1      81.153  62.167 105.295  0.00  0.00    +0.000 C 
ATOM     51  C24 UNL     1      80.061  62.843 106.175  0.00  0.00    +0.000 C 
BRANCH  50  52
ATOM     52  N1  UNL     1      82.522  62.759 105.363  0.00  0.00    +0.000 NA
ATOM     53  C25 UNL     1      83.022  63.255 104.068  0.00  0.00    +0.000 C 
ATOM     54  C26 UNL     1      83.546  61.964 106.063  0.00  0.00    +0.000 C 
ENDBRANCH  50  52
BRANCH  51  55
ATOM     55  O9  UNL     1      80.556  63.154 107.451  0.00  0.00    +0.000 OA
ATOM     56  H41 UNL     1      81.439  63.594 107.320  0.00  0.00    +0.000 HD
ENDBRANCH  51  55
ENDBRANCH  44  45
ENDBRANCH  10  44
BRANCH  17  57
ATOM     57  O11 UNL     1      74.198  58.906 108.716  0.00  0.00    +0.000 OA
BRANCH  57  58
ATOM     58  C33 UNL     1      72.862  58.647 109.113  0.00  0.00    +0.000 C 
BRANCH  58  59
ATOM     59  O12 UNL     1      72.020  58.773 107.987  0.00  0.00    +0.000 OA
BRANCH  59  60
ATOM     60  C34 UNL     1      71.942  57.536 107.311  0.00  0.00    +0.000 C 
BRANCH  60  61
ATOM     61  C35 UNL     1      72.507  57.698 105.902  0.00  0.00    +0.000 C 
BRANCH  61  62
ATOM     62  O13 UNL     1      73.811  57.148 105.825  0.00  0.00    +0.000 OA
ATOM     63  C36 UNL     1      74.349  57.339 104.535  0.00  0.00    +0.000 C 
ENDBRANCH  61  62
ENDBRANCH  60  61
ENDBRANCH  59  60
ENDBRANCH  58  59
ENDBRANCH  57  58
ENDBRANCH  17  57
TORSDOF 18
ENDMDL
MODEL 8
REMARK VINA RESULT:      -5.8      3.857      9.210
REMARK  Name = ./S2506.pdb
REMARK  32 active torsions:
REMARK  status: ('A' for Active; 'I' for Inactive)
REMARK    1  A    between atoms: C1_1  and  C2_2
REMARK    2  A    between atoms: C2_2  and  C3_3
REMARK    3  A    between atoms: C5_7  and  C6_8
REMARK    4  A    between atoms: C7_9  and  O3_10
REMARK    5  A    between atoms: O3_10  and  C8_11
REMARK    6  A    between atoms: C10_13  and  C11_14
REMARK    7  A    between atoms: C10_13  and  O4_15
REMARK    8  A    between atoms: O4_15  and  C12_16
REMARK    9  A    between atoms: C13_17  and  O5_18
REMARK   10  A    between atoms: C14_19  and  C15_20
REMARK   11  A    between atoms: C16_22  and  C17_23
REMARK   12  A    between atoms: C18_24  and  O7_25
REMARK   13  A    between atoms: O7_25  and  C19_26
REMARK   14  A    between atoms: C20_28  and  C21_29
REMARK   15  A    between atoms: C23_31  and  N1_34
REMARK   16  A    between atoms: C24_32  and  O9_33
REMARK   17  A    between atoms: N1_34  and  C25_35
REMARK   18  A    between atoms: N1_34  and  C26_36
REMARK   19  A    between atoms: C27_37  and  C28_38
REMARK   20  A    between atoms: C27_37  and  O10_39
REMARK   21  A    between atoms: C30_41  and  C31_42
REMARK   22  A    between atoms: N2_44  and  O11_45
REMARK   23  A    between atoms: O11_45  and  C33_46
REMARK   24  A    between atoms: C33_46  and  O12_47
REMARK   25  A    between atoms: O12_47  and  C34_48
REMARK   26  A    between atoms: C34_48  and  C35_49
REMARK   27  A    between atoms: C35_49  and  O13_50
REMARK   28  A    between atoms: O13_50  and  C36_51
REMARK   29  A    between atoms: C37_52  and  C38_53
REMARK   30  A    between atoms: C39_54  and  O14_55
REMARK   31  A    between atoms: C40_56  and  C41_57
REMARK   32  A    between atoms: C40_56  and  O15_58
REMARK                            x       y       z     vdW  Elec       q    Type
REMARK                         _______ _______ _______ _____ _____    ______ ____
ROOT
ATOM      1  C3  UNL     1      74.088  59.200 107.607  0.00  0.00    +0.000 C 
ATOM      2  O1  UNL     1      74.952  59.715 106.583  0.00  0.00    +0.000 OA
ATOM      3  C4  UNL     1      75.549  58.923 105.594  0.00  0.00    +0.000 C 
ATOM      4  O2  UNL     1      75.576  57.668 105.715  0.00  0.00    +0.000 OA
ATOM      5  C5  UNL     1      76.203  59.577 104.396  0.00  0.00    +0.000 C 
ATOM      6  C6  UNL     1      77.725  59.432 104.537  0.00  0.00    +0.000 C 
ATOM      7  C7  UNL     1      75.605  58.983 103.079  0.00  0.00    +0.000 C 
ATOM      8  C16 UNL     1      75.908  59.735 101.730  0.00  0.00    +0.000 C 
ATOM      9  C17 UNL     1      77.391  59.645 101.312  0.00  0.00    +0.000 C 
ATOM     10  C18 UNL     1      75.377  61.208 101.549  0.00  0.00    +0.000 C 
ATOM     11  C27 UNL     1      73.804  61.436 101.543  0.00  0.00    +0.000 C 
ATOM     12  C28 UNL     1      73.046  60.220 100.938  0.00  0.00    +0.000 C 
ATOM     13  C29 UNL     1      73.294  61.772 102.983  0.00  0.00    +0.000 C 
ATOM     14  C30 UNL     1      71.763  61.750 103.259  0.00  0.00    +0.000 C 
ATOM     15  C31 UNL     1      71.013  62.715 102.308  0.00  0.00    +0.000 C 
ATOM     16  C32 UNL     1      71.431  62.077 104.735  0.00  0.00    +0.000 C 
ATOM     17  N2  UNL     1      70.455  62.908 104.970  0.00  0.00    +0.000 NA
ATOM     18  C37 UNL     1      72.156  61.418 105.927  0.00  0.00    +0.000 C 
ATOM     19  C38 UNL     1      73.468  62.189 106.184  0.00  0.00    +0.000 C 
ATOM     20  C39 UNL     1      72.257  59.857 105.777  0.00  0.00    +0.000 C 
ATOM     21  C40 UNL     1      72.593  59.037 107.089  0.00  0.00    +0.000 C 
ATOM     22  C41 UNL     1      72.370  57.526 106.783  0.00  0.00    +0.000 C 
ENDROOT
BRANCH   1  24
ATOM     23  C1  UNL     1      75.396  60.994 108.898  0.00  0.00    +0.000 C 
ATOM     24  C2  UNL     1      74.214  60.023 108.916  0.00  0.00    +0.000 C 
ENDBRANCH   1  24
BRANCH  11  25
ATOM     25  O10 UNL     1      73.533  62.567 100.748  0.00  0.00    +0.000 OA
ATOM     26  H51 UNL     1      72.727  62.381 100.194  0.00  0.00    +0.000 HD
ENDBRANCH  11  25
BRANCH  20  27
ATOM     27  O14 UNL     1      71.007  59.415 105.292  0.00  0.00    +0.000 OA
ATOM     28  H72 UNL     1      71.157  58.575 104.783  0.00  0.00    +0.000 HD
ENDBRANCH  20  27
BRANCH  21  29
ATOM     29  O15 UNL     1      71.669  59.417 108.086  0.00  0.00    +0.000 OA
ATOM     30  H76 UNL     1      71.355  60.339 107.885  0.00  0.00    +0.000 HD
ENDBRANCH  21  29
BRANCH   7  31
ATOM     31  O3  UNL     1      76.035  57.631 102.961  0.00  0.00    +0.000 OA
BRANCH  31  32
ATOM     32  C8  UNL     1      75.184  56.815 102.162  0.00  0.00    +0.000 C 
ATOM     33  C9  UNL     1      75.816  55.398 102.072  0.00  0.00    +0.000 C 
ATOM     34  C10 UNL     1      74.927  54.318 102.722  0.00  0.00    +0.000 C 
ATOM     35  C11 UNL     1      75.542  52.931 102.423  0.00  0.00    +0.000 C 
ATOM     36  C13 UNL     1      73.491  54.453 102.105  0.00  0.00    +0.000 C 
ATOM     37  C14 UNL     1      72.979  55.926 102.186  0.00  0.00    +0.000 C 
ATOM     38  C15 UNL     1      72.421  56.506 100.874  0.00  0.00    +0.000 C 
ATOM     39  O6  UNL     1      73.913  56.806 102.795  0.00  0.00    +0.000 OA
BRANCH  34  40
ATOM     40  O4  UNL     1      74.971  54.588 104.127  0.00  0.00    +0.000 OA
ATOM     41  C12 UNL     1      76.230  54.376 104.734  0.00  0.00    +0.000 C 
ENDBRANCH  34  40
BRANCH  36  42
ATOM     42  O5  UNL     1      73.418  53.932 100.793  0.00  0.00    +0.000 OA
ATOM     43  H22 UNL     1      73.943  54.519 100.189  0.00  0.00    +0.000 HD
ENDBRANCH  36  42
ENDBRANCH  31  32
ENDBRANCH   7  31
BRANCH  10  44
ATOM     44  O7  UNL     1      75.987  62.059 102.517  0.00  0.00    +0.000 OA
BRANCH  44  45
ATOM     45  C19 UNL     1      76.870  63.029 101.970  0.00  0.00    +0.000 C 
ATOM     46  O8  UNL     1      78.136  62.893 102.607  0.00  0.00    +0.000 OA
ATOM     47  C20 UNL     1      78.280  63.629 103.809  0.00  0.00    +0.000 C 
ATOM     48  C21 UNL     1      77.364  63.128 104.938  0.00  0.00    +0.000 C 
ATOM     49  C22 UNL     1      78.203  65.153 103.579  0.00  0.00    +0.000 C 
ATOM     50  C23 UNL     1      77.265  65.569 102.423  0.00  0.00    +0.000 C 
ATOM     51  C24 UNL     1      76.242  64.449 102.072  0.00  0.00    +0.000 C 
BRANCH  50  52
ATOM     52  N1  UNL     1      78.060  66.124 101.287  0.00  0.00    +0.000 NA
ATOM     53  C25 UNL     1      79.517  65.971 101.449  0.00  0.00    +0.000 C 
ATOM     54  C26 UNL     1      77.711  67.485 100.846  0.00  0.00    +0.000 C 
ENDBRANCH  50  52
BRANCH  51  55
ATOM     55  O9  UNL     1      75.541  64.751 100.893  0.00  0.00    +0.000 OA
ATOM     56  H41 UNL     1      75.377  65.733 100.898  0.00  0.00    +0.000 HD
ENDBRANCH  51  55
ENDBRANCH  44  45
ENDBRANCH  10  44
BRANCH  17  57
ATOM     57  O11 UNL     1      70.043  63.268 106.236  0.00  0.00    +0.000 OA
BRANCH  57  58
ATOM     58  C33 UNL     1      70.542  64.452 106.835  0.00  0.00    +0.000 C 
BRANCH  58  59
ATOM     59  O12 UNL     1      71.170  64.116 108.053  0.00  0.00    +0.000 OA
BRANCH  59  60
ATOM     60  C34 UNL     1      71.163  65.233 108.916  0.00  0.00    +0.000 C 
BRANCH  60  61
ATOM     61  C35 UNL     1      70.509  66.414 108.202  0.00  0.00    +0.000 C 
BRANCH  61  62
ATOM     62  O13 UNL     1      71.294  67.584 108.359  0.00  0.00    +0.000 OA
ATOM     63  C36 UNL     1      70.535  68.731 108.045  0.00  0.00    +0.000 C 
ENDBRANCH  61  62
ENDBRANCH  60  61
ENDBRANCH  59  60
ENDBRANCH  58  59
ENDBRANCH  57  58
ENDBRANCH  17  57
TORSDOF 18
ENDMDL
MODEL 9
REMARK VINA RESULT:      -5.7      5.774     11.624
REMARK  Name = ./S2506.pdb
REMARK  32 active torsions:
REMARK  status: ('A' for Active; 'I' for Inactive)
REMARK    1  A    between atoms: C1_1  and  C2_2
REMARK    2  A    between atoms: C2_2  and  C3_3
REMARK    3  A    between atoms: C5_7  and  C6_8
REMARK    4  A    between atoms: C7_9  and  O3_10
REMARK    5  A    between atoms: O3_10  and  C8_11
REMARK    6  A    between atoms: C10_13  and  C11_14
REMARK    7  A    between atoms: C10_13  and  O4_15
REMARK    8  A    between atoms: O4_15  and  C12_16
REMARK    9  A    between atoms: C13_17  and  O5_18
REMARK   10  A    between atoms: C14_19  and  C15_20
REMARK   11  A    between atoms: C16_22  and  C17_23
REMARK   12  A    between atoms: C18_24  and  O7_25
REMARK   13  A    between atoms: O7_25  and  C19_26
REMARK   14  A    between atoms: C20_28  and  C21_29
REMARK   15  A    between atoms: C23_31  and  N1_34
REMARK   16  A    between atoms: C24_32  and  O9_33
REMARK   17  A    between atoms: N1_34  and  C25_35
REMARK   18  A    between atoms: N1_34  and  C26_36
REMARK   19  A    between atoms: C27_37  and  C28_38
REMARK   20  A    between atoms: C27_37  and  O10_39
REMARK   21  A    between atoms: C30_41  and  C31_42
REMARK   22  A    between atoms: N2_44  and  O11_45
REMARK   23  A    between atoms: O11_45  and  C33_46
REMARK   24  A    between atoms: C33_46  and  O12_47
REMARK   25  A    between atoms: O12_47  and  C34_48
REMARK   26  A    between atoms: C34_48  and  C35_49
REMARK   27  A    between atoms: C35_49  and  O13_50
REMARK   28  A    between atoms: O13_50  and  C36_51
REMARK   29  A    between atoms: C37_52  and  C38_53
REMARK   30  A    between atoms: C39_54  and  O14_55
REMARK   31  A    between atoms: C40_56  and  C41_57
REMARK   32  A    between atoms: C40_56  and  O15_58
REMARK                            x       y       z     vdW  Elec       q    Type
REMARK                         _______ _______ _______ _____ _____    ______ ____
ROOT
ATOM      1  C3  UNL     1      78.565  63.443 118.398  0.00  0.00    +0.000 C 
ATOM      2  O1  UNL     1      78.082  63.606 117.057  0.00  0.00    +0.000 OA
ATOM      3  C4  UNL     1      78.302  62.677 116.030  0.00  0.00    +0.000 C 
ATOM      4  O2  UNL     1      79.173  61.775 116.166  0.00  0.00    +0.000 OA
ATOM      5  C5  UNL     1      77.523  62.782 114.738  0.00  0.00    +0.000 C 
ATOM      6  C6  UNL     1      78.476  63.271 113.638  0.00  0.00    +0.000 C 
ATOM      7  C7  UNL     1      76.813  61.422 114.437  0.00  0.00    +0.000 C 
ATOM      8  C16 UNL     1      75.704  61.403 113.321  0.00  0.00    +0.000 C 
ATOM      9  C17 UNL     1      76.274  61.627 111.904  0.00  0.00    +0.000 C 
ATOM     10  C18 UNL     1      74.404  62.269 113.530  0.00  0.00    +0.000 C 
ATOM     11  C27 UNL     1      73.453  61.898 114.748  0.00  0.00    +0.000 C 
ATOM     12  C28 UNL     1      73.469  60.373 115.050  0.00  0.00    +0.000 C 
ATOM     13  C29 UNL     1      73.828  62.739 116.012  0.00  0.00    +0.000 C 
ATOM     14  C30 UNL     1      73.220  62.337 117.387  0.00  0.00    +0.000 C 
ATOM     15  C31 UNL     1      71.672  62.327 117.328  0.00  0.00    +0.000 C 
ATOM     16  C32 UNL     1      73.714  63.251 118.534  0.00  0.00    +0.000 C 
ATOM     17  N2  UNL     1      72.831  63.682 119.391  0.00  0.00    +0.000 NA
ATOM     18  C37 UNL     1      75.198  63.616 118.740  0.00  0.00    +0.000 C 
ATOM     19  C38 UNL     1      75.539  64.805 117.816  0.00  0.00    +0.000 C 
ATOM     20  C39 UNL     1      76.139  62.359 118.670  0.00  0.00    +0.000 C 
ATOM     21  C40 UNL     1      77.596  62.527 119.266  0.00  0.00    +0.000 C 
ATOM     22  C41 UNL     1      78.247  61.115 119.351  0.00  0.00    +0.000 C 
ENDROOT
BRANCH   1  24
ATOM     23  C1  UNL     1      80.376  65.015 119.316  0.00  0.00    +0.000 C 
ATOM     24  C2  UNL     1      78.884  64.815 119.051  0.00  0.00    +0.000 C 
ENDBRANCH   1  24
BRANCH  11  25
ATOM     25  O10 UNL     1      72.138  62.266 114.398  0.00  0.00    +0.000 OA
ATOM     26  H51 UNL     1      71.774  62.861 115.108  0.00  0.00    +0.000 HD
ENDBRANCH  11  25
BRANCH  20  27
ATOM     27  O14 UNL     1      75.490  61.327 119.383  0.00  0.00    +0.000 OA
ATOM     28  H72 UNL     1      75.454  60.527 118.795  0.00  0.00    +0.000 HD
ENDBRANCH  20  27
BRANCH  21  29
ATOM     29  O15 UNL     1      77.471  63.026 120.581  0.00  0.00    +0.000 OA
ATOM     30  H76 UNL     1      76.775  63.736 120.580  0.00  0.00    +0.000 HD
ENDBRANCH  21  29
BRANCH   7  31
ATOM     31  O3  UNL     1      77.810  60.458 114.115  0.00  0.00    +0.000 OA
BRANCH  31  32
ATOM     32  C8  UNL     1      77.432  59.113 114.389  0.00  0.00    +0.000 C 
ATOM     33  C9  UNL     1      78.699  58.220 114.275  0.00  0.00    +0.000 C 
ATOM     34  C10 UNL     1      79.071  57.558 115.618  0.00  0.00    +0.000 C 
ATOM     35  C11 UNL     1      80.221  56.554 115.368  0.00  0.00    +0.000 C 
ATOM     36  C13 UNL     1      77.789  56.836 116.161  0.00  0.00    +0.000 C 
ATOM     37  C14 UNL     1      76.561  57.802 116.171  0.00  0.00    +0.000 C 
ATOM     38  C15 UNL     1      75.279  57.249 115.521  0.00  0.00    +0.000 C 
ATOM     39  O6  UNL     1      76.873  59.103 115.694  0.00  0.00    +0.000 OA
BRANCH  34  40
ATOM     40  O4  UNL     1      79.521  58.629 116.455  0.00  0.00    +0.000 OA
ATOM     41  C12 UNL     1      79.988  58.232 117.730  0.00  0.00    +0.000 C 
ENDBRANCH  34  40
BRANCH  36  42
ATOM     42  O5  UNL     1      77.518  55.632 115.474  0.00  0.00    +0.000 OA
ATOM     43  H22 UNL     1      78.101  55.585 114.672  0.00  0.00    +0.000 HD
ENDBRANCH  36  42
ENDBRANCH  31  32
ENDBRANCH   7  31
BRANCH  10  44
ATOM     44  O7  UNL     1      74.754  63.650 113.590  0.00  0.00    +0.000 OA
BRANCH  44  45
ATOM     45  C19 UNL     1      74.492  64.373 112.395  0.00  0.00    +0.000 C 
ATOM     46  O8  UNL     1      75.529  65.331 112.214  0.00  0.00    +0.000 OA
ATOM     47  C20 UNL     1      75.309  66.574 112.860  0.00  0.00    +0.000 C 
ATOM     48  C21 UNL     1      75.315  66.468 114.393  0.00  0.00    +0.000 C 
ATOM     49  C22 UNL     1      74.084  67.322 112.295  0.00  0.00    +0.000 C 
ATOM     50  C23 UNL     1      72.948  66.394 111.808  0.00  0.00    +0.000 C 
ATOM     51  C24 UNL     1      73.055  64.970 112.428  0.00  0.00    +0.000 C 
BRANCH  50  52
ATOM     52  N1  UNL     1      72.823  66.466 110.322  0.00  0.00    +0.000 NA
ATOM     53  C25 UNL     1      73.842  67.314 109.679  0.00  0.00    +0.000 C 
ATOM     54  C26 UNL     1      71.478  66.748 109.791  0.00  0.00    +0.000 C 
ENDBRANCH  50  52
BRANCH  51  55
ATOM     55  O9  UNL     1      72.151  64.082 111.822  0.00  0.00    +0.000 OA
ATOM     56  H41 UNL     1      72.483  63.161 112.005  0.00  0.00    +0.000 HD
ENDBRANCH  51  55
ENDBRANCH  44  45
ENDBRANCH  10  44
BRANCH  17  57
ATOM     57  O11 UNL     1      73.140  64.484 120.470  0.00  0.00    +0.000 OA
BRANCH  57  58
ATOM     58  C33 UNL     1      72.639  65.808 120.536  0.00  0.00    +0.000 C 
BRANCH  58  59
ATOM     59  O12 UNL     1      71.428  65.874 119.815  0.00  0.00    +0.000 OA
BRANCH  59  60
ATOM     60  C34 UNL     1      71.407  67.045 119.027  0.00  0.00    +0.000 C 
BRANCH  60  61
ATOM     61  C35 UNL     1      72.721  67.155 118.256  0.00  0.00    +0.000 C 
BRANCH  61  62
ATOM     62  O13 UNL     1      72.909  68.478 117.783  0.00  0.00    +0.000 OA
ATOM     63  C36 UNL     1      72.935  68.497 116.374  0.00  0.00    +0.000 C 
ENDBRANCH  61  62
ENDBRANCH  60  61
ENDBRANCH  59  60
ENDBRANCH  58  59
ENDBRANCH  57  58
ENDBRANCH  17  57
TORSDOF 18
ENDMDL
MODEL 10
REMARK VINA RESULT:      -5.7      4.799      9.225
REMARK  Name = ./S2506.pdb
REMARK  32 active torsions:
REMARK  status: ('A' for Active; 'I' for Inactive)
REMARK    1  A    between atoms: C1_1  and  C2_2
REMARK    2  A    between atoms: C2_2  and  C3_3
REMARK    3  A    between atoms: C5_7  and  C6_8
REMARK    4  A    between atoms: C7_9  and  O3_10
REMARK    5  A    between atoms: O3_10  and  C8_11
REMARK    6  A    between atoms: C10_13  and  C11_14
REMARK    7  A    between atoms: C10_13  and  O4_15
REMARK    8  A    between atoms: O4_15  and  C12_16
REMARK    9  A    between atoms: C13_17  and  O5_18
REMARK   10  A    between atoms: C14_19  and  C15_20
REMARK   11  A    between atoms: C16_22  and  C17_23
REMARK   12  A    between atoms: C18_24  and  O7_25
REMARK   13  A    between atoms: O7_25  and  C19_26
REMARK   14  A    between atoms: C20_28  and  C21_29
REMARK   15  A    between atoms: C23_31  and  N1_34
REMARK   16  A    between atoms: C24_32  and  O9_33
REMARK   17  A    between atoms: N1_34  and  C25_35
REMARK   18  A    between atoms: N1_34  and  C26_36
REMARK   19  A    between atoms: C27_37  and  C28_38
REMARK   20  A    between atoms: C27_37  and  O10_39
REMARK   21  A    between atoms: C30_41  and  C31_42
REMARK   22  A    between atoms: N2_44  and  O11_45
REMARK   23  A    between atoms: O11_45  and  C33_46
REMARK   24  A    between atoms: C33_46  and  O12_47
REMARK   25  A    between atoms: O12_47  and  C34_48
REMARK   26  A    between atoms: C34_48  and  C35_49
REMARK   27  A    between atoms: C35_49  and  O13_50
REMARK   28  A    between atoms: O13_50  and  C36_51
REMARK   29  A    between atoms: C37_52  and  C38_53
REMARK   30  A    between atoms: C39_54  and  O14_55
REMARK   31  A    between atoms: C40_56  and  C41_57
REMARK   32  A    between atoms: C40_56  and  O15_58
REMARK                            x       y       z     vdW  Elec       q    Type
REMARK                         _______ _______ _______ _____ _____    ______ ____
ROOT
ATOM      1  C3  UNL     1      73.271  62.807 106.956  0.00  0.00    +0.000 C 
ATOM      2  O1  UNL     1      73.529  62.807 105.544  0.00  0.00    +0.000 OA
ATOM      3  C4  UNL     1      74.695  63.323 104.964  0.00  0.00    +0.000 C 
ATOM      4  O2  UNL     1      75.464  64.066 105.635  0.00  0.00    +0.000 OA
ATOM      5  C5  UNL     1      75.014  63.025 103.515  0.00  0.00    +0.000 C 
ATOM      6  C6  UNL     1      74.799  64.308 102.699  0.00  0.00    +0.000 C 
ATOM      7  C7  UNL     1      76.446  62.408 103.405  0.00  0.00    +0.000 C 
ATOM      8  C16 UNL     1      76.854  61.736 102.042  0.00  0.00    +0.000 C 
ATOM      9  C17 UNL     1      77.007  62.754 100.892  0.00  0.00    +0.000 C 
ATOM     10  C18 UNL     1      76.050  60.472 101.551  0.00  0.00    +0.000 C 
ATOM     11  C27 UNL     1      76.119  59.156 102.439  0.00  0.00    +0.000 C 
ATOM     12  C28 UNL     1      77.490  59.016 103.159  0.00  0.00    +0.000 C 
ATOM     13  C29 UNL     1      74.930  59.118 103.454  0.00  0.00    +0.000 C 
ATOM     14  C30 UNL     1      74.962  58.072 104.606  0.00  0.00    +0.000 C 
ATOM     15  C31 UNL     1      75.088  56.633 104.046  0.00  0.00    +0.000 C 
ATOM     16  C32 UNL     1      73.729  58.187 105.534  0.00  0.00    +0.000 C 
ATOM     17  N2  UNL     1      73.129  57.085 105.888  0.00  0.00    +0.000 NA
ATOM     18  C37 UNL     1      73.226  59.529 106.102  0.00  0.00    +0.000 C 
ATOM     19  C38 UNL     1      72.330  60.201 105.040  0.00  0.00    +0.000 C 
ATOM     20  C39 UNL     1      74.387  60.393 106.714  0.00  0.00    +0.000 C 
ATOM     21  C40 UNL     1      73.962  61.573 107.681  0.00  0.00    +0.000 C 
ATOM     22  C41 UNL     1      75.246  62.107 108.383  0.00  0.00    +0.000 C 
ENDROOT
BRANCH   1  24
ATOM     23  C1  UNL     1      70.968  63.531 106.077  0.00  0.00    +0.000 C 
ATOM     24  C2  UNL     1      71.753  62.939 107.249  0.00  0.00    +0.000 C 
ENDBRANCH   1  24
BRANCH  11  25
ATOM     25  O10 UNL     1      75.952  58.048 101.585  0.00  0.00    +0.000 OA
ATOM     26  H51 UNL     1      75.000  58.007 101.299  0.00  0.00    +0.000 HD
ENDBRANCH  11  25
BRANCH  20  27
ATOM     27  O14 UNL     1      75.212  59.506 107.440  0.00  0.00    +0.000 OA
ATOM     28  H72 UNL     1      76.105  59.931 107.536  0.00  0.00    +0.000 HD
ENDBRANCH  20  27
BRANCH  21  29
ATOM     29  O15 UNL     1      73.118  61.034 108.677  0.00  0.00    +0.000 OA
ATOM     30  H76 UNL     1      73.179  60.042 108.634  0.00  0.00    +0.000 HD
ENDBRANCH  21  29
BRANCH   7  31
ATOM     31  O3  UNL     1      77.395  63.420 103.725  0.00  0.00    +0.000 OA
BRANCH  31  32
ATOM     32  C8  UNL     1      78.271  63.083 104.797  0.00  0.00    +0.000 C 
ATOM     33  C9  UNL     1      79.277  62.017 104.284  0.00  0.00    +0.000 C 
ATOM     34  C10 UNL     1      80.733  62.529 104.300  0.00  0.00    +0.000 C 
ATOM     35  C11 UNL     1      81.671  61.350 103.953  0.00  0.00    +0.000 C 
ATOM     36  C13 UNL     1      81.021  63.088 105.736  0.00  0.00    +0.000 C 
ATOM     37  C14 UNL     1      79.916  64.099 106.180  0.00  0.00    +0.000 C 
ATOM     38  C15 UNL     1      79.313  63.849 107.575  0.00  0.00    +0.000 C 
ATOM     39  O6  UNL     1      78.908  64.287 105.198  0.00  0.00    +0.000 OA
BRANCH  34  40
ATOM     40  O4  UNL     1      80.792  63.529 103.276  0.00  0.00    +0.000 OA
ATOM     41  C12 UNL     1      81.871  63.392 102.373  0.00  0.00    +0.000 C 
ENDBRANCH  34  40
BRANCH  36  42
ATOM     42  O5  UNL     1      81.218  62.059 106.685  0.00  0.00    +0.000 OA
ATOM     43  H22 UNL     1      81.551  62.463 107.528  0.00  0.00    +0.000 HD
ENDBRANCH  36  42
ENDBRANCH  31  32
ENDBRANCH   7  31
BRANCH  10  44
ATOM     44  O7  UNL     1      74.690  60.832 101.320  0.00  0.00    +0.000 OA
BRANCH  44  45
ATOM     45  C19 UNL     1      74.304  60.811  99.952  0.00  0.00    +0.000 C 
ATOM     46  O8  UNL     1      73.620  62.025  99.661  0.00  0.00    +0.000 OA
ATOM     47  C20 UNL     1      72.227  62.001  99.921  0.00  0.00    +0.000 C 
ATOM     48  C21 UNL     1      71.893  61.863 101.415  0.00  0.00    +0.000 C 
ATOM     49  C22 UNL     1      71.479  60.993  99.023  0.00  0.00    +0.000 C 
ATOM     50  C23 UNL     1      72.307  59.741  98.655  0.00  0.00    +0.000 C 
ATOM     51  C24 UNL     1      73.494  59.520  99.638  0.00  0.00    +0.000 C 
BRANCH  50  52
ATOM     52  N1  UNL     1      72.640  59.751  97.200  0.00  0.00    +0.000 NA
ATOM     53  C25 UNL     1      72.138  60.936  96.482  0.00  0.00    +0.000 C 
ATOM     54  C26 UNL     1      72.358  58.513  96.454  0.00  0.00    +0.000 C 
ENDBRANCH  50  52
BRANCH  51  55
ATOM     55  O9  UNL     1      74.356  58.512  99.176  0.00  0.00    +0.000 OA
ATOM     56  H41 UNL     1      73.882  58.042  98.437  0.00  0.00    +0.000 HD
ENDBRANCH  51  55
ENDBRANCH  44  45
ENDBRANCH  10  44
BRANCH  17  57
ATOM     57  O11 UNL     1      72.035  57.044 106.726  0.00  0.00    +0.000 OA
BRANCH  57  58
ATOM     58  C33 UNL     1      70.878  56.318 106.348  0.00  0.00    +0.000 C 
BRANCH  58  59
ATOM     59  O12 UNL     1      71.135  55.652 105.131  0.00  0.00    +0.000 OA
BRANCH  59  60
ATOM     60  C34 UNL     1      70.556  54.365 105.161  0.00  0.00    +0.000 C 
BRANCH  60  61
ATOM     61  C35 UNL     1      70.321  53.887 103.730  0.00  0.00    +0.000 C 
BRANCH  61  62
ATOM     62  O13 UNL     1      70.343  54.984 102.831  0.00  0.00    +0.000 OA
ATOM     63  C36 UNL     1      71.104  54.666 101.687  0.00  0.00    +0.000 C 
ENDBRANCH  61  62
ENDBRANCH  60  61
ENDBRANCH  59  60
ENDBRANCH  58  59
ENDBRANCH  57  58
ENDBRANCH  17  57
TORSDOF 18
ENDMDL
MODEL 11
REMARK VINA RESULT:      -5.7      2.878      7.907
REMARK  Name = ./S2506.pdb
REMARK  32 active torsions:
REMARK  status: ('A' for Active; 'I' for Inactive)
REMARK    1  A    between atoms: C1_1  and  C2_2
REMARK    2  A    between atoms: C2_2  and  C3_3
REMARK    3  A    between atoms: C5_7  and  C6_8
REMARK    4  A    between atoms: C7_9  and  O3_10
REMARK    5  A    between atoms: O3_10  and  C8_11
REMARK    6  A    between atoms: C10_13  and  C11_14
REMARK    7  A    between atoms: C10_13  and  O4_15
REMARK    8  A    between atoms: O4_15  and  C12_16
REMARK    9  A    between atoms: C13_17  and  O5_18
REMARK   10  A    between atoms: C14_19  and  C15_20
REMARK   11  A    between atoms: C16_22  and  C17_23
REMARK   12  A    between atoms: C18_24  and  O7_25
REMARK   13  A    between atoms: O7_25  and  C19_26
REMARK   14  A    between atoms: C20_28  and  C21_29
REMARK   15  A    between atoms: C23_31  and  N1_34
REMARK   16  A    between atoms: C24_32  and  O9_33
REMARK   17  A    between atoms: N1_34  and  C25_35
REMARK   18  A    between atoms: N1_34  and  C26_36
REMARK   19  A    between atoms: C27_37  and  C28_38
REMARK   20  A    between atoms: C27_37  and  O10_39
REMARK   21  A    between atoms: C30_41  and  C31_42
REMARK   22  A    between atoms: N2_44  and  O11_45
REMARK   23  A    between atoms: O11_45  and  C33_46
REMARK   24  A    between atoms: C33_46  and  O12_47
REMARK   25  A    between atoms: O12_47  and  C34_48
REMARK   26  A    between atoms: C34_48  and  C35_49
REMARK   27  A    between atoms: C35_49  and  O13_50
REMARK   28  A    between atoms: O13_50  and  C36_51
REMARK   29  A    between atoms: C37_52  and  C38_53
REMARK   30  A    between atoms: C39_54  and  O14_55
REMARK   31  A    between atoms: C40_56  and  C41_57
REMARK   32  A    between atoms: C40_56  and  O15_58
REMARK                            x       y       z     vdW  Elec       q    Type
REMARK                         _______ _______ _______ _____ _____    ______ ____
ROOT
ATOM      1  C3  UNL     1      77.043  64.782 104.557  0.00  0.00    +0.000 C 
ATOM      2  O1  UNL     1      76.672  65.339 105.826  0.00  0.00    +0.000 OA
ATOM      3  C4  UNL     1      76.491  66.710 106.055  0.00  0.00    +0.000 C 
ATOM      4  O2  UNL     1      76.912  67.554 105.217  0.00  0.00    +0.000 OA
ATOM      5  C5  UNL     1      75.827  67.182 107.329  0.00  0.00    +0.000 C 
ATOM      6  C6  UNL     1      76.898  67.820 108.225  0.00  0.00    +0.000 C 
ATOM      7  C7  UNL     1      74.620  68.113 106.982  0.00  0.00    +0.000 C 
ATOM      8  C16 UNL     1      73.603  68.458 108.133  0.00  0.00    +0.000 C 
ATOM      9  C17 UNL     1      74.217  69.358 109.227  0.00  0.00    +0.000 C 
ATOM     10  C18 UNL     1      72.776  67.287 108.788  0.00  0.00    +0.000 C 
ATOM     11  C27 UNL     1      71.754  66.493 107.866  0.00  0.00    +0.000 C 
ATOM     12  C28 UNL     1      71.140  67.404 106.766  0.00  0.00    +0.000 C 
ATOM     13  C29 UNL     1      72.441  65.230 107.250  0.00  0.00    +0.000 C 
ATOM     14  C30 UNL     1      71.719  64.472 106.099  0.00  0.00    +0.000 C 
ATOM     15  C31 UNL     1      70.305  64.014 106.536  0.00  0.00    +0.000 C 
ATOM     16  C32 UNL     1      72.544  63.268 105.585  0.00  0.00    +0.000 C 
ATOM     17  N2  UNL     1      71.917  62.144 105.380  0.00  0.00    +0.000 NA
ATOM     18  C37 UNL     1      74.047  63.359 105.248  0.00  0.00    +0.000 C 
ATOM     19  C38 UNL     1      74.849  63.188 106.556  0.00  0.00    +0.000 C 
ATOM     20  C39 UNL     1      74.385  64.607 104.355  0.00  0.00    +0.000 C 
ATOM     21  C40 UNL     1      75.781  64.589 103.608  0.00  0.00    +0.000 C 
ATOM     22  C41 UNL     1      75.792  65.758 102.579  0.00  0.00    +0.000 C 
ENDROOT
BRANCH   1  24
ATOM     23  C1  UNL     1      78.607  63.438 106.088  0.00  0.00    +0.000 C 
ATOM     24  C2  UNL     1      77.898  63.499 104.734  0.00  0.00    +0.000 C 
ENDBRANCH   1  24
BRANCH  11  25
ATOM     25  O10 UNL     1      70.709  66.021 108.685  0.00  0.00    +0.000 OA
ATOM     26  H51 UNL     1      70.705  66.545 109.530  0.00  0.00    +0.000 HD
ENDBRANCH  11  25
BRANCH  20  27
ATOM     27  O14 UNL     1      73.367  64.695 103.381  0.00  0.00    +0.000 OA
ATOM     28  H72 UNL     1      72.765  63.914 103.498  0.00  0.00    +0.000 HD
ENDBRANCH  20  27
BRANCH  21  29
ATOM     29  O15 UNL     1      75.871  63.378 102.887  0.00  0.00    +0.000 OA
ATOM     30  H76 UNL     1      74.958  62.990 102.813  0.00  0.00    +0.000 HD
ENDBRANCH  21  29
BRANCH   7  31
ATOM     31  O3  UNL     1      75.131  69.325 106.437  0.00  0.00    +0.000 OA
BRANCH  31  32
ATOM     32  C8  UNL     1      74.220  70.013 105.586  0.00  0.00    +0.000 C 
ATOM     33  C9  UNL     1      74.993  71.156 104.871  0.00  0.00    +0.000 C 
ATOM     34  C10 UNL     1      75.047  70.959 103.342  0.00  0.00    +0.000 C 
ATOM     35  C11 UNL     1      75.666  72.225 102.706  0.00  0.00    +0.000 C 
ATOM     36  C13 UNL     1      73.577  70.728 102.843  0.00  0.00    +0.000 C 
ATOM     37  C14 UNL     1      72.871  69.607 103.670  0.00  0.00    +0.000 C 
ATOM     38  C15 UNL     1      71.478  69.968 104.218  0.00  0.00    +0.000 C 
ATOM     39  O6  UNL     1      73.704  69.051 104.677  0.00  0.00    +0.000 OA
BRANCH  34  40
ATOM     40  O4  UNL     1      75.903  69.830 103.136  0.00  0.00    +0.000 OA
ATOM     41  C12 UNL     1      76.072  69.450 101.785  0.00  0.00    +0.000 C 
ENDBRANCH  34  40
BRANCH  36  42
ATOM     42  O5  UNL     1      72.826  71.924 102.810  0.00  0.00    +0.000 OA
ATOM     43  H22 UNL     1      73.448  72.693 102.898  0.00  0.00    +0.000 HD
ENDBRANCH  36  42
ENDBRANCH  31  32
ENDBRANCH   7  31
BRANCH  10  44
ATOM     44  O7  UNL     1      73.664  66.374 109.429  0.00  0.00    +0.000 OA
BRANCH  44  45
ATOM     45  C19 UNL     1      73.564  66.357 110.846  0.00  0.00    +0.000 C 
ATOM     46  O8  UNL     1      74.864  66.559 111.390  0.00  0.00    +0.000 OA
ATOM     47  C20 UNL     1      75.628  65.377 111.559  0.00  0.00    +0.000 C 
ATOM     48  C21 UNL     1      76.002  64.703 110.229  0.00  0.00    +0.000 C 
ATOM     49  C22 UNL     1      75.001  64.413 112.587  0.00  0.00    +0.000 C 
ATOM     50  C23 UNL     1      73.456  64.451 112.626  0.00  0.00    +0.000 C 
ATOM     51  C24 UNL     1      72.856  65.056 111.323  0.00  0.00    +0.000 C 
BRANCH  50  52
ATOM     52  N1  UNL     1      72.986  65.044 113.913  0.00  0.00    +0.000 NA
ATOM     53  C25 UNL     1      73.726  66.252 114.317  0.00  0.00    +0.000 C 
ATOM     54  C26 UNL     1      72.822  64.113 115.043  0.00  0.00    +0.000 C 
ENDBRANCH  50  52
BRANCH  51  55
ATOM     55  O9  UNL     1      71.477  65.278 111.453  0.00  0.00    +0.000 OA
ATOM     56  H41 UNL     1      71.207  65.876 110.704  0.00  0.00    +0.000 HD
ENDBRANCH  51  55
ENDBRANCH  44  45
ENDBRANCH  10  44
BRANCH  17  57
ATOM     57  O11 UNL     1      72.527  61.002 104.904  0.00  0.00    +0.000 OA
BRANCH  57  58
ATOM     58  C33 UNL     1      72.378  59.775 105.598  0.00  0.00    +0.000 C 
BRANCH  58  59
ATOM     59  O12 UNL     1      71.845  60.038 106.879  0.00  0.00    +0.000 OA
BRANCH  59  60
ATOM     60  C34 UNL     1      71.841  58.853 107.645  0.00  0.00    +0.000 C 
BRANCH  60  61
ATOM     61  C35 UNL     1      72.865  58.980 108.771  0.00  0.00    +0.000 C 
BRANCH  61  62
ATOM     62  O13 UNL     1      73.206  60.340 108.979  0.00  0.00    +0.000 OA
ATOM     63  C36 UNL     1      74.606  60.488 109.067  0.00  0.00    +0.000 C 
ENDBRANCH  61  62
ENDBRANCH  60  61
ENDBRANCH  59  60
ENDBRANCH  58  59
ENDBRANCH  57  58
ENDBRANCH  17  57
TORSDOF 18
ENDMDL
MODEL 12
REMARK VINA RESULT:      -5.7      2.304      6.937
REMARK  Name = ./S2506.pdb
REMARK  32 active torsions:
REMARK  status: ('A' for Active; 'I' for Inactive)
REMARK    1  A    between atoms: C1_1  and  C2_2
REMARK    2  A    between atoms: C2_2  and  C3_3
REMARK    3  A    between atoms: C5_7  and  C6_8
REMARK    4  A    between atoms: C7_9  and  O3_10
REMARK    5  A    between atoms: O3_10  and  C8_11
REMARK    6  A    between atoms: C10_13  and  C11_14
REMARK    7  A    between atoms: C10_13  and  O4_15
REMARK    8  A    between atoms: O4_15  and  C12_16
REMARK    9  A    between atoms: C13_17  and  O5_18
REMARK   10  A    between atoms: C14_19  and  C15_20
REMARK   11  A    between atoms: C16_22  and  C17_23
REMARK   12  A    between atoms: C18_24  and  O7_25
REMARK   13  A    between atoms: O7_25  and  C19_26
REMARK   14  A    between atoms: C20_28  and  C21_29
REMARK   15  A    between atoms: C23_31  and  N1_34
REMARK   16  A    between atoms: C24_32  and  O9_33
REMARK   17  A    between atoms: N1_34  and  C25_35
REMARK   18  A    between atoms: N1_34  and  C26_36
REMARK   19  A    between atoms: C27_37  and  C28_38
REMARK   20  A    between atoms: C27_37  and  O10_39
REMARK   21  A    between atoms: C30_41  and  C31_42
REMARK   22  A    between atoms: N2_44  and  O11_45
REMARK   23  A    between atoms: O11_45  and  C33_46
REMARK   24  A    between atoms: C33_46  and  O12_47
REMARK   25  A    between atoms: O12_47  and  C34_48
REMARK   26  A    between atoms: C34_48  and  C35_49
REMARK   27  A    between atoms: C35_49  and  O13_50
REMARK   28  A    between atoms: O13_50  and  C36_51
REMARK   29  A    between atoms: C37_52  and  C38_53
REMARK   30  A    between atoms: C39_54  and  O14_55
REMARK   31  A    between atoms: C40_56  and  C41_57
REMARK   32  A    between atoms: C40_56  and  O15_58
REMARK                            x       y       z     vdW  Elec       q    Type
REMARK                         _______ _______ _______ _____ _____    ______ ____
ROOT
ATOM      1  C3  UNL     1      77.312  68.028 107.385  0.00  0.00    +0.000 C 
ATOM      2  O1  UNL     1      76.712  66.787 106.987  0.00  0.00    +0.000 OA
ATOM      3  C4  UNL     1      76.638  65.655 107.810  0.00  0.00    +0.000 C 
ATOM      4  O2  UNL     1      77.342  65.583 108.854  0.00  0.00    +0.000 OA
ATOM      5  C5  UNL     1      75.743  64.498 107.425  0.00  0.00    +0.000 C 
ATOM      6  C6  UNL     1      76.632  63.330 106.974  0.00  0.00    +0.000 C 
ATOM      7  C7  UNL     1      74.770  64.168 108.603  0.00  0.00    +0.000 C 
ATOM      8  C16 UNL     1      73.552  63.217 108.306  0.00  0.00    +0.000 C 
ATOM      9  C17 UNL     1      73.981  61.764 108.013  0.00  0.00    +0.000 C 
ATOM     10  C18 UNL     1      72.463  63.686 107.267  0.00  0.00    +0.000 C 
ATOM     11  C27 UNL     1      71.611  64.981 107.617  0.00  0.00    +0.000 C 
ATOM     12  C28 UNL     1      71.389  65.130 109.149  0.00  0.00    +0.000 C 
ATOM     13  C29 UNL     1      72.278  66.256 107.006  0.00  0.00    +0.000 C 
ATOM     14  C30 UNL     1      71.775  67.656 107.462  0.00  0.00    +0.000 C 
ATOM     15  C31 UNL     1      70.254  67.810 107.208  0.00  0.00    +0.000 C 
ATOM     16  C32 UNL     1      72.557  68.807 106.785  0.00  0.00    +0.000 C 
ATOM     17  N2  UNL     1      71.874  69.815 106.318  0.00  0.00    +0.000 NA
ATOM     18  C37 UNL     1      74.096  68.842 106.698  0.00  0.00    +0.000 C 
ATOM     19  C38 UNL     1      74.534  68.000 105.481  0.00  0.00    +0.000 C 
ATOM     20  C39 UNL     1      74.780  68.523 108.076  0.00  0.00    +0.000 C 
ATOM     21  C40 UNL     1      76.305  68.927 108.224  0.00  0.00    +0.000 C 
ATOM     22  C41 UNL     1      76.697  68.787 109.725  0.00  0.00    +0.000 C 
ENDROOT
BRANCH   1  24
ATOM     23  C1  UNL     1      78.520  67.798 105.130  0.00  0.00    +0.000 C 
ATOM     24  C2  UNL     1      77.948  68.759 106.173  0.00  0.00    +0.000 C 
ENDBRANCH   1  24
BRANCH  11  25
ATOM     25  O10 UNL     1      70.352  64.852 106.998  0.00  0.00    +0.000 OA
ATOM     26  H51 UNL     1      70.219  63.899 106.741  0.00  0.00    +0.000 HD
ENDBRANCH  11  25
BRANCH  20  27
ATOM     27  O14 UNL     1      74.046  69.216 109.063  0.00  0.00    +0.000 OA
ATOM     28  H72 UNL     1      73.152  69.428 108.685  0.00  0.00    +0.000 HD
ENDBRANCH  20  27
BRANCH  21  29
ATOM     29  O15 UNL     1      76.428  70.289 107.871  0.00  0.00    +0.000 OA
ATOM     30  H76 UNL     1      77.198  70.381 107.248  0.00  0.00    +0.000 HD
ENDBRANCH  21  29
BRANCH   7  31
ATOM     31  O3  UNL     1      75.533  63.621 109.674  0.00  0.00    +0.000 OA
BRANCH  31  32
ATOM     32  C8  UNL     1      74.950  63.805 110.960  0.00  0.00    +0.000 C 
ATOM     33  C9  UNL     1      75.211  62.524 111.800  0.00  0.00    +0.000 C 
ATOM     34  C10 UNL     1      76.098  62.800 113.031  0.00  0.00    +0.000 C 
ATOM     35  C11 UNL     1      76.149  61.520 113.896  0.00  0.00    +0.000 C 
ATOM     36  C13 UNL     1      75.457  63.997 113.816  0.00  0.00    +0.000 C 
ATOM     37  C14 UNL     1      75.175  65.206 112.868  0.00  0.00    +0.000 C 
ATOM     38  C15 UNL     1      73.757  65.800 112.957  0.00  0.00    +0.000 C 
ATOM     39  O6  UNL     1      75.557  64.959 111.523  0.00  0.00    +0.000 OA
BRANCH  34  40
ATOM     40  O4  UNL     1      77.396  63.095 112.503  0.00  0.00    +0.000 OA
ATOM     41  C12 UNL     1      78.010  62.029 111.805  0.00  0.00    +0.000 C 
ENDBRANCH  34  40
BRANCH  36  42
ATOM     42  O5  UNL     1      74.310  63.609 114.546  0.00  0.00    +0.000 OA
ATOM     43  H22 UNL     1      74.095  64.322 115.202  0.00  0.00    +0.000 HD
ENDBRANCH  36  42
ENDBRANCH  31  32
ENDBRANCH   7  31
BRANCH  10  44
ATOM     44  O7  UNL     1      73.060  63.830 105.980  0.00  0.00    +0.000 OA
BRANCH  44  45
ATOM     45  C19 UNL     1      72.736  62.792 105.065  0.00  0.00    +0.000 C 
ATOM     46  O8  UNL     1      73.944  62.307 104.490  0.00  0.00    +0.000 OA
ATOM     47  C20 UNL     1      74.379  63.010 103.338  0.00  0.00    +0.000 C 
ATOM     48  C21 UNL     1      74.793  64.461 103.636  0.00  0.00    +0.000 C 
ATOM     49  C22 UNL     1      73.391  62.877 102.160  0.00  0.00    +0.000 C 
ATOM     50  C23 UNL     1      71.911  62.760 102.589  0.00  0.00    +0.000 C 
ATOM     51  C24 UNL     1      71.681  63.289 104.035  0.00  0.00    +0.000 C 
BRANCH  50  52
ATOM     52  N1  UNL     1      71.393  61.392 102.290  0.00  0.00    +0.000 NA
ATOM     53  C25 UNL     1      72.433  60.444 101.853  0.00  0.00    +0.000 C 
ATOM     54  C26 UNL     1      70.202  61.316 101.427  0.00  0.00    +0.000 C 
ENDBRANCH  50  52
BRANCH  51  55
ATOM     55  O9  UNL     1      70.386  62.987 104.487  0.00  0.00    +0.000 OA
ATOM     56  H41 UNL     1      70.488  62.438 105.312  0.00  0.00    +0.000 HD
ENDBRANCH  51  55
ENDBRANCH  44  45
ENDBRANCH  10  44
BRANCH  17  57
ATOM     57  O11 UNL     1      72.447  70.913 105.713  0.00  0.00    +0.000 OA
BRANCH  57  58
ATOM     58  C33 UNL     1      72.024  71.312 104.419  0.00  0.00    +0.000 C 
BRANCH  58  59
ATOM     59  O12 UNL     1      72.560  70.417 103.469  0.00  0.00    +0.000 OA
BRANCH  59  60
ATOM     60  C34 UNL     1      71.749  70.409 102.314  0.00  0.00    +0.000 C 
BRANCH  60  61
ATOM     61  C35 UNL     1      70.483  71.218 102.584  0.00  0.00    +0.000 C 
BRANCH  61  62
ATOM     62  O13 UNL     1      69.330  70.444 102.298  0.00  0.00    +0.000 OA
ATOM     63  C36 UNL     1      68.333  70.669 103.269  0.00  0.00    +0.000 C 
ENDBRANCH  61  62
ENDBRANCH  60  61
ENDBRANCH  59  60
ENDBRANCH  58  59
ENDBRANCH  57  58
ENDBRANCH  17  57
TORSDOF 18
ENDMDL
MODEL 13
REMARK VINA RESULT:      -5.7      2.713      7.890
REMARK  Name = ./S2506.pdb
REMARK  32 active torsions:
REMARK  status: ('A' for Active; 'I' for Inactive)
REMARK    1  A    between atoms: C1_1  and  C2_2
REMARK    2  A    between atoms: C2_2  and  C3_3
REMARK    3  A    between atoms: C5_7  and  C6_8
REMARK    4  A    between atoms: C7_9  and  O3_10
REMARK    5  A    between atoms: O3_10  and  C8_11
REMARK    6  A    between atoms: C10_13  and  C11_14
REMARK    7  A    between atoms: C10_13  and  O4_15
REMARK    8  A    between atoms: O4_15  and  C12_16
REMARK    9  A    between atoms: C13_17  and  O5_18
REMARK   10  A    between atoms: C14_19  and  C15_20
REMARK   11  A    between atoms: C16_22  and  C17_23
REMARK   12  A    between atoms: C18_24  and  O7_25
REMARK   13  A    between atoms: O7_25  and  C19_26
REMARK   14  A    between atoms: C20_28  and  C21_29
REMARK   15  A    between atoms: C23_31  and  N1_34
REMARK   16  A    between atoms: C24_32  and  O9_33
REMARK   17  A    between atoms: N1_34  and  C25_35
REMARK   18  A    between atoms: N1_34  and  C26_36
REMARK   19  A    between atoms: C27_37  and  C28_38
REMARK   20  A    between atoms: C27_37  and  O10_39
REMARK   21  A    between atoms: C30_41  and  C31_42
REMARK   22  A    between atoms: N2_44  and  O11_45
REMARK   23  A    between atoms: O11_45  and  C33_46
REMARK   24  A    between atoms: C33_46  and  O12_47
REMARK   25  A    between atoms: O12_47  and  C34_48
REMARK   26  A    between atoms: C34_48  and  C35_49
REMARK   27  A    between atoms: C35_49  and  O13_50
REMARK   28  A    between atoms: O13_50  and  C36_51
REMARK   29  A    between atoms: C37_52  and  C38_53
REMARK   30  A    between atoms: C39_54  and  O14_55
REMARK   31  A    between atoms: C40_56  and  C41_57
REMARK   32  A    between atoms: C40_56  and  O15_58
REMARK                            x       y       z     vdW  Elec       q    Type
REMARK                         _______ _______ _______ _____ _____    ______ ____
ROOT
ATOM      1  C3  UNL     1      74.121  65.608 110.771  0.00  0.00    +0.000 C 
ATOM      2  O1  UNL     1      75.112  65.445 109.746  0.00  0.00    +0.000 OA
ATOM      3  C4  UNL     1      75.286  64.268 109.007  0.00  0.00    +0.000 C 
ATOM      4  O2  UNL     1      74.756  63.191 109.395  0.00  0.00    +0.000 OA
ATOM      5  C5  UNL     1      76.148  64.276 107.764  0.00  0.00    +0.000 C 
ATOM      6  C6  UNL     1      77.450  63.523 108.073  0.00  0.00    +0.000 C 
ATOM      7  C7  UNL     1      75.334  63.712 106.554  0.00  0.00    +0.000 C 
ATOM      8  C16 UNL     1      75.924  63.924 105.110  0.00  0.00    +0.000 C 
ATOM      9  C17 UNL     1      77.209  63.106 104.860  0.00  0.00    +0.000 C 
ATOM     10  C18 UNL     1      76.098  65.395 104.571  0.00  0.00    +0.000 C 
ATOM     11  C27 UNL     1      74.789  66.273 104.371  0.00  0.00    +0.000 C 
ATOM     12  C28 UNL     1      73.565  65.402 103.971  0.00  0.00    +0.000 C 
ATOM     13  C29 UNL     1      74.497  67.120 105.652  0.00  0.00    +0.000 C 
ATOM     14  C30 UNL     1      73.117  67.828 105.784  0.00  0.00    +0.000 C 
ATOM     15  C31 UNL     1      72.861  68.773 104.583  0.00  0.00    +0.000 C 
ATOM     16  C32 UNL     1      72.980  68.599 107.119  0.00  0.00    +0.000 C 
ATOM     17  N2  UNL     1      72.476  69.800 107.079  0.00  0.00    +0.000 NA
ATOM     18  C37 UNL     1      73.352  67.988 108.485  0.00  0.00    +0.000 C 
ATOM     19  C38 UNL     1      74.872  68.150 108.694  0.00  0.00    +0.000 C 
ATOM     20  C39 UNL     1      72.750  66.549 108.681  0.00  0.00    +0.000 C 
ATOM     21  C40 UNL     1      72.703  65.993 110.163  0.00  0.00    +0.000 C 
ATOM     22  C41 UNL     1      71.831  64.703 110.166  0.00  0.00    +0.000 C 
ENDROOT
BRANCH   1  24
ATOM     23  C1  UNL     1      74.928  65.860 113.196  0.00  0.00    +0.000 C 
ATOM     24  C2  UNL     1      74.613  66.574 111.881  0.00  0.00    +0.000 C 
ENDBRANCH   1  24
BRANCH  11  25
ATOM     25  O10 UNL     1      75.037  67.191 103.331  0.00  0.00    +0.000 OA
ATOM     26  H51 UNL     1      75.913  67.634 103.500  0.00  0.00    +0.000 HD
ENDBRANCH  11  25
BRANCH  20  27
ATOM     27  O14 UNL     1      71.428  66.593 108.186  0.00  0.00    +0.000 OA
ATOM     28  H72 UNL     1      70.811  66.547 108.964  0.00  0.00    +0.000 HD
ENDBRANCH  20  27
BRANCH  21  29
ATOM     29  O15 UNL     1      72.053  66.956 110.966  0.00  0.00    +0.000 OA
ATOM     30  H76 UNL     1      72.504  66.978 111.853  0.00  0.00    +0.000 HD
ENDBRANCH  21  29
BRANCH   7  31
ATOM     31  O3  UNL     1      75.120  62.321 106.767  0.00  0.00    +0.000 OA
BRANCH  31  32
ATOM     32  C8  UNL     1      73.973  61.799 106.103  0.00  0.00    +0.000 C 
ATOM     33  C9  UNL     1      73.907  60.271 106.379  0.00  0.00    +0.000 C 
ATOM     34  C10 UNL     1      72.649  59.874 107.180  0.00  0.00    +0.000 C 
ATOM     35  C11 UNL     1      72.576  58.331 107.245  0.00  0.00    +0.000 C 
ATOM     36  C13 UNL     1      71.406  60.476 106.437  0.00  0.00    +0.000 C 
ATOM     37  C14 UNL     1      71.604  61.998 106.150  0.00  0.00    +0.000 C 
ATOM     38  C15 UNL     1      71.325  62.440 104.701  0.00  0.00    +0.000 C 
ATOM     39  O6  UNL     1      72.849  62.496 106.620  0.00  0.00    +0.000 OA
BRANCH  34  40
ATOM     40  O4  UNL     1      72.849  60.418 108.490  0.00  0.00    +0.000 OA
ATOM     41  C12 UNL     1      73.859  59.783 109.250  0.00  0.00    +0.000 C 
ENDBRANCH  34  40
BRANCH  36  42
ATOM     42  O5  UNL     1      71.072  59.749 105.272  0.00  0.00    +0.000 OA
ATOM     43  H22 UNL     1      71.140  58.780 105.471  0.00  0.00    +0.000 HD
ENDBRANCH  36  42
ENDBRANCH  31  32
ENDBRANCH   7  31
BRANCH  10  44
ATOM     44  O7  UNL     1      77.033  66.096 105.389  0.00  0.00    +0.000 OA
BRANCH  44  45
ATOM     45  C19 UNL     1      77.849  67.021 104.683  0.00  0.00    +0.000 C 
ATOM     46  O8  UNL     1      78.998  66.331 104.204  0.00  0.00    +0.000 OA
ATOM     47  C20 UNL     1      80.080  66.271 105.119  0.00  0.00    +0.000 C 
ATOM     48  C21 UNL     1      79.771  65.430 106.368  0.00  0.00    +0.000 C 
ATOM     49  C22 UNL     1      80.658  67.666 105.437  0.00  0.00    +0.000 C 
ATOM     50  C23 UNL     1      79.610  68.802 105.418  0.00  0.00    +0.000 C 
ATOM     51  C24 UNL     1      78.160  68.258 105.575  0.00  0.00    +0.000 C 
BRANCH  50  52
ATOM     52  N1  UNL     1      79.858  69.714 104.263  0.00  0.00    +0.000 NA
ATOM     53  C25 UNL     1      80.920  69.248 103.353  0.00  0.00    +0.000 C 
ATOM     54  C26 UNL     1      80.012  71.144 104.578  0.00  0.00    +0.000 C 
ENDBRANCH  50  52
BRANCH  51  55
ATOM     55  O9  UNL     1      77.210  69.266 105.347  0.00  0.00    +0.000 OA
ATOM     56  H41 UNL     1      77.491  69.747 104.522  0.00  0.00    +0.000 HD
ENDBRANCH  51  55
ENDBRANCH  44  45
ENDBRANCH  10  44
BRANCH  17  57
ATOM     57  O11 UNL     1      72.280  70.585 108.196  0.00  0.00    +0.000 OA
BRANCH  57  58
ATOM     58  C33 UNL     1      72.988  71.805 108.339  0.00  0.00    +0.000 C 
BRANCH  58  59
ATOM     59  O12 UNL     1      74.346  71.516 108.591  0.00  0.00    +0.000 OA
BRANCH  59  60
ATOM     60  C34 UNL     1      74.694  71.954 109.887  0.00  0.00    +0.000 C 
BRANCH  60  61
ATOM     61  C35 UNL     1      73.929  73.237 110.205  0.00  0.00    +0.000 C 
BRANCH  61  62
ATOM     62  O13 UNL     1      73.397  73.184 111.518  0.00  0.00    +0.000 OA
ATOM     63  C36 UNL     1      72.844  74.431 111.875  0.00  0.00    +0.000 C 
ENDBRANCH  61  62
ENDBRANCH  60  61
ENDBRANCH  59  60
ENDBRANCH  58  59
ENDBRANCH  57  58
ENDBRANCH  17  57
TORSDOF 18
ENDMDL
MODEL 14
REMARK VINA RESULT:      -5.6      4.221      9.960
REMARK  Name = ./S2506.pdb
REMARK  32 active torsions:
REMARK  status: ('A' for Active; 'I' for Inactive)
REMARK    1  A    between atoms: C1_1  and  C2_2
REMARK    2  A    between atoms: C2_2  and  C3_3
REMARK    3  A    between atoms: C5_7  and  C6_8
REMARK    4  A    between atoms: C7_9  and  O3_10
REMARK    5  A    between atoms: O3_10  and  C8_11
REMARK    6  A    between atoms: C10_13  and  C11_14
REMARK    7  A    between atoms: C10_13  and  O4_15
REMARK    8  A    between atoms: O4_15  and  C12_16
REMARK    9  A    between atoms: C13_17  and  O5_18
REMARK   10  A    between atoms: C14_19  and  C15_20
REMARK   11  A    between atoms: C16_22  and  C17_23
REMARK   12  A    between atoms: C18_24  and  O7_25
REMARK   13  A    between atoms: O7_25  and  C19_26
REMARK   14  A    between atoms: C20_28  and  C21_29
REMARK   15  A    between atoms: C23_31  and  N1_34
REMARK   16  A    between atoms: C24_32  and  O9_33
REMARK   17  A    between atoms: N1_34  and  C25_35
REMARK   18  A    between atoms: N1_34  and  C26_36
REMARK   19  A    between atoms: C27_37  and  C28_38
REMARK   20  A    between atoms: C27_37  and  O10_39
REMARK   21  A    between atoms: C30_41  and  C31_42
REMARK   22  A    between atoms: N2_44  and  O11_45
REMARK   23  A    between atoms: O11_45  and  C33_46
REMARK   24  A    between atoms: C33_46  and  O12_47
REMARK   25  A    between atoms: O12_47  and  C34_48
REMARK   26  A    between atoms: C34_48  and  C35_49
REMARK   27  A    between atoms: C35_49  and  O13_50
REMARK   28  A    between atoms: O13_50  and  C36_51
REMARK   29  A    between atoms: C37_52  and  C38_53
REMARK   30  A    between atoms: C39_54  and  O14_55
REMARK   31  A    between atoms: C40_56  and  C41_57
REMARK   32  A    between atoms: C40_56  and  O15_58
REMARK                            x       y       z     vdW  Elec       q    Type
REMARK                         _______ _______ _______ _____ _____    ______ ____
ROOT
ATOM      1  C3  UNL     1      75.247  73.466 108.350  0.00  0.00    +0.000 C 
ATOM      2  O1  UNL     1      75.027  72.606 107.222  0.00  0.00    +0.000 OA
ATOM      3  C4  UNL     1      75.028  71.207 107.295  0.00  0.00    +0.000 C 
ATOM      4  O2  UNL     1      75.495  70.624 108.312  0.00  0.00    +0.000 OA
ATOM      5  C5  UNL     1      74.507  70.389 106.133  0.00  0.00    +0.000 C 
ATOM      6  C6  UNL     1      75.702  69.722 105.438  0.00  0.00    +0.000 C 
ATOM      7  C7  UNL     1      73.403  69.403 106.635  0.00  0.00    +0.000 C 
ATOM      8  C16 UNL     1      72.510  68.688 105.554  0.00  0.00    +0.000 C 
ATOM      9  C17 UNL     1      73.296  67.665 104.707  0.00  0.00    +0.000 C 
ATOM     10  C18 UNL     1      71.589  69.572 104.628  0.00  0.00    +0.000 C 
ATOM     11  C27 UNL     1      70.423  70.403 105.317  0.00  0.00    +0.000 C 
ATOM     12  C28 UNL     1      69.856  69.676 106.569  0.00  0.00    +0.000 C 
ATOM     13  C29 UNL     1      70.911  71.847 105.664  0.00  0.00    +0.000 C 
ATOM     14  C30 UNL     1      70.032  72.732 106.594  0.00  0.00    +0.000 C 
ATOM     15  C31 UNL     1      68.603  72.895 106.018  0.00  0.00    +0.000 C 
ATOM     16  C32 UNL     1      70.671  74.117 106.859  0.00  0.00    +0.000 C 
ATOM     17  N2  UNL     1      69.900  75.166 106.789  0.00  0.00    +0.000 NA
ATOM     18  C37 UNL     1      72.149  74.299 107.259  0.00  0.00    +0.000 C 
ATOM     19  C38 UNL     1      73.005  74.291 105.975  0.00  0.00    +0.000 C 
ATOM     20  C39 UNL     1      72.580  73.327 108.416  0.00  0.00    +0.000 C 
ATOM     21  C40 UNL     1      73.914  73.689 109.189  0.00  0.00    +0.000 C 
ATOM     22  C41 UNL     1      74.002  72.778 110.449  0.00  0.00    +0.000 C 
ENDROOT
BRANCH   1  24
ATOM     23  C1  UNL     1      76.699  74.656 106.597  0.00  0.00    +0.000 C 
ATOM     24  C2  UNL     1      75.949  74.782 107.924  0.00  0.00    +0.000 C 
ENDBRANCH   1  24
BRANCH  11  25
ATOM     25  O10 UNL     1      69.381  70.547 104.379  0.00  0.00    +0.000 OA
ATOM     26  H51 UNL     1      68.881  71.382 104.585  0.00  0.00    +0.000 HD
ENDBRANCH  11  25
BRANCH  20  27
ATOM     27  O14 UNL     1      71.521  73.316 109.350  0.00  0.00    +0.000 OA
ATOM     28  H72 UNL     1      71.911  73.456 110.253  0.00  0.00    +0.000 HD
ENDBRANCH  20  27
BRANCH  21  29
ATOM     29  O15 UNL     1      73.811  75.027 109.628  0.00  0.00    +0.000 OA
ATOM     30  H76 UNL     1      74.276  75.104 110.504  0.00  0.00    +0.000 HD
ENDBRANCH  21  29
BRANCH   7  31
ATOM     31  O3  UNL     1      74.023  68.414 107.450  0.00  0.00    +0.000 OA
BRANCH  31  32
ATOM     32  C8  UNL     1      73.142  67.384 107.890  0.00  0.00    +0.000 C 
ATOM     33  C9  UNL     1      73.980  66.326 108.661  0.00  0.00    +0.000 C 
ATOM     34  C10 UNL     1      73.573  66.224 110.145  0.00  0.00    +0.000 C 
ATOM     35  C11 UNL     1      74.324  65.029 110.778  0.00  0.00    +0.000 C 
ATOM     36  C13 UNL     1      72.019  66.015 110.196  0.00  0.00    +0.000 C 
ATOM     37  C14 UNL     1      71.278  67.089 109.337  0.00  0.00    +0.000 C 
ATOM     38  C15 UNL     1      70.232  66.540 108.349  0.00  0.00    +0.000 C 
ATOM     39  O6  UNL     1      72.163  68.006 108.709  0.00  0.00    +0.000 OA
BRANCH  34  40
ATOM     40  O4  UNL     1      74.002  67.453 110.740  0.00  0.00    +0.000 OA
ATOM     41  C12 UNL     1      75.405  67.618 110.817  0.00  0.00    +0.000 C 
ENDBRANCH  34  40
BRANCH  36  42
ATOM     42  O5  UNL     1      71.641  64.698 109.849  0.00  0.00    +0.000 OA
ATOM     43  H22 UNL     1      70.840  64.447 110.379  0.00  0.00    +0.000 HD
ENDBRANCH  36  42
ENDBRANCH  31  32
ENDBRANCH   7  31
BRANCH  10  44
ATOM     44  O7  UNL     1      72.398  70.436 103.834  0.00  0.00    +0.000 OA
BRANCH  44  45
ATOM     45  C19 UNL     1      72.437  70.097 102.454  0.00  0.00    +0.000 C 
ATOM     46  O8  UNL     1      73.800  69.974 102.061  0.00  0.00    +0.000 OA
ATOM     47  C20 UNL     1      74.412  71.184 101.648  0.00  0.00    +0.000 C 
ATOM     48  C21 UNL     1      74.559  72.206 102.787  0.00  0.00    +0.000 C 
ATOM     49  C22 UNL     1      73.765  71.765 100.373  0.00  0.00    +0.000 C 
ATOM     50  C23 UNL     1      72.251  71.481 100.249  0.00  0.00    +0.000 C 
ATOM     51  C24 UNL     1      71.612  71.121 101.622  0.00  0.00    +0.000 C 
BRANCH  50  52
ATOM     52  N1  UNL     1      71.994  70.532  99.126  0.00  0.00    +0.000 NA
ATOM     53  C25 UNL     1      73.215  69.930  98.563  0.00  0.00    +0.000 C 
ATOM     54  C26 UNL     1      71.089  71.003  98.063  0.00  0.00    +0.000 C 
ENDBRANCH  50  52
BRANCH  51  55
ATOM     55  O9  UNL     1      70.294  70.664 101.466  0.00  0.00    +0.000 OA
ATOM     56  H41 UNL     1      69.941  71.076 100.631  0.00  0.00    +0.000 HD
ENDBRANCH  51  55
ENDBRANCH  44  45
ENDBRANCH  10  44
BRANCH  17  57
ATOM     57  O11 UNL     1      70.336  76.453 107.023  0.00  0.00    +0.000 OA
BRANCH  57  58
ATOM     58  C33 UNL     1      69.919  77.143 108.189  0.00  0.00    +0.000 C 
BRANCH  58  59
ATOM     59  O12 UNL     1      70.077  76.292 109.304  0.00  0.00    +0.000 OA
BRANCH  59  60
ATOM     60  C34 UNL     1      70.930  76.900 110.250  0.00  0.00    +0.000 C 
BRANCH  60  61
ATOM     61  C35 UNL     1      70.801  76.169 111.584  0.00  0.00    +0.000 C 
BRANCH  61  62
ATOM     62  O13 UNL     1      71.772  75.140 111.682  0.00  0.00    +0.000 OA
ATOM     63  C36 UNL     1      71.859  74.670 113.008  0.00  0.00    +0.000 C 
ENDBRANCH  61  62
ENDBRANCH  60  61
ENDBRANCH  59  60
ENDBRANCH  58  59
ENDBRANCH  57  58
ENDBRANCH  17  57
TORSDOF 18
ENDMDL
MODEL 15
REMARK VINA RESULT:      -5.6      7.100     12.821
REMARK  Name = ./S2506.pdb
REMARK  32 active torsions:
REMARK  status: ('A' for Active; 'I' for Inactive)
REMARK    1  A    between atoms: C1_1  and  C2_2
REMARK    2  A    between atoms: C2_2  and  C3_3
REMARK    3  A    between atoms: C5_7  and  C6_8
REMARK    4  A    between atoms: C7_9  and  O3_10
REMARK    5  A    between atoms: O3_10  and  C8_11
REMARK    6  A    between atoms: C10_13  and  C11_14
REMARK    7  A    between atoms: C10_13  and  O4_15
REMARK    8  A    between atoms: O4_15  and  C12_16
REMARK    9  A    between atoms: C13_17  and  O5_18
REMARK   10  A    between atoms: C14_19  and  C15_20
REMARK   11  A    between atoms: C16_22  and  C17_23
REMARK   12  A    between atoms: C18_24  and  O7_25
REMARK   13  A    between atoms: O7_25  and  C19_26
REMARK   14  A    between atoms: C20_28  and  C21_29
REMARK   15  A    between atoms: C23_31  and  N1_34
REMARK   16  A    between atoms: C24_32  and  O9_33
REMARK   17  A    between atoms: N1_34  and  C25_35
REMARK   18  A    between atoms: N1_34  and  C26_36
REMARK   19  A    between atoms: C27_37  and  C28_38
REMARK   20  A    between atoms: C27_37  and  O10_39
REMARK   21  A    between atoms: C30_41  and  C31_42
REMARK   22  A    between atoms: N2_44  and  O11_45
REMARK   23  A    between atoms: O11_45  and  C33_46
REMARK   24  A    between atoms: C33_46  and  O12_47
REMARK   25  A    between atoms: O12_47  and  C34_48
REMARK   26  A    between atoms: C34_48  and  C35_49
REMARK   27  A    between atoms: C35_49  and  O13_50
REMARK   28  A    between atoms: O13_50  and  C36_51
REMARK   29  A    between atoms: C37_52  and  C38_53
REMARK   30  A    between atoms: C39_54  and  O14_55
REMARK   31  A    between atoms: C40_56  and  C41_57
REMARK   32  A    between atoms: C40_56  and  O15_58
REMARK                            x       y       z     vdW  Elec       q    Type
REMARK                         _______ _______ _______ _____ _____    ______ ____
ROOT
ATOM      1  C3  UNL     1      77.055  57.832 103.274  0.00  0.00    +0.000 C 
ATOM      2  O1  UNL     1      76.327  58.058 102.059  0.00  0.00    +0.000 OA
ATOM      3  C4  UNL     1      76.644  57.455 100.835  0.00  0.00    +0.000 C 
ATOM      4  O2  UNL     1      77.761  56.889 100.677  0.00  0.00    +0.000 OA
ATOM      5  C5  UNL     1      75.664  57.518  99.684  0.00  0.00    +0.000 C 
ATOM      6  C6  UNL     1      76.220  58.486  98.629  0.00  0.00    +0.000 C 
ATOM      7  C7  UNL     1      75.368  56.075  99.162  0.00  0.00    +0.000 C 
ATOM      8  C16 UNL     1      74.147  55.882  98.189  0.00  0.00    +0.000 C 
ATOM      9  C17 UNL     1      74.371  56.531  96.807  0.00  0.00    +0.000 C 
ATOM     10  C18 UNL     1      72.698  56.208  98.717  0.00  0.00    +0.000 C 
ATOM     11  C27 UNL     1      72.128  55.329  99.912  0.00  0.00    +0.000 C 
ATOM     12  C28 UNL     1      72.665  53.871  99.864  0.00  0.00    +0.000 C 
ATOM     13  C29 UNL     1      72.434  56.010 101.286  0.00  0.00    +0.000 C 
ATOM     14  C30 UNL     1      72.222  55.190 102.592  0.00  0.00    +0.000 C 
ATOM     15  C31 UNL     1      70.765  54.671 102.691  0.00  0.00    +0.000 C 
ATOM     16  C32 UNL     1      72.596  55.998 103.857  0.00  0.00    +0.000 C 
ATOM     17  N2  UNL     1      71.782  55.949 104.874  0.00  0.00    +0.000 NA
ATOM     18  C37 UNL     1      73.908  56.799 103.987  0.00  0.00    +0.000 C 
ATOM     19  C38 UNL     1      73.705  58.177 103.322  0.00  0.00    +0.000 C 
ATOM     20  C39 UNL     1      75.164  55.965 103.543  0.00  0.00    +0.000 C 
ATOM     21  C40 UNL     1      76.578  56.505 104.010  0.00  0.00    +0.000 C 
ATOM     22  C41 UNL     1      77.637  55.404 103.712  0.00  0.00    +0.000 C 
ENDROOT
BRANCH   1  24
ATOM     23  C1  UNL     1      76.882  60.392 103.389  0.00  0.00    +0.000 C 
ATOM     24  C2  UNL     1      77.041  59.093 104.180  0.00  0.00    +0.000 C 
ENDBRANCH   1  24
BRANCH  11  25
ATOM     25  O10 UNL     1      70.725  55.289  99.789  0.00  0.00    +0.000 OA
ATOM     26  H51 UNL     1      70.468  54.430  99.357  0.00  0.00    +0.000 HD
ENDBRANCH  11  25
BRANCH  20  27
ATOM     27  O14 UNL     1      74.995  54.667 104.071  0.00  0.00    +0.000 OA
ATOM     28  H72 UNL     1      75.876  54.360 104.414  0.00  0.00    +0.000 HD
ENDBRANCH  20  27
BRANCH  21  29
ATOM     29  O15 UNL     1      76.529  56.692 105.409  0.00  0.00    +0.000 OA
ATOM     30  H76 UNL     1      77.028  57.524 105.630  0.00  0.00    +0.000 HD
ENDBRANCH  21  29
BRANCH   7  31
ATOM     31  O3  UNL     1      76.544  55.576  98.534  0.00  0.00    +0.000 OA
BRANCH  31  32
ATOM     32  C8  UNL     1      76.655  54.156  98.546  0.00  0.00    +0.000 C 
ATOM     33  C9  UNL     1      77.812  53.752  97.590  0.00  0.00    +0.000 C 
ATOM     34  C10 UNL     1      78.974  53.062  98.335  0.00  0.00    +0.000 C 
ATOM     35  C11 UNL     1      79.983  52.535  97.289  0.00  0.00    +0.000 C 
ATOM     36  C13 UNL     1      78.363  51.891  99.182  0.00  0.00    +0.000 C 
ATOM     37  C14 UNL     1      77.168  52.391 100.054  0.00  0.00    +0.000 C 
ATOM     38  C15 UNL     1      75.882  51.549  99.959  0.00  0.00    +0.000 C 
ATOM     39  O6  UNL     1      76.902  53.777  99.892  0.00  0.00    +0.000 OA
BRANCH  34  40
ATOM     40  O4  UNL     1      79.574  54.089  99.132  0.00  0.00    +0.000 OA
ATOM     41  C12 UNL     1      80.260  55.085  98.399  0.00  0.00    +0.000 C 
ENDBRANCH  34  40
BRANCH  36  42
ATOM     42  O5  UNL     1      78.017  50.776  98.387  0.00  0.00    +0.000 OA
ATOM     43  H22 UNL     1      78.715  50.651  97.693  0.00  0.00    +0.000 HD
ENDBRANCH  36  42
ENDBRANCH  31  32
ENDBRANCH   7  31
BRANCH  10  44
ATOM     44  O7  UNL     1      72.610  57.592  99.047  0.00  0.00    +0.000 OA
BRANCH  44  45
ATOM     45  C19 UNL     1      71.491  58.259  98.480  0.00  0.00    +0.000 C 
ATOM     46  O8  UNL     1      71.969  59.234  97.559  0.00  0.00    +0.000 OA
ATOM     47  C20 UNL     1      72.268  60.496  98.130  0.00  0.00    +0.000 C 
ATOM     48  C21 UNL     1      73.455  60.453  99.105  0.00  0.00    +0.000 C 
ATOM     49  C22 UNL     1      71.017  61.192  98.707  0.00  0.00    +0.000 C 
ATOM     50  C23 UNL     1      69.961  60.218  99.278  0.00  0.00    +0.000 C 
ATOM     51  C24 UNL     1      70.572  58.823  99.602  0.00  0.00    +0.000 C 
BRANCH  50  52
ATOM     52  N1  UNL     1      68.736  60.227  98.425  0.00  0.00    +0.000 NA
ATOM     53  C25 UNL     1      68.824  61.131  97.265  0.00  0.00    +0.000 C 
ATOM     54  C26 UNL     1      67.450  60.379  99.127  0.00  0.00    +0.000 C 
ENDBRANCH  50  52
BRANCH  51  55
ATOM     55  O9  UNL     1      69.571  57.891  99.918  0.00  0.00    +0.000 OA
ATOM     56  H41 UNL     1      69.808  57.500 100.803  0.00  0.00    +0.000 HD
ENDBRANCH  51  55
ENDBRANCH  44  45
ENDBRANCH  10  44
BRANCH  17  57
ATOM     57  O11 UNL     1      72.007  56.603 106.067  0.00  0.00    +0.000 OA
BRANCH  57  58
ATOM     58  C33 UNL     1      71.094  57.590 106.519  0.00  0.00    +0.000 C 
BRANCH  58  59
ATOM     59  O12 UNL     1      71.295  58.771 105.774  0.00  0.00    +0.000 OA
BRANCH  59  60
ATOM     60  C34 UNL     1      71.549  59.848 106.650  0.00  0.00    +0.000 C 
BRANCH  60  61
ATOM     61  C35 UNL     1      71.315  61.163 105.908  0.00  0.00    +0.000 C 
BRANCH  61  62
ATOM     62  O13 UNL     1      70.126  61.094 105.140  0.00  0.00    +0.000 OA
ATOM     63  C36 UNL     1      70.096  62.133 104.187  0.00  0.00    +0.000 C 
ENDBRANCH  61  62
ENDBRANCH  60  61
ENDBRANCH  59  60
ENDBRANCH  58  59
ENDBRANCH  57  58
ENDBRANCH  17  57
TORSDOF 18
ENDMDL
MODEL 16
REMARK VINA RESULT:      -5.6      2.812      7.555
REMARK  Name = ./S2506.pdb
REMARK  32 active torsions:
REMARK  status: ('A' for Active; 'I' for Inactive)
REMARK    1  A    between atoms: C1_1  and  C2_2
REMARK    2  A    between atoms: C2_2  and  C3_3
REMARK    3  A    between atoms: C5_7  and  C6_8
REMARK    4  A    between atoms: C7_9  and  O3_10
REMARK    5  A    between atoms: O3_10  and  C8_11
REMARK    6  A    between atoms: C10_13  and  C11_14
REMARK    7  A    between atoms: C10_13  and  O4_15
REMARK    8  A    between atoms: O4_15  and  C12_16
REMARK    9  A    between atoms: C13_17  and  O5_18
REMARK   10  A    between atoms: C14_19  and  C15_20
REMARK   11  A    between atoms: C16_22  and  C17_23
REMARK   12  A    between atoms: C18_24  and  O7_25
REMARK   13  A    between atoms: O7_25  and  C19_26
REMARK   14  A    between atoms: C20_28  and  C21_29
REMARK   15  A    between atoms: C23_31  and  N1_34
REMARK   16  A    between atoms: C24_32  and  O9_33
REMARK   17  A    between atoms: N1_34  and  C25_35
REMARK   18  A    between atoms: N1_34  and  C26_36
REMARK   19  A    between atoms: C27_37  and  C28_38
REMARK   20  A    between atoms: C27_37  and  O10_39
REMARK   21  A    between atoms: C30_41  and  C31_42
REMARK   22  A    between atoms: N2_44  and  O11_45
REMARK   23  A    between atoms: O11_45  and  C33_46
REMARK   24  A    between atoms: C33_46  and  O12_47
REMARK   25  A    between atoms: O12_47  and  C34_48
REMARK   26  A    between atoms: C34_48  and  C35_49
REMARK   27  A    between atoms: C35_49  and  O13_50
REMARK   28  A    between atoms: O13_50  and  C36_51
REMARK   29  A    between atoms: C37_52  and  C38_53
REMARK   30  A    between atoms: C39_54  and  O14_55
REMARK   31  A    between atoms: C40_56  and  C41_57
REMARK   32  A    between atoms: C40_56  and  O15_58
REMARK                            x       y       z     vdW  Elec       q    Type
REMARK                         _______ _______ _______ _____ _____    ______ ____
ROOT
ATOM      1  C3  UNL     1      76.999  64.597 104.579  0.00  0.00    +0.000 C 
ATOM      2  O1  UNL     1      76.664  65.151 105.860  0.00  0.00    +0.000 OA
ATOM      3  C4  UNL     1      76.531  66.525 106.106  0.00  0.00    +0.000 C 
ATOM      4  O2  UNL     1      76.969  67.364 105.272  0.00  0.00    +0.000 OA
ATOM      5  C5  UNL     1      75.900  67.004 107.394  0.00  0.00    +0.000 C 
ATOM      6  C6  UNL     1      77.004  67.596 108.282  0.00  0.00    +0.000 C 
ATOM      7  C7  UNL     1      74.720  67.978 107.074  0.00  0.00    +0.000 C 
ATOM      8  C16 UNL     1      73.731  68.344 108.242  0.00  0.00    +0.000 C 
ATOM      9  C17 UNL     1      74.389  69.210 109.337  0.00  0.00    +0.000 C 
ATOM     10  C18 UNL     1      72.874  67.194 108.895  0.00  0.00    +0.000 C 
ATOM     11  C27 UNL     1      71.815  66.444 107.978  0.00  0.00    +0.000 C 
ATOM     12  C28 UNL     1      71.217  67.387 106.897  0.00  0.00    +0.000 C 
ATOM     13  C29 UNL     1      72.450  65.167 107.339  0.00  0.00    +0.000 C 
ATOM     14  C30 UNL     1      71.689  64.446 106.189  0.00  0.00    +0.000 C 
ATOM     15  C31 UNL     1      70.266  64.031 106.640  0.00  0.00    +0.000 C 
ATOM     16  C32 UNL     1      72.467  63.221 105.651  0.00  0.00    +0.000 C 
ATOM     17  N2  UNL     1      71.800  62.121 105.442  0.00  0.00    +0.000 NA
ATOM     18  C37 UNL     1      73.967  63.266 105.295  0.00  0.00    +0.000 C 
ATOM     19  C38 UNL     1      74.780  63.054 106.589  0.00  0.00    +0.000 C 
ATOM     20  C39 UNL     1      74.335  64.512 104.411  0.00  0.00    +0.000 C 
ATOM     21  C40 UNL     1      75.719  64.457 103.645  0.00  0.00    +0.000 C 
ATOM     22  C41 UNL     1      75.756  65.637 102.630  0.00  0.00    +0.000 C 
ENDROOT
BRANCH   1  24
ATOM     23  C1  UNL     1      79.173  63.343 104.033  0.00  0.00    +0.000 C 
ATOM     24  C2  UNL     1      77.813  63.285 104.731  0.00  0.00    +0.000 C 
ENDBRANCH   1  24
BRANCH  11  25
ATOM     25  O10 UNL     1      70.765  65.997 108.806  0.00  0.00    +0.000 OA
ATOM     26  H51 UNL     1      70.278  65.268 108.336  0.00  0.00    +0.000 HD
ENDBRANCH  11  25
BRANCH  20  27
ATOM     27  O14 UNL     1      73.308  64.646 103.452  0.00  0.00    +0.000 OA
ATOM     28  H72 UNL     1      73.169  65.616 103.287  0.00  0.00    +0.000 HD
ENDBRANCH  20  27
BRANCH  21  29
ATOM     29  O15 UNL     1      75.760  63.252 102.910  0.00  0.00    +0.000 OA
ATOM     30  H76 UNL     1      75.815  62.496 103.553  0.00  0.00    +0.000 HD
ENDBRANCH  21  29
BRANCH   7  31
ATOM     31  O3  UNL     1      75.265  69.179 106.536  0.00  0.00    +0.000 OA
BRANCH  31  32
ATOM     32  C8  UNL     1      74.379  69.886 105.673  0.00  0.00    +0.000 C 
ATOM     33  C9  UNL     1      75.188  71.004 104.958  0.00  0.00    +0.000 C 
ATOM     34  C10 UNL     1      75.250  70.798 103.431  0.00  0.00    +0.000 C 
ATOM     35  C11 UNL     1      75.909  72.043 102.794  0.00  0.00    +0.000 C 
ATOM     36  C13 UNL     1      73.780  70.603 102.920  0.00  0.00    +0.000 C 
ATOM     37  C14 UNL     1      73.036  69.506 103.748  0.00  0.00    +0.000 C 
ATOM     38  C15 UNL     1      71.649  69.907 104.282  0.00  0.00    +0.000 C 
ATOM     39  O6  UNL     1      73.846  68.934 104.765  0.00  0.00    +0.000 OA
BRANCH  34  40
ATOM     40  O4  UNL     1      76.077  69.645 103.239  0.00  0.00    +0.000 OA
ATOM     41  C12 UNL     1      76.322  69.307 101.887  0.00  0.00    +0.000 C 
ENDBRANCH  34  40
BRANCH  36  42
ATOM     42  O5  UNL     1      73.061  71.819 102.875  0.00  0.00    +0.000 OA
ATOM     43  H22 UNL     1      72.166  71.644 102.482  0.00  0.00    +0.000 HD
ENDBRANCH  36  42
ENDBRANCH  31  32
ENDBRANCH   7  31
BRANCH  10  44
ATOM     44  O7  UNL     1      73.740  66.244 109.513  0.00  0.00    +0.000 OA
BRANCH  44  45
ATOM     45  C19 UNL     1      73.683  66.238 110.933  0.00  0.00    +0.000 C 
ATOM     46  O8  UNL     1      75.005  66.403 111.436  0.00  0.00    +0.000 OA
ATOM     47  C20 UNL     1      75.738  65.199 111.589  0.00  0.00    +0.000 C 
ATOM     48  C21 UNL     1      76.050  64.507 110.252  0.00  0.00    +0.000 C 
ATOM     49  C22 UNL     1      75.113  64.260 112.642  0.00  0.00    +0.000 C 
ATOM     50  C23 UNL     1      73.572  64.345 112.728  0.00  0.00    +0.000 C 
ATOM     51  C24 UNL     1      72.951  64.961 111.440  0.00  0.00    +0.000 C 
BRANCH  50  52
ATOM     52  N1  UNL     1      73.160  64.959 114.025  0.00  0.00    +0.000 NA
ATOM     53  C25 UNL     1      74.108  65.966 114.535  0.00  0.00    +0.000 C 
ATOM     54  C26 UNL     1      72.743  64.029 115.088  0.00  0.00    +0.000 C 
ENDBRANCH  50  52
BRANCH  51  55
ATOM     55  O9  UNL     1      71.583  65.226 111.611  0.00  0.00    +0.000 OA
ATOM     56  H41 UNL     1      71.109  64.353 111.552  0.00  0.00    +0.000 HD
ENDBRANCH  51  55
ENDBRANCH  44  45
ENDBRANCH  10  44
BRANCH  17  57
ATOM     57  O11 UNL     1      72.365  60.965 104.945  0.00  0.00    +0.000 OA
BRANCH  57  58
ATOM     58  C33 UNL     1      72.165  60.603 103.589  0.00  0.00    +0.000 C 
BRANCH  58  59
ATOM     59  O12 UNL     1      70.812  60.823 103.254  0.00  0.00    +0.000 OA
BRANCH  59  60
ATOM     60  C34 UNL     1      70.712  61.196 101.896  0.00  0.00    +0.000 C 
BRANCH  60  61
ATOM     61  C35 UNL     1      71.055  62.678 101.757  0.00  0.00    +0.000 C 
BRANCH  61  62
ATOM     62  O13 UNL     1      71.023  63.068 100.394  0.00  0.00    +0.000 OA
ATOM     63  C36 UNL     1      71.371  61.982  99.564  0.00  0.00    +0.000 C 
ENDBRANCH  61  62
ENDBRANCH  60  61
ENDBRANCH  59  60
ENDBRANCH  58  59
ENDBRANCH  57  58
ENDBRANCH  17  57
TORSDOF 18
ENDMDL
MODEL 17
REMARK VINA RESULT:      -5.6      3.185      6.316
REMARK  Name = ./S2506.pdb
REMARK  32 active torsions:
REMARK  status: ('A' for Active; 'I' for Inactive)
REMARK    1  A    between atoms: C1_1  and  C2_2
REMARK    2  A    between atoms: C2_2  and  C3_3
REMARK    3  A    between atoms: C5_7  and  C6_8
REMARK    4  A    between atoms: C7_9  and  O3_10
REMARK    5  A    between atoms: O3_10  and  C8_11
REMARK    6  A    between atoms: C10_13  and  C11_14
REMARK    7  A    between atoms: C10_13  and  O4_15
REMARK    8  A    between atoms: O4_15  and  C12_16
REMARK    9  A    between atoms: C13_17  and  O5_18
REMARK   10  A    between atoms: C14_19  and  C15_20
REMARK   11  A    between atoms: C16_22  and  C17_23
REMARK   12  A    between atoms: C18_24  and  O7_25
REMARK   13  A    between atoms: O7_25  and  C19_26
REMARK   14  A    between atoms: C20_28  and  C21_29
REMARK   15  A    between atoms: C23_31  and  N1_34
REMARK   16  A    between atoms: C24_32  and  O9_33
REMARK   17  A    between atoms: N1_34  and  C25_35
REMARK   18  A    between atoms: N1_34  and  C26_36
REMARK   19  A    between atoms: C27_37  and  C28_38
REMARK   20  A    between atoms: C27_37  and  O10_39
REMARK   21  A    between atoms: C30_41  and  C31_42
REMARK   22  A    between atoms: N2_44  and  O11_45
REMARK   23  A    between atoms: O11_45  and  C33_46
REMARK   24  A    between atoms: C33_46  and  O12_47
REMARK   25  A    between atoms: O12_47  and  C34_48
REMARK   26  A    between atoms: C34_48  and  C35_49
REMARK   27  A    between atoms: C35_49  and  O13_50
REMARK   28  A    between atoms: O13_50  and  C36_51
REMARK   29  A    between atoms: C37_52  and  C38_53
REMARK   30  A    between atoms: C39_54  and  O14_55
REMARK   31  A    between atoms: C40_56  and  C41_57
REMARK   32  A    between atoms: C40_56  and  O15_58
REMARK                            x       y       z     vdW  Elec       q    Type
REMARK                         _______ _______ _______ _____ _____    ______ ____
ROOT
ATOM      1  C3  UNL     1      77.518  66.481 104.738  0.00  0.00    +0.000 C 
ATOM      2  O1  UNL     1      76.164  66.907 104.950  0.00  0.00    +0.000 OA
ATOM      3  C4  UNL     1      75.277  66.278 105.833  0.00  0.00    +0.000 C 
ATOM      4  O2  UNL     1      75.541  65.132 106.289  0.00  0.00    +0.000 OA
ATOM      5  C5  UNL     1      73.978  66.956 106.209  0.00  0.00    +0.000 C 
ATOM      6  C6  UNL     1      72.826  66.209 105.522  0.00  0.00    +0.000 C 
ATOM      7  C7  UNL     1      73.863  67.052 107.765  0.00  0.00    +0.000 C 
ATOM      8  C16 UNL     1      72.754  67.995 108.364  0.00  0.00    +0.000 C 
ATOM      9  C17 UNL     1      71.323  67.476 108.109  0.00  0.00    +0.000 C 
ATOM     10  C18 UNL     1      72.836  69.541 108.069  0.00  0.00    +0.000 C 
ATOM     11  C27 UNL     1      74.088  70.340 108.635  0.00  0.00    +0.000 C 
ATOM     12  C28 UNL     1      74.598  69.742 109.976  0.00  0.00    +0.000 C 
ATOM     13  C29 UNL     1      75.225  70.404 107.564  0.00  0.00    +0.000 C 
ATOM     14  C30 UNL     1      76.639  70.885 108.001  0.00  0.00    +0.000 C 
ATOM     15  C31 UNL     1      76.574  72.297 108.634  0.00  0.00    +0.000 C 
ATOM     16  C32 UNL     1      77.652  70.861 106.831  0.00  0.00    +0.000 C 
ATOM     17  N2  UNL     1      78.437  71.892 106.685  0.00  0.00    +0.000 NA
ATOM     18  C37 UNL     1      77.814  69.657 105.882  0.00  0.00    +0.000 C 
ATOM     19  C38 UNL     1      76.737  69.757 104.780  0.00  0.00    +0.000 C 
ATOM     20  C39 UNL     1      77.923  68.294 106.657  0.00  0.00    +0.000 C 
ATOM     21  C40 UNL     1      78.498  67.060 105.849  0.00  0.00    +0.000 C 
ATOM     22  C41 UNL     1      78.781  65.911 106.862  0.00  0.00    +0.000 C 
ENDROOT
BRANCH   1  24
ATOM     23  C1  UNL     1      76.808  66.933 102.312  0.00  0.00    +0.000 C 
ATOM     24  C2  UNL     1      77.977  66.769 103.284  0.00  0.00    +0.000 C 
ENDBRANCH   1  24
BRANCH  11  25
ATOM     25  O10 UNL     1      73.683  71.670 108.869  0.00  0.00    +0.000 OA
ATOM     26  H51 UNL     1      72.983  71.670 109.576  0.00  0.00    +0.000 HD
ENDBRANCH  11  25
BRANCH  20  27
ATOM     27  O14 UNL     1      78.768  68.526 107.765  0.00  0.00    +0.000 OA
ATOM     28  H72 UNL     1      78.286  69.124 108.395  0.00  0.00    +0.000 HD
ENDBRANCH  20  27
BRANCH  21  29
ATOM     29  O15 UNL     1      79.731  67.450 105.282  0.00  0.00    +0.000 OA
ATOM     30  H76 UNL     1      79.623  68.360 104.895  0.00  0.00    +0.000 HD
ENDBRANCH  21  29
BRANCH   7  31
ATOM     31  O3  UNL     1      73.683  65.739 108.283  0.00  0.00    +0.000 OA
BRANCH  31  32
ATOM     32  C8  UNL     1      74.491  65.442 109.418  0.00  0.00    +0.000 C 
ATOM     33  C9  UNL     1      73.787  66.018 110.678  0.00  0.00    +0.000 C 
ATOM     34  C10 UNL     1      73.369  64.915 111.672  0.00  0.00    +0.000 C 
ATOM     35  C11 UNL     1      72.851  65.589 112.964  0.00  0.00    +0.000 C 
ATOM     36  C13 UNL     1      74.633  64.030 111.955  0.00  0.00    +0.000 C 
ATOM     37  C14 UNL     1      75.301  63.559 110.624  0.00  0.00    +0.000 C 
ATOM     38  C15 UNL     1      76.821  63.790 110.529  0.00  0.00    +0.000 C 
ATOM     39  O6  UNL     1      74.625  64.029 109.466  0.00  0.00    +0.000 OA
BRANCH  34  40
ATOM     40  O4  UNL     1      72.310  64.204 111.023  0.00  0.00    +0.000 OA
ATOM     41  C12 UNL     1      71.121  64.948 110.836  0.00  0.00    +0.000 C 
ENDBRANCH  34  40
BRANCH  36  42
ATOM     42  O5  UNL     1      75.552  64.666 112.820  0.00  0.00    +0.000 OA
ATOM     43  H22 UNL     1      75.778  65.556 112.445  0.00  0.00    +0.000 HD
ENDBRANCH  36  42
ENDBRANCH  31  32
ENDBRANCH   7  31
BRANCH  10  44
ATOM     44  O7  UNL     1      72.707  69.769 106.668  0.00  0.00    +0.000 OA
BRANCH  44  45
ATOM     45  C19 UNL     1      71.465  70.341 106.279  0.00  0.00    +0.000 C 
ATOM     46  O8  UNL     1      70.920  69.557 105.223  0.00  0.00    +0.000 OA
ATOM     47  C20 UNL     1      71.350  69.929 103.924  0.00  0.00    +0.000 C 
ATOM     48  C21 UNL     1      72.849  69.680 103.689  0.00  0.00    +0.000 C 
ATOM     49  C22 UNL     1      70.889  71.349 103.536  0.00  0.00    +0.000 C 
ATOM     50  C23 UNL     1      70.801  72.331 104.726  0.00  0.00    +0.000 C 
ATOM     51  C24 UNL     1      71.647  71.849 105.941  0.00  0.00    +0.000 C 
BRANCH  50  52
ATOM     52  N1  UNL     1      69.377  72.681 105.003  0.00  0.00    +0.000 NA
ATOM     53  C25 UNL     1      68.406  71.876 104.241  0.00  0.00    +0.000 C 
ATOM     54  C26 UNL     1      69.034  74.113 104.964  0.00  0.00    +0.000 C 
ENDBRANCH  50  52
BRANCH  51  55
ATOM     55  O9  UNL     1      71.396  72.632 107.079  0.00  0.00    +0.000 OA
ATOM     56  H41 UNL     1      71.480  73.584 106.800  0.00  0.00    +0.000 HD
ENDBRANCH  51  55
ENDBRANCH  44  45
ENDBRANCH  10  44
BRANCH  17  57
ATOM     57  O11 UNL     1      79.396  71.990 105.699  0.00  0.00    +0.000 OA
BRANCH  57  58
ATOM     58  C33 UNL     1      80.771  71.897 106.035  0.00  0.00    +0.000 C 
BRANCH  58  59
ATOM     59  O12 UNL     1      80.948  70.829 106.940  0.00  0.00    +0.000 OA
BRANCH  59  60
ATOM     60  C34 UNL     1      81.842  71.214 107.961  0.00  0.00    +0.000 C 
BRANCH  60  61
ATOM     61  C35 UNL     1      81.065  71.415 109.260  0.00  0.00    +0.000 C 
BRANCH  61  62
ATOM     62  O13 UNL     1      80.037  70.445 109.378  0.00  0.00    +0.000 OA
ATOM     63  C36 UNL     1      79.346  70.607 110.597  0.00  0.00    +0.000 C 
ENDBRANCH  61  62
ENDBRANCH  60  61
ENDBRANCH  59  60
ENDBRANCH  58  59
ENDBRANCH  57  58
ENDBRANCH  17  57
TORSDOF 18
ENDMDL
MODEL 18
REMARK VINA RESULT:      -5.6      3.186      6.247
REMARK  Name = ./S2506.pdb
REMARK  32 active torsions:
REMARK  status: ('A' for Active; 'I' for Inactive)
REMARK    1  A    between atoms: C1_1  and  C2_2
REMARK    2  A    between atoms: C2_2  and  C3_3
REMARK    3  A    between atoms: C5_7  and  C6_8
REMARK    4  A    between atoms: C7_9  and  O3_10
REMARK    5  A    between atoms: O3_10  and  C8_11
REMARK    6  A    between atoms: C10_13  and  C11_14
REMARK    7  A    between atoms: C10_13  and  O4_15
REMARK    8  A    between atoms: O4_15  and  C12_16
REMARK    9  A    between atoms: C13_17  and  O5_18
REMARK   10  A    between atoms: C14_19  and  C15_20
REMARK   11  A    between atoms: C16_22  and  C17_23
REMARK   12  A    between atoms: C18_24  and  O7_25
REMARK   13  A    between atoms: O7_25  and  C19_26
REMARK   14  A    between atoms: C20_28  and  C21_29
REMARK   15  A    between atoms: C23_31  and  N1_34
REMARK   16  A    between atoms: C24_32  and  O9_33
REMARK   17  A    between atoms: N1_34  and  C25_35
REMARK   18  A    between atoms: N1_34  and  C26_36
REMARK   19  A    between atoms: C27_37  and  C28_38
REMARK   20  A    between atoms: C27_37  and  O10_39
REMARK   21  A    between atoms: C30_41  and  C31_42
REMARK   22  A    between atoms: N2_44  and  O11_45
REMARK   23  A    between atoms: O11_45  and  C33_46
REMARK   24  A    between atoms: C33_46  and  O12_47
REMARK   25  A    between atoms: O12_47  and  C34_48
REMARK   26  A    between atoms: C34_48  and  C35_49
REMARK   27  A    between atoms: C35_49  and  O13_50
REMARK   28  A    between atoms: O13_50  and  C36_51
REMARK   29  A    between atoms: C37_52  and  C38_53
REMARK   30  A    between atoms: C39_54  and  O14_55
REMARK   31  A    between atoms: C40_56  and  C41_57
REMARK   32  A    between atoms: C40_56  and  O15_58
REMARK                            x       y       z     vdW  Elec       q    Type
REMARK                         _______ _______ _______ _____ _____    ______ ____
ROOT
ATOM      1  C3  UNL     1      76.875  66.051 104.271  0.00  0.00    +0.000 C 
ATOM      2  O1  UNL     1      75.705  66.654 104.842  0.00  0.00    +0.000 OA
ATOM      3  C4  UNL     1      74.789  65.968 105.651  0.00  0.00    +0.000 C 
ATOM      4  O2  UNL     1      74.801  64.707 105.697  0.00  0.00    +0.000 OA
ATOM      5  C5  UNL     1      73.754  66.739 106.441  0.00  0.00    +0.000 C 
ATOM      6  C6  UNL     1      72.382  66.512 105.789  0.00  0.00    +0.000 C 
ATOM      7  C7  UNL     1      73.838  66.342 107.951  0.00  0.00    +0.000 C 
ATOM      8  C16 UNL     1      73.077  67.245 108.991  0.00  0.00    +0.000 C 
ATOM      9  C17 UNL     1      71.542  67.145 108.863  0.00  0.00    +0.000 C 
ATOM     10  C18 UNL     1      73.515  68.750 109.150  0.00  0.00    +0.000 C 
ATOM     11  C27 UNL     1      74.983  69.044 109.684  0.00  0.00    +0.000 C 
ATOM     12  C28 UNL     1      75.467  67.949 110.675  0.00  0.00    +0.000 C 
ATOM     13  C29 UNL     1      75.975  69.218 108.489  0.00  0.00    +0.000 C 
ATOM     14  C30 UNL     1      77.504  69.227 108.779  0.00  0.00    +0.000 C 
ATOM     15  C31 UNL     1      77.869  70.336 109.798  0.00  0.00    +0.000 C 
ATOM     16  C32 UNL     1      78.343  69.379 107.488  0.00  0.00    +0.000 C 
ATOM     17  N2  UNL     1      79.343  70.216 107.507  0.00  0.00    +0.000 NA
ATOM     18  C37 UNL     1      78.090  68.545 106.216  0.00  0.00    +0.000 C 
ATOM     19  C38 UNL     1      76.960  69.220 105.409  0.00  0.00    +0.000 C 
ATOM     20  C39 UNL     1      77.933  67.012 106.527  0.00  0.00    +0.000 C 
ATOM     21  C40 UNL     1      78.085  66.019 105.303  0.00  0.00    +0.000 C 
ATOM     22  C41 UNL     1      78.176  64.570 105.866  0.00  0.00    +0.000 C 
ENDROOT
BRANCH   1  24
ATOM     23  C1  UNL     1      76.571  65.987 101.721  0.00  0.00    +0.000 C 
ATOM     24  C2  UNL     1      77.230  66.697 102.905  0.00  0.00    +0.000 C 
ENDBRANCH   1  24
BRANCH  11  25
ATOM     25  O10 UNL     1      74.957  70.277 110.366  0.00  0.00    +0.000 OA
ATOM     26  H51 UNL     1      75.607  70.239 111.118  0.00  0.00    +0.000 HD
ENDBRANCH  11  25
BRANCH  20  27
ATOM     27  O14 UNL     1      78.925  66.689 107.479  0.00  0.00    +0.000 OA
ATOM     28  H72 UNL     1      78.740  65.772 107.812  0.00  0.00    +0.000 HD
ENDBRANCH  20  27
BRANCH  21  29
ATOM     29  O15 UNL     1      79.307  66.310 104.657  0.00  0.00    +0.000 OA
ATOM     30  H76 UNL     1      79.719  65.452 104.368  0.00  0.00    +0.000 HD
ENDBRANCH  21  29
BRANCH   7  31
ATOM     31  O3  UNL     1      73.388  64.998 108.087  0.00  0.00    +0.000 OA
BRANCH  31  32
ATOM     32  C8  UNL     1      73.902  64.323 109.231  0.00  0.00    +0.000 C 
ATOM     33  C9  UNL     1      73.579  62.810 109.087  0.00  0.00    +0.000 C 
ATOM     34  C10 UNL     1      74.853  61.946 108.981  0.00  0.00    +0.000 C 
ATOM     35  C11 UNL     1      74.440  60.457 109.028  0.00  0.00    +0.000 C 
ATOM     36  C13 UNL     1      75.780  62.322 110.189  0.00  0.00    +0.000 C 
ATOM     37  C14 UNL     1      75.986  63.868 110.282  0.00  0.00    +0.000 C 
ATOM     38  C15 UNL     1      75.747  64.485 111.672  0.00  0.00    +0.000 C 
ATOM     39  O6  UNL     1      75.298  64.582 109.265  0.00  0.00    +0.000 OA
BRANCH  34  40
ATOM     40  O4  UNL     1      75.420  62.265 107.706  0.00  0.00    +0.000 OA
ATOM     41  C12 UNL     1      75.113  61.349 106.673  0.00  0.00    +0.000 C 
ENDBRANCH  34  40
BRANCH  36  42
ATOM     42  O5  UNL     1      75.328  61.768 111.408  0.00  0.00    +0.000 OA
ATOM     43  H22 UNL     1      74.411  61.413 111.274  0.00  0.00    +0.000 HD
ENDBRANCH  36  42
ENDBRANCH  31  32
ENDBRANCH   7  31
BRANCH  10  44
ATOM     44  O7  UNL     1      73.295  69.445 107.925  0.00  0.00    +0.000 OA
BRANCH  44  45
ATOM     45  C19 UNL     1      72.273  70.430 107.985  0.00  0.00    +0.000 C 
ATOM     46  O8  UNL     1      71.340  70.173 106.940  0.00  0.00    +0.000 OA
ATOM     47  C20 UNL     1      71.663  70.770 105.695  0.00  0.00    +0.000 C 
ATOM     48  C21 UNL     1      72.936  70.191 105.059  0.00  0.00    +0.000 C 
ATOM     49  C22 UNL     1      71.648  72.312 105.761  0.00  0.00    +0.000 C 
ATOM     50  C23 UNL     1      72.080  72.888 107.129  0.00  0.00    +0.000 C 
ATOM     51  C24 UNL     1      72.894  71.856 107.964  0.00  0.00    +0.000 C 
BRANCH  50  52
ATOM     52  N1  UNL     1      70.916  73.527 107.811  0.00  0.00    +0.000 NA
ATOM     53  C25 UNL     1      69.625  73.275 107.147  0.00  0.00    +0.000 C 
ATOM     54  C26 UNL     1      71.065  74.948 108.170  0.00  0.00    +0.000 C 
ENDBRANCH  50  52
BRANCH  51  55
ATOM     55  O9  UNL     1      73.098  72.312 109.276  0.00  0.00    +0.000 OA
ATOM     56  H41 UNL     1      72.412  73.013 109.450  0.00  0.00    +0.000 HD
ENDBRANCH  51  55
ENDBRANCH  44  45
ENDBRANCH  10  44
BRANCH  17  57
ATOM     57  O11 UNL     1      80.183  70.430 106.434  0.00  0.00    +0.000 OA
BRANCH  57  58
ATOM     58  C33 UNL     1      81.466  70.997 106.639  0.00  0.00    +0.000 C 
BRANCH  58  59
ATOM     59  O12 UNL     1      82.101  70.316 107.699  0.00  0.00    +0.000 OA
BRANCH  59  60
ATOM     60  C34 UNL     1      82.744  71.245 108.544  0.00  0.00    +0.000 C 
BRANCH  60  61
ATOM     61  C35 UNL     1      81.824  71.577 109.717  0.00  0.00    +0.000 C 
BRANCH  61  62
ATOM     62  O13 UNL     1      81.249  70.393 110.246  0.00  0.00    +0.000 OA
ATOM     63  C36 UNL     1      81.324  70.397 111.654  0.00  0.00    +0.000 C 
ENDBRANCH  61  62
ENDBRANCH  60  61
ENDBRANCH  59  60
ENDBRANCH  58  59
ENDBRANCH  57  58
ENDBRANCH  17  57
TORSDOF 18
ENDMDL
MODEL 19
REMARK VINA RESULT:      -5.4      4.220      9.608
REMARK  Name = ./S2506.pdb
REMARK  32 active torsions:
REMARK  status: ('A' for Active; 'I' for Inactive)
REMARK    1  A    between atoms: C1_1  and  C2_2
REMARK    2  A    between atoms: C2_2  and  C3_3
REMARK    3  A    between atoms: C5_7  and  C6_8
REMARK    4  A    between atoms: C7_9  and  O3_10
REMARK    5  A    between atoms: O3_10  and  C8_11
REMARK    6  A    between atoms: C10_13  and  C11_14
REMARK    7  A    between atoms: C10_13  and  O4_15
REMARK    8  A    between atoms: O4_15  and  C12_16
REMARK    9  A    between atoms: C13_17  and  O5_18
REMARK   10  A    between atoms: C14_19  and  C15_20
REMARK   11  A    between atoms: C16_22  and  C17_23
REMARK   12  A    between atoms: C18_24  and  O7_25
REMARK   13  A    between atoms: O7_25  and  C19_26
REMARK   14  A    between atoms: C20_28  and  C21_29
REMARK   15  A    between atoms: C23_31  and  N1_34
REMARK   16  A    between atoms: C24_32  and  O9_33
REMARK   17  A    between atoms: N1_34  and  C25_35
REMARK   18  A    between atoms: N1_34  and  C26_36
REMARK   19  A    between atoms: C27_37  and  C28_38
REMARK   20  A    between atoms: C27_37  and  O10_39
REMARK   21  A    between atoms: C30_41  and  C31_42
REMARK   22  A    between atoms: N2_44  and  O11_45
REMARK   23  A    between atoms: O11_45  and  C33_46
REMARK   24  A    between atoms: C33_46  and  O12_47
REMARK   25  A    between atoms: O12_47  and  C34_48
REMARK   26  A    between atoms: C34_48  and  C35_49
REMARK   27  A    between atoms: C35_49  and  O13_50
REMARK   28  A    between atoms: O13_50  and  C36_51
REMARK   29  A    between atoms: C37_52  and  C38_53
REMARK   30  A    between atoms: C39_54  and  O14_55
REMARK   31  A    between atoms: C40_56  and  C41_57
REMARK   32  A    between atoms: C40_56  and  O15_58
REMARK                            x       y       z     vdW  Elec       q    Type
REMARK                         _______ _______ _______ _____ _____    ______ ____
ROOT
ATOM      1  C3  UNL     1      75.248  73.465 108.325  0.00  0.00    +0.000 C 
ATOM      2  O1  UNL     1      75.030  72.604 107.198  0.00  0.00    +0.000 OA
ATOM      3  C4  UNL     1      75.031  71.205 107.273  0.00  0.00    +0.000 C 
ATOM      4  O2  UNL     1      75.496  70.623 108.291  0.00  0.00    +0.000 OA
ATOM      5  C5  UNL     1      74.511  70.386 106.111  0.00  0.00    +0.000 C 
ATOM      6  C6  UNL     1      75.707  69.717 105.418  0.00  0.00    +0.000 C 
ATOM      7  C7  UNL     1      73.406  69.401 106.612  0.00  0.00    +0.000 C 
ATOM      8  C16 UNL     1      72.515  68.685 105.530  0.00  0.00    +0.000 C 
ATOM      9  C17 UNL     1      73.301  67.660 104.685  0.00  0.00    +0.000 C 
ATOM     10  C18 UNL     1      71.595  69.568 104.603  0.00  0.00    +0.000 C 
ATOM     11  C27 UNL     1      70.428  70.400 105.288  0.00  0.00    +0.000 C 
ATOM     12  C28 UNL     1      69.859  69.674 106.540  0.00  0.00    +0.000 C 
ATOM     13  C29 UNL     1      70.917  71.845 105.634  0.00  0.00    +0.000 C 
ATOM     14  C30 UNL     1      70.036  72.731 106.562  0.00  0.00    +0.000 C 
ATOM     15  C31 UNL     1      68.608  72.894 105.984  0.00  0.00    +0.000 C 
ATOM     16  C32 UNL     1      70.675  74.116 106.826  0.00  0.00    +0.000 C 
ATOM     17  N2  UNL     1      69.905  75.165 106.755  0.00  0.00    +0.000 NA
ATOM     18  C37 UNL     1      72.153  74.298 107.229  0.00  0.00    +0.000 C 
ATOM     19  C38 UNL     1      73.011  74.288 105.946  0.00  0.00    +0.000 C 
ATOM     20  C39 UNL     1      72.582  73.327 108.387  0.00  0.00    +0.000 C 
ATOM     21  C40 UNL     1      73.915  73.689 109.162  0.00  0.00    +0.000 C 
ATOM     22  C41 UNL     1      74.000  72.780 110.424  0.00  0.00    +0.000 C 
ENDROOT
BRANCH   1  24
ATOM     23  C1  UNL     1      77.477  74.687 107.959  0.00  0.00    +0.000 C 
ATOM     24  C2  UNL     1      75.952  74.780 107.900  0.00  0.00    +0.000 C 
ENDBRANCH   1  24
BRANCH  11  25
ATOM     25  O10 UNL     1      69.388  70.544 104.349  0.00  0.00    +0.000 OA
ATOM     26  H51 UNL     1      68.661  69.904 104.578  0.00  0.00    +0.000 HD
ENDBRANCH  11  25
BRANCH  20  27
ATOM     27  O14 UNL     1      71.522  73.317 109.320  0.00  0.00    +0.000 OA
ATOM     28  H72 UNL     1      71.596  74.137 109.875  0.00  0.00    +0.000 HD
ENDBRANCH  20  27
BRANCH  21  29
ATOM     29  O15 UNL     1      73.812  75.027 109.600  0.00  0.00    +0.000 OA
ATOM     30  H76 UNL     1      73.174  75.503 109.002  0.00  0.00    +0.000 HD
ENDBRANCH  21  29
BRANCH   7  31
ATOM     31  O3  UNL     1      74.024  68.412 107.429  0.00  0.00    +0.000 OA
BRANCH  31  32
ATOM     32  C8  UNL     1      73.142  67.385 107.872  0.00  0.00    +0.000 C 
ATOM     33  C9  UNL     1      73.978  66.328 108.645  0.00  0.00    +0.000 C 
ATOM     34  C10 UNL     1      73.570  66.230 110.130  0.00  0.00    +0.000 C 
ATOM     35  C11 UNL     1      74.318  65.036 110.766  0.00  0.00    +0.000 C 
ATOM     36  C13 UNL     1      72.015  66.024 110.180  0.00  0.00    +0.000 C 
ATOM     37  C14 UNL     1      71.276  67.097 109.318  0.00  0.00    +0.000 C 
ATOM     38  C15 UNL     1      70.230  66.547 108.332  0.00  0.00    +0.000 C 
ATOM     39  O6  UNL     1      72.163  68.011 108.689  0.00  0.00    +0.000 OA
BRANCH  34  40
ATOM     40  O4  UNL     1      74.001  67.460 110.722  0.00  0.00    +0.000 OA
ATOM     41  C12 UNL     1      75.402  67.593 110.863  0.00  0.00    +0.000 C 
ENDBRANCH  34  40
BRANCH  36  42
ATOM     42  O5  UNL     1      71.636  64.707 109.837  0.00  0.00    +0.000 OA
ATOM     43  H22 UNL     1      70.646  64.668 109.773  0.00  0.00    +0.000 HD
ENDBRANCH  36  42
ENDBRANCH  31  32
ENDBRANCH   7  31
BRANCH  10  44
ATOM     44  O7  UNL     1      72.406  70.431 103.808  0.00  0.00    +0.000 OA
BRANCH  44  45
ATOM     45  C19 UNL     1      72.447  70.091 102.429  0.00  0.00    +0.000 C 
ATOM     46  O8  UNL     1      73.811  69.982 102.035  0.00  0.00    +0.000 OA
ATOM     47  C20 UNL     1      74.409  71.199 101.619  0.00  0.00    +0.000 C 
ATOM     48  C21 UNL     1      74.545  72.224 102.756  0.00  0.00    +0.000 C 
ATOM     49  C22 UNL     1      73.754  71.770 100.344  0.00  0.00    +0.000 C 
ATOM     50  C23 UNL     1      72.243  71.469 100.222  0.00  0.00    +0.000 C 
ATOM     51  C24 UNL     1      71.610  71.104 101.597  0.00  0.00    +0.000 C 
BRANCH  50  52
ATOM     52  N1  UNL     1      71.995  70.515  99.101  0.00  0.00    +0.000 NA
ATOM     53  C25 UNL     1      73.223  69.923  98.540  0.00  0.00    +0.000 C 
ATOM     54  C26 UNL     1      71.088  70.976  98.036  0.00  0.00    +0.000 C 
ENDBRANCH  50  52
BRANCH  51  55
ATOM     55  O9  UNL     1      70.297  70.631 101.443  0.00  0.00    +0.000 OA
ATOM     56  H41 UNL     1      70.087  70.089 102.251  0.00  0.00    +0.000 HD
ENDBRANCH  51  55
ENDBRANCH  44  45
ENDBRANCH  10  44
BRANCH  17  57
ATOM     57  O11 UNL     1      70.341  76.452 106.988  0.00  0.00    +0.000 OA
BRANCH  57  58
ATOM     58  C33 UNL     1      70.205  77.441 105.981  0.00  0.00    +0.000 C 
BRANCH  58  59
ATOM     59  O12 UNL     1      71.345  77.404 105.149  0.00  0.00    +0.000 OA
BRANCH  59  60
ATOM     60  C34 UNL     1      70.946  77.421 103.795  0.00  0.00    +0.000 C 
BRANCH  60  61
ATOM     61  C35 UNL     1      71.081  76.015 103.214  0.00  0.00    +0.000 C 
BRANCH  61  62
ATOM     62  O13 UNL     1      70.197  75.844 102.119  0.00  0.00    +0.000 OA
ATOM     63  C36 UNL     1      70.666  76.553 100.993  0.00  0.00    +0.000 C 
ENDBRANCH  61  62
ENDBRANCH  60  61
ENDBRANCH  59  60
ENDBRANCH  58  59
ENDBRANCH  57  58
ENDBRANCH  17  57
TORSDOF 18
ENDMDL
MODEL 20
REMARK VINA RESULT:      -5.4      3.042      8.829
REMARK  Name = ./S2506.pdb
REMARK  32 active torsions:
REMARK  status: ('A' for Active; 'I' for Inactive)
REMARK    1  A    between atoms: C1_1  and  C2_2
REMARK    2  A    between atoms: C2_2  and  C3_3
REMARK    3  A    between atoms: C5_7  and  C6_8
REMARK    4  A    between atoms: C7_9  and  O3_10
REMARK    5  A    between atoms: O3_10  and  C8_11
REMARK    6  A    between atoms: C10_13  and  C11_14
REMARK    7  A    between atoms: C10_13  and  O4_15
REMARK    8  A    between atoms: O4_15  and  C12_16
REMARK    9  A    between atoms: C13_17  and  O5_18
REMARK   10  A    between atoms: C14_19  and  C15_20
REMARK   11  A    between atoms: C16_22  and  C17_23
REMARK   12  A    between atoms: C18_24  and  O7_25
REMARK   13  A    between atoms: O7_25  and  C19_26
REMARK   14  A    between atoms: C20_28  and  C21_29
REMARK   15  A    between atoms: C23_31  and  N1_34
REMARK   16  A    between atoms: C24_32  and  O9_33
REMARK   17  A    between atoms: N1_34  and  C25_35
REMARK   18  A    between atoms: N1_34  and  C26_36
REMARK   19  A    between atoms: C27_37  and  C28_38
REMARK   20  A    between atoms: C27_37  and  O10_39
REMARK   21  A    between atoms: C30_41  and  C31_42
REMARK   22  A    between atoms: N2_44  and  O11_45
REMARK   23  A    between atoms: O11_45  and  C33_46
REMARK   24  A    between atoms: C33_46  and  O12_47
REMARK   25  A    between atoms: O12_47  and  C34_48
REMARK   26  A    between atoms: C34_48  and  C35_49
REMARK   27  A    between atoms: C35_49  and  O13_50
REMARK   28  A    between atoms: O13_50  and  C36_51
REMARK   29  A    between atoms: C37_52  and  C38_53
REMARK   30  A    between atoms: C39_54  and  O14_55
REMARK   31  A    between atoms: C40_56  and  C41_57
REMARK   32  A    between atoms: C40_56  and  O15_58
REMARK                            x       y       z     vdW  Elec       q    Type
REMARK                         _______ _______ _______ _____ _____    ______ ____
ROOT
ATOM      1  C3  UNL     1      77.708  70.534 106.000  0.00  0.00    +0.000 C 
ATOM      2  O1  UNL     1      76.684  70.075 106.894  0.00  0.00    +0.000 OA
ATOM      3  C4  UNL     1      75.335  70.437 106.788  0.00  0.00    +0.000 C 
ATOM      4  O2  UNL     1      74.994  71.409 106.060  0.00  0.00    +0.000 OA
ATOM      5  C5  UNL     1      74.287  69.689 107.583  0.00  0.00    +0.000 C 
ATOM      6  C6  UNL     1      73.789  70.605 108.710  0.00  0.00    +0.000 C 
ATOM      7  C7  UNL     1      73.172  69.163 106.622  0.00  0.00    +0.000 C 
ATOM      8  C16 UNL     1      72.160  68.097 107.185  0.00  0.00    +0.000 C 
ATOM      9  C17 UNL     1      71.215  68.675 108.259  0.00  0.00    +0.000 C 
ATOM     10  C18 UNL     1      72.714  66.694 107.641  0.00  0.00    +0.000 C 
ATOM     11  C27 UNL     1      73.376  65.761 106.538  0.00  0.00    +0.000 C 
ATOM     12  C28 UNL     1      72.716  65.959 105.144  0.00  0.00    +0.000 C 
ATOM     13  C29 UNL     1      74.921  65.992 106.481  0.00  0.00    +0.000 C 
ATOM     14  C30 UNL     1      75.723  65.400 105.286  0.00  0.00    +0.000 C 
ATOM     15  C31 UNL     1      75.520  63.868 105.186  0.00  0.00    +0.000 C 
ATOM     16  C32 UNL     1      77.230  65.743 105.367  0.00  0.00    +0.000 C 
ATOM     17  N2  UNL     1      78.085  64.790 105.124  0.00  0.00    +0.000 NA
ATOM     18  C37 UNL     1      77.756  67.164 105.656  0.00  0.00    +0.000 C 
ATOM     19  C38 UNL     1      77.754  67.382 107.184  0.00  0.00    +0.000 C 
ATOM     20  C39 UNL     1      77.047  68.255 104.775  0.00  0.00    +0.000 C 
ATOM     21  C40 UNL     1      77.765  69.663 104.671  0.00  0.00    +0.000 C 
ATOM     22  C41 UNL     1      77.061  70.482 103.549  0.00  0.00    +0.000 C 
ENDROOT
BRANCH   1  24
ATOM     23  C1  UNL     1      78.933  70.740 108.248  0.00  0.00    +0.000 C 
ATOM     24  C2  UNL     1      79.073  70.662 106.727  0.00  0.00    +0.000 C 
ENDBRANCH   1  24
BRANCH  11  25
ATOM     25  O10 UNL     1      73.185  64.422 106.932  0.00  0.00    +0.000 OA
ATOM     26  H51 UNL     1      72.811  63.914 106.162  0.00  0.00    +0.000 HD
ENDBRANCH  11  25
BRANCH  20  27
ATOM     27  O14 UNL     1      76.943  67.719 103.473  0.00  0.00    +0.000 OA
ATOM     28  H72 UNL     1      77.340  66.808 103.486  0.00  0.00    +0.000 HD
ENDBRANCH  20  27
BRANCH  21  29
ATOM     29  O15 UNL     1      79.100  69.439 104.270  0.00  0.00    +0.000 OA
ATOM     30  H76 UNL     1      79.516  70.319 104.065  0.00  0.00    +0.000 HD
ENDBRANCH  21  29
BRANCH   7  31
ATOM     31  O3  UNL     1      72.441  70.281 106.129  0.00  0.00    +0.000 OA
BRANCH  31  32
ATOM     32  C8  UNL     1      72.128  70.209 104.742  0.00  0.00    +0.000 C 
ATOM     33  C9  UNL     1      70.589  70.051 104.599  0.00  0.00    +0.000 C 
ATOM     34  C10 UNL     1      69.942  71.252 103.877  0.00  0.00    +0.000 C 
ATOM     35  C11 UNL     1      68.453  70.923 103.619  0.00  0.00    +0.000 C 
ATOM     36  C13 UNL     1      70.721  71.472 102.534  0.00  0.00    +0.000 C 
ATOM     37  C14 UNL     1      72.261  71.550 102.782  0.00  0.00    +0.000 C 
ATOM     38  C15 UNL     1      73.123  70.651 101.877  0.00  0.00    +0.000 C 
ATOM     39  O6  UNL     1      72.611  71.407 104.151  0.00  0.00    +0.000 OA
BRANCH  34  40
ATOM     40  O4  UNL     1      70.058  72.348 104.790  0.00  0.00    +0.000 OA
ATOM     41  C12 UNL     1      69.256  72.244 105.950  0.00  0.00    +0.000 C 
ENDBRANCH  34  40
BRANCH  36  42
ATOM     42  O5  UNL     1      70.384  70.512 101.553  0.00  0.00    +0.000 OA
ATOM     43  H22 UNL     1      70.569  70.896 100.656  0.00  0.00    +0.000 HD
ENDBRANCH  36  42
ENDBRANCH  31  32
ENDBRANCH   7  31
BRANCH  10  44
ATOM     44  O7  UNL     1      73.614  66.868 108.734  0.00  0.00    +0.000 OA
BRANCH  44  45
ATOM     45  C19 UNL     1      73.395  65.977 109.819  0.00  0.00    +0.000 C 
ATOM     46  O8  UNL     1      73.018  66.743 110.959  0.00  0.00    +0.000 OA
ATOM     47  C20 UNL     1      74.101  67.222 111.738  0.00  0.00    +0.000 C 
ATOM     48  C21 UNL     1      74.965  68.257 111.001  0.00  0.00    +0.000 C 
ATOM     49  C22 UNL     1      74.915  66.079 112.380  0.00  0.00    +0.000 C 
ATOM     50  C23 UNL     1      74.973  64.791 111.527  0.00  0.00    +0.000 C 
ATOM     51  C24 UNL     1      74.640  65.068 110.032  0.00  0.00    +0.000 C 
BRANCH  50  52
ATOM     52  N1  UNL     1      74.202  63.697 112.189  0.00  0.00    +0.000 NA
ATOM     53  C25 UNL     1      73.330  64.162 113.283  0.00  0.00    +0.000 C 
ATOM     54  C26 UNL     1      74.966  62.502 112.584  0.00  0.00    +0.000 C 
ENDBRANCH  50  52
BRANCH  51  55
ATOM     55  O9  UNL     1      74.490  63.871 109.314  0.00  0.00    +0.000 OA
ATOM     56  H41 UNL     1      74.490  64.111 108.347  0.00  0.00    +0.000 HD
ENDBRANCH  51  55
ENDBRANCH  44  45
ENDBRANCH  10  44
BRANCH  17  57
ATOM     57  O11 UNL     1      79.453  64.966 105.141  0.00  0.00    +0.000 OA
BRANCH  57  58
ATOM     58  C33 UNL     1      80.205  64.571 106.276  0.00  0.00    +0.000 C 
BRANCH  58  59
ATOM     59  O12 UNL     1      79.498  63.561 106.963  0.00  0.00    +0.000 OA
BRANCH  59  60
ATOM     60  C34 UNL     1      79.398  63.897 108.330  0.00  0.00    +0.000 C 
BRANCH  60  61
ATOM     61  C35 UNL     1      77.927  64.091 108.692  0.00  0.00    +0.000 C 
BRANCH  61  62
ATOM     62  O13 UNL     1      77.474  63.028 109.513  0.00  0.00    +0.000 OA
ATOM     63  C36 UNL     1      78.418  62.750 110.523  0.00  0.00    +0.000 C 
ENDBRANCH  61  62
ENDBRANCH  60  61
ENDBRANCH  59  60
ENDBRANCH  58  59
ENDBRANCH  57  58
ENDBRANCH  17  57
TORSDOF 18
ENDMDL
