MODEL 1
REMARK VINA RESULT:      -6.5      0.000      0.000
REMARK  Name = ./S2534.pdb
REMARK  6 active torsions:
REMARK  status: ('A' for Active; 'I' for Inactive)
REMARK    1  A    between atoms: C4_5  and  C5_6
REMARK    2  A    between atoms: C5_6  and  C6_7
REMARK    3  A    between atoms: C5_6  and  O1_13
REMARK    4  A    between atoms: C6_7  and  N1_8
REMARK    5  A    between atoms: O1_13  and  C10_14
REMARK    6  A    between atoms: C10_14  and  C11_15
REMARK                            x       y       z     vdW  Elec       q    Type
REMARK                         _______ _______ _______ _____ _____    ______ ____
ROOT
ATOM      1  C5  UNL     1      62.705  57.655 106.388  0.00  0.00    +0.000 C 
ENDROOT
BRANCH   1   6
ATOM      2 CL1  UNL     1      63.538  60.668 101.160  0.00  0.00    +0.000 Cl
ATOM      3  C1  UNL     1      63.314  59.790 102.662  0.00  0.00    +0.000 A 
ATOM      4  C2  UNL     1      62.900  60.465 103.811  0.00  0.00    +0.000 A 
ATOM      5  C3  UNL     1      62.718  59.769 105.006  0.00  0.00    +0.000 A 
ATOM      6  C4  UNL     1      62.954  58.381 105.076  0.00  0.00    +0.000 A 
ATOM      7  C17 UNL     1      63.365  57.701 103.901  0.00  0.00    +0.000 A 
ATOM      8  C18 UNL     1      63.543  58.413 102.709  0.00  0.00    +0.000 A 
ATOM      9 CL4  UNL     1      63.656  55.964 103.862  0.00  0.00    +0.000 Cl
ENDBRANCH   1   6
BRANCH   1  10
ATOM     10  C6  UNL     1      61.199  57.623 106.704  0.00  0.00    +0.000 C 
BRANCH  10  11
ATOM     11  N1  UNL     1      60.702  56.249 106.759  0.00  0.00    +0.000 N 
ATOM     12  C7  UNL     1      60.520  55.412 105.725  0.00  0.00    +0.000 A 
ATOM     13  C8  UNL     1      60.110  54.200 106.233  0.00  0.00    +0.000 A 
ATOM     14  N2  UNL     1      60.041  54.271 107.579  0.00  0.00    +0.000 NA
ATOM     15  C9  UNL     1      60.413  55.537 107.865  0.00  0.00    +0.000 A 
ENDBRANCH  10  11
ENDBRANCH   1  10
BRANCH   1  16
ATOM     16  O1  UNL     1      63.383  58.350 107.424  0.00  0.00    +0.000 OA
BRANCH  16  17
ATOM     17  C10 UNL     1      63.562  57.531 108.562  0.00  0.00    +0.000 C 
BRANCH  17  18
ATOM     18  C11 UNL     1      63.899  58.409 109.742  0.00  0.00    +0.000 A 
ATOM     19  C12 UNL     1      65.193  58.967 109.878  0.00  0.00    +0.000 A 
ATOM     20 CL2  UNL     1      66.468  58.671 108.697  0.00  0.00    +0.000 Cl
ATOM     21  C13 UNL     1      65.489  59.799 110.964  0.00  0.00    +0.000 A 
ATOM     22  C14 UNL     1      64.509  60.102 111.908  0.00  0.00    +0.000 A 
ATOM     23  C15 UNL     1      63.221  59.588 111.767  0.00  0.00    +0.000 A 
ATOM     24  C16 UNL     1      62.904  58.755 110.688  0.00  0.00    +0.000 A 
ATOM     25 CL3  UNL     1      61.242  58.187 110.547  0.00  0.00    +0.000 Cl
ENDBRANCH  17  18
ENDBRANCH  16  17
ENDBRANCH   1  16
TORSDOF 6
ENDMDL
MODEL 2
REMARK VINA RESULT:      -6.5      0.052      1.850
REMARK  Name = ./S2534.pdb
REMARK  6 active torsions:
REMARK  status: ('A' for Active; 'I' for Inactive)
REMARK    1  A    between atoms: C4_5  and  C5_6
REMARK    2  A    between atoms: C5_6  and  C6_7
REMARK    3  A    between atoms: C5_6  and  O1_13
REMARK    4  A    between atoms: C6_7  and  N1_8
REMARK    5  A    between atoms: O1_13  and  C10_14
REMARK    6  A    between atoms: C10_14  and  C11_15
REMARK                            x       y       z     vdW  Elec       q    Type
REMARK                         _______ _______ _______ _____ _____    ______ ____
ROOT
ATOM      1  C5  UNL     1      62.705  57.683 106.379  0.00  0.00    +0.000 C 
ENDROOT
BRANCH   1   6
ATOM      2 CL1  UNL     1      63.541  60.646 101.123  0.00  0.00    +0.000 Cl
ATOM      3  C1  UNL     1      63.316  59.782 102.633  0.00  0.00    +0.000 A 
ATOM      4  C2  UNL     1      62.901  60.468 103.774  0.00  0.00    +0.000 A 
ATOM      5  C3  UNL     1      62.718  59.783 104.976  0.00  0.00    +0.000 A 
ATOM      6  C4  UNL     1      62.954  58.397 105.060  0.00  0.00    +0.000 A 
ATOM      7  C17 UNL     1      63.366  57.705 103.892  0.00  0.00    +0.000 A 
ATOM      8  C18 UNL     1      63.546  58.406 102.693  0.00  0.00    +0.000 A 
ATOM      9 CL4  UNL     1      63.659  55.969 103.869  0.00  0.00    +0.000 Cl
ENDBRANCH   1   6
BRANCH   1  10
ATOM     10  C6  UNL     1      61.197  57.640 106.686  0.00  0.00    +0.000 C 
BRANCH  10  11
ATOM     11  N1  UNL     1      60.714  56.262 106.754  0.00  0.00    +0.000 N 
ATOM     12  C7  UNL     1      60.523  55.418 105.727  0.00  0.00    +0.000 A 
ATOM     13  C8  UNL     1      60.132  54.205 106.246  0.00  0.00    +0.000 A 
ATOM     14  N2  UNL     1      60.084  54.281 107.592  0.00  0.00    +0.000 NA
ATOM     15  C9  UNL     1      60.448  55.551 107.867  0.00  0.00    +0.000 A 
ENDBRANCH  10  11
ENDBRANCH   1  10
BRANCH   1  16
ATOM     16  O1  UNL     1      63.369  58.397 107.411  0.00  0.00    +0.000 OA
BRANCH  16  17
ATOM     17  C10 UNL     1      63.536  57.598 108.564  0.00  0.00    +0.000 C 
BRANCH  17  18
ATOM     18  C11 UNL     1      63.867  58.495 109.732  0.00  0.00    +0.000 A 
ATOM     19  C12 UNL     1      62.886  58.801 110.704  0.00  0.00    +0.000 A 
ATOM     20 CL2  UNL     1      61.245  58.166 110.611  0.00  0.00    +0.000 Cl
ATOM     21  C13 UNL     1      63.209  59.615 111.797  0.00  0.00    +0.000 A 
ATOM     22  C14 UNL     1      64.503  60.112 111.946  0.00  0.00    +0.000 A 
ATOM     23  C15 UNL     1      65.488  59.789 111.015  0.00  0.00    +0.000 A 
ATOM     24  C16 UNL     1      65.185  58.977 109.916  0.00  0.00    +0.000 A 
ATOM     25 CL3  UNL     1      66.494  58.569 108.810  0.00  0.00    +0.000 Cl
ENDBRANCH  17  18
ENDBRANCH  16  17
ENDBRANCH   1  16
TORSDOF 6
ENDMDL
MODEL 3
REMARK VINA RESULT:      -6.5      2.898      6.316
REMARK  Name = ./S2534.pdb
REMARK  6 active torsions:
REMARK  status: ('A' for Active; 'I' for Inactive)
REMARK    1  A    between atoms: C4_5  and  C5_6
REMARK    2  A    between atoms: C5_6  and  C6_7
REMARK    3  A    between atoms: C5_6  and  O1_13
REMARK    4  A    between atoms: C6_7  and  N1_8
REMARK    5  A    between atoms: O1_13  and  C10_14
REMARK    6  A    between atoms: C10_14  and  C11_15
REMARK                            x       y       z     vdW  Elec       q    Type
REMARK                         _______ _______ _______ _____ _____    ______ ____
ROOT
ATOM      1  C5  UNL     1      61.120  56.002 104.607  0.00  0.00    +0.000 C 
ENDROOT
BRANCH   1   6
ATOM      2 CL1  UNL     1      65.348  58.131 108.439  0.00  0.00    +0.000 Cl
ATOM      3  C1  UNL     1      64.118  57.531 107.341  0.00  0.00    +0.000 A 
ATOM      4  C2  UNL     1      64.472  57.109 106.060  0.00  0.00    +0.000 A 
ATOM      5  C3  UNL     1      63.497  56.629 105.185  0.00  0.00    +0.000 A 
ATOM      6  C4  UNL     1      62.144  56.568 105.577  0.00  0.00    +0.000 A 
ATOM      7  C17 UNL     1      61.794  56.990 106.885  0.00  0.00    +0.000 A 
ATOM      8  C18 UNL     1      62.784  57.470 107.751  0.00  0.00    +0.000 A 
ATOM      9 CL4  UNL     1      60.143  56.928 107.493  0.00  0.00    +0.000 Cl
ENDBRANCH   1   6
BRANCH   1  10
ATOM     10  C6  UNL     1      61.294  54.477 104.476  0.00  0.00    +0.000 C 
BRANCH  10  11
ATOM     11  N1  UNL     1      60.161  53.767 105.068  0.00  0.00    +0.000 N 
ATOM     12  C7  UNL     1      60.187  52.577 105.690  0.00  0.00    +0.000 A 
ATOM     13  C8  UNL     1      58.918  52.318 106.156  0.00  0.00    +0.000 A 
ATOM     14  N2  UNL     1      58.099  53.343 105.835  0.00  0.00    +0.000 NA
ATOM     15  C9  UNL     1      58.894  54.210 105.174  0.00  0.00    +0.000 A 
ENDBRANCH  10  11
ENDBRANCH   1  10
BRANCH   1  16
ATOM     16  O1  UNL     1      61.321  56.603 103.336  0.00  0.00    +0.000 OA
BRANCH  16  17
ATOM     17  C10 UNL     1      60.749  57.894 103.282  0.00  0.00    +0.000 C 
BRANCH  17  18
ATOM     18  C11 UNL     1      61.659  58.793 102.479  0.00  0.00    +0.000 A 
ATOM     19  C12 UNL     1      61.668  58.729 101.066  0.00  0.00    +0.000 A 
ATOM     20 CL2  UNL     1      60.639  57.612 100.171  0.00  0.00    +0.000 Cl
ATOM     21  C13 UNL     1      62.498  59.584 100.329  0.00  0.00    +0.000 A 
ATOM     22  C14 UNL     1      63.303  60.517 100.980  0.00  0.00    +0.000 A 
ATOM     23  C15 UNL     1      63.276  60.615 102.371  0.00  0.00    +0.000 A 
ATOM     24  C16 UNL     1      62.454  59.770 103.124  0.00  0.00    +0.000 A 
ATOM     25 CL3  UNL     1      62.434  59.988 104.873  0.00  0.00    +0.000 Cl
ENDBRANCH  17  18
ENDBRANCH  16  17
ENDBRANCH   1  16
TORSDOF 6
ENDMDL
MODEL 4
REMARK VINA RESULT:      -6.5      2.581      6.362
REMARK  Name = ./S2534.pdb
REMARK  6 active torsions:
REMARK  status: ('A' for Active; 'I' for Inactive)
REMARK    1  A    between atoms: C4_5  and  C5_6
REMARK    2  A    between atoms: C5_6  and  C6_7
REMARK    3  A    between atoms: C5_6  and  O1_13
REMARK    4  A    between atoms: C6_7  and  N1_8
REMARK    5  A    between atoms: O1_13  and  C10_14
REMARK    6  A    between atoms: C10_14  and  C11_15
REMARK                            x       y       z     vdW  Elec       q    Type
REMARK                         _______ _______ _______ _____ _____    ______ ____
ROOT
ATOM      1  C5  UNL     1      61.184  56.442 105.215  0.00  0.00    +0.000 C 
ENDROOT
BRANCH   1   6
ATOM      2 CL1  UNL     1      65.593  58.168 109.048  0.00  0.00    +0.000 Cl
ATOM      3  C1  UNL     1      64.311  57.684 107.952  0.00  0.00    +0.000 A 
ATOM      4  C2  UNL     1      64.600  57.419 106.613  0.00  0.00    +0.000 A 
ATOM      5  C3  UNL     1      63.583  57.031 105.740  0.00  0.00    +0.000 A 
ATOM      6  C4  UNL     1      62.254  56.906 106.191  0.00  0.00    +0.000 A 
ATOM      7  C17 UNL     1      61.970  57.167 107.555  0.00  0.00    +0.000 A 
ATOM      8  C18 UNL     1      63.001  57.557 108.420  0.00  0.00    +0.000 A 
ATOM      9 CL4  UNL     1      60.354  57.012 108.237  0.00  0.00    +0.000 Cl
ENDBRANCH   1   6
BRANCH   1  10
ATOM     10  C6  UNL     1      61.095  54.905 105.210  0.00  0.00    +0.000 C 
BRANCH  10  11
ATOM     11  N1  UNL     1      59.718  54.460 105.002  0.00  0.00    +0.000 N 
ATOM     12  C7  UNL     1      58.988  54.580 103.881  0.00  0.00    +0.000 A 
ATOM     13  C8  UNL     1      57.777  53.962 104.099  0.00  0.00    +0.000 A 
ATOM     14  N2  UNL     1      57.747  53.450 105.347  0.00  0.00    +0.000 NA
ATOM     15  C9  UNL     1      58.950  53.771 105.868  0.00  0.00    +0.000 A 
ENDBRANCH  10  11
ENDBRANCH   1  10
BRANCH   1  16
ATOM     16  O1  UNL     1      61.534  56.891 103.914  0.00  0.00    +0.000 OA
BRANCH  16  17
ATOM     17  C10 UNL     1      60.789  58.034 103.546  0.00  0.00    +0.000 C 
BRANCH  17  18
ATOM     18  C11 UNL     1      61.595  58.841 102.558  0.00  0.00    +0.000 A 
ATOM     19  C12 UNL     1      62.511  59.821 103.008  0.00  0.00    +0.000 A 
ATOM     20 CL2  UNL     1      62.760  60.155 104.720  0.00  0.00    +0.000 Cl
ATOM     21  C13 UNL     1      63.272  60.548 102.084  0.00  0.00    +0.000 A 
ATOM     22  C14 UNL     1      63.148  60.299 100.718  0.00  0.00    +0.000 A 
ATOM     23  C15 UNL     1      62.275  59.311 100.264  0.00  0.00    +0.000 A 
ATOM     24  C16 UNL     1      61.507  58.574 101.171  0.00  0.00    +0.000 A 
ATOM     25 CL3  UNL     1      60.465  57.307 100.526  0.00  0.00    +0.000 Cl
ENDBRANCH  17  18
ENDBRANCH  16  17
ENDBRANCH   1  16
TORSDOF 6
ENDMDL
MODEL 5
REMARK VINA RESULT:      -6.3      2.224      6.752
REMARK  Name = ./S2534.pdb
REMARK  6 active torsions:
REMARK  status: ('A' for Active; 'I' for Inactive)
REMARK    1  A    between atoms: C4_5  and  C5_6
REMARK    2  A    between atoms: C5_6  and  C6_7
REMARK    3  A    between atoms: C5_6  and  O1_13
REMARK    4  A    between atoms: C6_7  and  N1_8
REMARK    5  A    between atoms: O1_13  and  C10_14
REMARK    6  A    between atoms: C10_14  and  C11_15
REMARK                            x       y       z     vdW  Elec       q    Type
REMARK                         _______ _______ _______ _____ _____    ______ ____
ROOT
ATOM      1  C5  UNL     1      62.514  58.104 105.696  0.00  0.00    +0.000 C 
ENDROOT
BRANCH   1   6
ATOM      2 CL1  UNL     1      66.814  58.825 109.950  0.00  0.00    +0.000 Cl
ATOM      3  C1  UNL     1      65.572  58.636 108.724  0.00  0.00    +0.000 A 
ATOM      4  C2  UNL     1      65.747  57.717 107.689  0.00  0.00    +0.000 A 
ATOM      5  C3  UNL     1      64.760  57.563 106.715  0.00  0.00    +0.000 A 
ATOM      6  C4  UNL     1      63.580  58.332 106.755  0.00  0.00    +0.000 A 
ATOM      7  C17 UNL     1      63.407  59.257 107.816  0.00  0.00    +0.000 A 
ATOM      8  C18 UNL     1      64.406  59.402 108.786  0.00  0.00    +0.000 A 
ATOM      9 CL4  UNL     1      61.960  60.247 107.986  0.00  0.00    +0.000 Cl
ENDBRANCH   1   6
BRANCH   1  10
ATOM     10  C6  UNL     1      62.357  56.599 105.410  0.00  0.00    +0.000 C 
BRANCH  10  11
ATOM     11  N1  UNL     1      61.194  56.050 106.106  0.00  0.00    +0.000 N 
ATOM     12  C7  UNL     1      60.544  54.910 105.822  0.00  0.00    +0.000 A 
ATOM     13  C8  UNL     1      59.560  54.741 106.769  0.00  0.00    +0.000 A 
ATOM     14  N2  UNL     1      59.594  55.764 107.648  0.00  0.00    +0.000 NA
ATOM     15  C9  UNL     1      60.607  56.543 107.213  0.00  0.00    +0.000 A 
ENDBRANCH  10  11
ENDBRANCH   1  10
BRANCH   1  16
ATOM     16  O1  UNL     1      62.913  58.764 104.503  0.00  0.00    +0.000 OA
BRANCH  16  17
ATOM     17  C10 UNL     1      61.857  59.531 103.962  0.00  0.00    +0.000 C 
BRANCH  17  18
ATOM     18  C11 UNL     1      61.576  59.046 102.560  0.00  0.00    +0.000 A 
ATOM     19  C12 UNL     1      60.502  58.160 102.308  0.00  0.00    +0.000 A 
ATOM     20 CL2  UNL     1      59.448  57.575 103.594  0.00  0.00    +0.000 Cl
ATOM     21  C13 UNL     1      60.234  57.735 101.001  0.00  0.00    +0.000 A 
ATOM     22  C14 UNL     1      61.007  58.197  99.938  0.00  0.00    +0.000 A 
ATOM     23  C15 UNL     1      62.045  59.098 100.168  0.00  0.00    +0.000 A 
ATOM     24  C16 UNL     1      62.329  59.535 101.466  0.00  0.00    +0.000 A 
ATOM     25 CL3  UNL     1      63.621  60.715 101.673  0.00  0.00    +0.000 Cl
ENDBRANCH  17  18
ENDBRANCH  16  17
ENDBRANCH   1  16
TORSDOF 6
ENDMDL
MODEL 6
REMARK VINA RESULT:      -6.2      2.904      7.248
REMARK  Name = ./S2534.pdb
REMARK  6 active torsions:
REMARK  status: ('A' for Active; 'I' for Inactive)
REMARK    1  A    between atoms: C4_5  and  C5_6
REMARK    2  A    between atoms: C5_6  and  C6_7
REMARK    3  A    between atoms: C5_6  and  O1_13
REMARK    4  A    between atoms: C6_7  and  N1_8
REMARK    5  A    between atoms: O1_13  and  C10_14
REMARK    6  A    between atoms: C10_14  and  C11_15
REMARK                            x       y       z     vdW  Elec       q    Type
REMARK                         _______ _______ _______ _____ _____    ______ ____
ROOT
ATOM      1  C5  UNL     1      63.195  57.961 105.005  0.00  0.00    +0.000 C 
ENDROOT
BRANCH   1   6
ATOM      2 CL1  UNL     1      63.776  59.351 110.907  0.00  0.00    +0.000 Cl
ATOM      3  C1  UNL     1      63.590  58.947 109.210  0.00  0.00    +0.000 A 
ATOM      4  C2  UNL     1      64.242  59.704 108.237  0.00  0.00    +0.000 A 
ATOM      5  C3  UNL     1      64.098  59.383 106.886  0.00  0.00    +0.000 A 
ATOM      6  C4  UNL     1      63.292  58.300 106.484  0.00  0.00    +0.000 A 
ATOM      7  C17 UNL     1      62.641  57.529 107.481  0.00  0.00    +0.000 A 
ATOM      8  C18 UNL     1      62.794  57.863 108.832  0.00  0.00    +0.000 A 
ATOM      9 CL4  UNL     1      61.636  56.134 107.098  0.00  0.00    +0.000 Cl
ENDBRANCH   1   6
BRANCH   1  10
ATOM     10  C6  UNL     1      64.326  56.998 104.601  0.00  0.00    +0.000 C 
BRANCH  10  11
ATOM     11  N1  UNL     1      64.226  56.633 103.190  0.00  0.00    +0.000 N 
ATOM     12  C7  UNL     1      63.347  55.784 102.633  0.00  0.00    +0.000 A 
ATOM     13  C8  UNL     1      63.560  55.790 101.273  0.00  0.00    +0.000 A 
ATOM     14  N2  UNL     1      64.563  56.642 100.974  0.00  0.00    +0.000 NA
ATOM     15  C9  UNL     1      64.944  57.141 102.169  0.00  0.00    +0.000 A 
ENDBRANCH  10  11
ENDBRANCH   1  10
BRANCH   1  16
ATOM     16  O1  UNL     1      63.317  59.163 104.258  0.00  0.00    +0.000 OA
BRANCH  16  17
ATOM     17  C10 UNL     1      62.052  59.665 103.880  0.00  0.00    +0.000 C 
BRANCH  17  18
ATOM     18  C11 UNL     1      61.686  59.093 102.532  0.00  0.00    +0.000 A 
ATOM     19  C12 UNL     1      60.632  58.158 102.410  0.00  0.00    +0.000 A 
ATOM     20 CL2  UNL     1      59.700  57.610 103.801  0.00  0.00    +0.000 Cl
ATOM     21  C13 UNL     1      60.285  57.651 101.151  0.00  0.00    +0.000 A 
ATOM     22  C14 UNL     1      60.959  58.079 100.009  0.00  0.00    +0.000 A 
ATOM     23  C15 UNL     1      61.976  59.027 100.111  0.00  0.00    +0.000 A 
ATOM     24  C16 UNL     1      62.337  59.546 101.359  0.00  0.00    +0.000 A 
ATOM     25 CL3  UNL     1      63.595  60.779 101.404  0.00  0.00    +0.000 Cl
ENDBRANCH  17  18
ENDBRANCH  16  17
ENDBRANCH   1  16
TORSDOF 6
ENDMDL
MODEL 7
REMARK VINA RESULT:      -6.2      4.254      7.361
REMARK  Name = ./S2534.pdb
REMARK  6 active torsions:
REMARK  status: ('A' for Active; 'I' for Inactive)
REMARK    1  A    between atoms: C4_5  and  C5_6
REMARK    2  A    between atoms: C5_6  and  C6_7
REMARK    3  A    between atoms: C5_6  and  O1_13
REMARK    4  A    between atoms: C6_7  and  N1_8
REMARK    5  A    between atoms: O1_13  and  C10_14
REMARK    6  A    between atoms: C10_14  and  C11_15
REMARK                            x       y       z     vdW  Elec       q    Type
REMARK                         _______ _______ _______ _____ _____    ______ ____
ROOT
ATOM      1  C5  UNL     1      62.373  59.990 110.669  0.00  0.00    +0.000 C 
ENDROOT
BRANCH   1   6
ATOM      2 CL1  UNL     1      66.752  59.850 114.901  0.00  0.00    +0.000 Cl
ATOM      3  C1  UNL     1      65.480  59.901 113.694  0.00  0.00    +0.000 A 
ATOM      4  C2  UNL     1      65.803  60.054 112.346  0.00  0.00    +0.000 A 
ATOM      5  C3  UNL     1      64.793  60.092 111.383  0.00  0.00    +0.000 A 
ATOM      6  C4  UNL     1      63.438  59.983 111.754  0.00  0.00    +0.000 A 
ATOM      7  C17 UNL     1      63.119  59.818 113.126  0.00  0.00    +0.000 A 
ATOM      8  C18 UNL     1      64.143  59.782 114.081  0.00  0.00    +0.000 A 
ATOM      9 CL4  UNL     1      61.465  59.638 113.702  0.00  0.00    +0.000 Cl
ENDBRANCH   1   6
BRANCH   1  10
ATOM     10  C6  UNL     1      62.960  59.476 109.341  0.00  0.00    +0.000 C 
BRANCH  10  11
ATOM     11  N1  UNL     1      62.361  58.197 108.962  0.00  0.00    +0.000 N 
ATOM     12  C7  UNL     1      61.269  57.625 109.494  0.00  0.00    +0.000 A 
ATOM     13  C8  UNL     1      61.018  56.467 108.793  0.00  0.00    +0.000 A 
ATOM     14  N2  UNL     1      61.942  56.315 107.821  0.00  0.00    +0.000 NA
ATOM     15  C9  UNL     1      62.745  57.392 107.953  0.00  0.00    +0.000 A 
ENDBRANCH  10  11
ENDBRANCH   1  10
BRANCH   1  16
ATOM     16  O1  UNL     1      61.918  61.323 110.491  0.00  0.00    +0.000 OA
BRANCH  16  17
ATOM     17  C10 UNL     1      60.619  61.353 109.935  0.00  0.00    +0.000 C 
BRANCH  17  18
ATOM     18  C11 UNL     1      59.679  61.985 110.933  0.00  0.00    +0.000 A 
ATOM     19  C12 UNL     1      58.807  61.183 111.707  0.00  0.00    +0.000 A 
ATOM     20 CL2  UNL     1      58.765  59.428 111.555  0.00  0.00    +0.000 Cl
ATOM     21  C13 UNL     1      57.956  61.777 112.647  0.00  0.00    +0.000 A 
ATOM     22  C14 UNL     1      57.974  63.157 112.842  0.00  0.00    +0.000 A 
ATOM     23  C15 UNL     1      58.853  63.954 112.110  0.00  0.00    +0.000 A 
ATOM     24  C16 UNL     1      59.713  63.380 111.167  0.00  0.00    +0.000 A 
ATOM     25 CL3  UNL     1      60.832  64.445 110.319  0.00  0.00    +0.000 Cl
ENDBRANCH  17  18
ENDBRANCH  16  17
ENDBRANCH   1  16
TORSDOF 6
ENDMDL
MODEL 8
REMARK VINA RESULT:      -6.1      2.428      5.826
REMARK  Name = ./S2534.pdb
REMARK  6 active torsions:
REMARK  status: ('A' for Active; 'I' for Inactive)
REMARK    1  A    between atoms: C4_5  and  C5_6
REMARK    2  A    between atoms: C5_6  and  C6_7
REMARK    3  A    between atoms: C5_6  and  O1_13
REMARK    4  A    between atoms: C6_7  and  N1_8
REMARK    5  A    between atoms: O1_13  and  C10_14
REMARK    6  A    between atoms: C10_14  and  C11_15
REMARK                            x       y       z     vdW  Elec       q    Type
REMARK                         _______ _______ _______ _____ _____    ______ ____
ROOT
ATOM      1  C5  UNL     1      62.997  58.001 106.360  0.00  0.00    +0.000 C 
ENDROOT
BRANCH   1   6
ATOM      2 CL1  UNL     1      63.455  60.513 100.830  0.00  0.00    +0.000 Cl
ATOM      3  C1  UNL     1      63.340  59.779 102.420  0.00  0.00    +0.000 A 
ATOM      4  C2  UNL     1      62.941  60.546 103.515  0.00  0.00    +0.000 A 
ATOM      5  C3  UNL     1      62.845  59.965 104.780  0.00  0.00    +0.000 A 
ATOM      6  C4  UNL     1      63.153  58.603 104.973  0.00  0.00    +0.000 A 
ATOM      7  C17 UNL     1      63.548  57.829 103.852  0.00  0.00    +0.000 A 
ATOM      8  C18 UNL     1      63.640  58.426 102.589  0.00  0.00    +0.000 A 
ATOM      9 CL4  UNL     1      63.925  56.112 103.969  0.00  0.00    +0.000 Cl
ENDBRANCH   1   6
BRANCH   1  10
ATOM     10  C6  UNL     1      64.374  57.621 106.936  0.00  0.00    +0.000 C 
BRANCH  10  11
ATOM     11  N1  UNL     1      64.545  58.157 108.286  0.00  0.00    +0.000 N 
ATOM     12  C7  UNL     1      65.316  59.192 108.655  0.00  0.00    +0.000 A 
ATOM     13  C8  UNL     1      65.124  59.401 110.002  0.00  0.00    +0.000 A 
ATOM     14  N2  UNL     1      64.231  58.507 110.477  0.00  0.00    +0.000 NA
ATOM     15  C9  UNL     1      63.897  57.765 109.400  0.00  0.00    +0.000 A 
ENDBRANCH  10  11
ENDBRANCH   1  10
BRANCH   1  16
ATOM     16  O1  UNL     1      62.198  56.832 106.258  0.00  0.00    +0.000 OA
BRANCH  16  17
ATOM     17  C10 UNL     1      60.822  57.152 106.224  0.00  0.00    +0.000 C 
BRANCH  17  18
ATOM     18  C11 UNL     1      60.110  56.139 105.359  0.00  0.00    +0.000 A 
ATOM     19  C12 UNL     1      59.777  54.863 105.872  0.00  0.00    +0.000 A 
ATOM     20 CL2  UNL     1      60.169  54.385 107.522  0.00  0.00    +0.000 Cl
ATOM     21  C13 UNL     1      59.096  53.940 105.069  0.00  0.00    +0.000 A 
ATOM     22  C14 UNL     1      58.723  54.277 103.769  0.00  0.00    +0.000 A 
ATOM     23  C15 UNL     1      59.013  55.543 103.264  0.00  0.00    +0.000 A 
ATOM     24  C16 UNL     1      59.692  56.480 104.051  0.00  0.00    +0.000 A 
ATOM     25 CL3  UNL     1      59.978  58.078 103.364  0.00  0.00    +0.000 Cl
ENDBRANCH  17  18
ENDBRANCH  16  17
ENDBRANCH   1  16
TORSDOF 6
ENDMDL
MODEL 9
REMARK VINA RESULT:      -6.1      2.326      4.992
REMARK  Name = ./S2534.pdb
REMARK  6 active torsions:
REMARK  status: ('A' for Active; 'I' for Inactive)
REMARK    1  A    between atoms: C4_5  and  C5_6
REMARK    2  A    between atoms: C5_6  and  C6_7
REMARK    3  A    between atoms: C5_6  and  O1_13
REMARK    4  A    between atoms: C6_7  and  N1_8
REMARK    5  A    between atoms: O1_13  and  C10_14
REMARK    6  A    between atoms: C10_14  and  C11_15
REMARK                            x       y       z     vdW  Elec       q    Type
REMARK                         _______ _______ _______ _____ _____    ______ ____
ROOT
ATOM      1  C5  UNL     1      61.704  58.008 106.482  0.00  0.00    +0.000 C 
ENDROOT
BRANCH   1   6
ATOM      2 CL1  UNL     1      58.648  52.751 106.125  0.00  0.00    +0.000 Cl
ATOM      3  C1  UNL     1      59.514  54.275 106.219  0.00  0.00    +0.000 A 
ATOM      4  C2  UNL     1      60.258  54.585 107.358  0.00  0.00    +0.000 A 
ATOM      5  C3  UNL     1      60.950  55.795 107.434  0.00  0.00    +0.000 A 
ATOM      6  C4  UNL     1      60.904  56.720 106.373  0.00  0.00    +0.000 A 
ATOM      7  C17 UNL     1      60.153  56.392 105.215  0.00  0.00    +0.000 A 
ATOM      8  C18 UNL     1      59.464  55.175 105.153  0.00  0.00    +0.000 A 
ATOM      9 CL4  UNL     1      60.052  57.456 103.815  0.00  0.00    +0.000 Cl
ENDBRANCH   1   6
BRANCH   1  10
ATOM     10  C6  UNL     1      63.046  57.869 105.738  0.00  0.00    +0.000 C 
BRANCH  10  11
ATOM     11  N1  UNL     1      63.104  58.767 104.586  0.00  0.00    +0.000 N 
ATOM     12  C7  UNL     1      63.520  58.468 103.345  0.00  0.00    +0.000 A 
ATOM     13  C8  UNL     1      63.339  59.585 102.560  0.00  0.00    +0.000 A 
ATOM     14  N2  UNL     1      62.805  60.579 103.301  0.00  0.00    +0.000 NA
ATOM     15  C9  UNL     1      62.673  60.042 104.532  0.00  0.00    +0.000 A 
ENDBRANCH  10  11
ENDBRANCH   1  10
BRANCH   1  16
ATOM     16  O1  UNL     1      61.959  58.267 107.854  0.00  0.00    +0.000 OA
BRANCH  16  17
ATOM     17  C10 UNL     1      62.284  59.625 108.070  0.00  0.00    +0.000 C 
BRANCH  17  18
ATOM     18  C11 UNL     1      63.035  59.742 109.374  0.00  0.00    +0.000 A 
ATOM     19  C12 UNL     1      62.337  59.814 110.603  0.00  0.00    +0.000 A 
ATOM     20 CL2  UNL     1      60.577  59.777 110.683  0.00  0.00    +0.000 Cl
ATOM     21  C13 UNL     1      63.043  59.899 111.809  0.00  0.00    +0.000 A 
ATOM     22  C14 UNL     1      64.437  59.891 111.811  0.00  0.00    +0.000 A 
ATOM     23  C15 UNL     1      65.137  59.784 110.610  0.00  0.00    +0.000 A 
ATOM     24  C16 UNL     1      64.450  59.698 109.395  0.00  0.00    +0.000 A 
ATOM     25 CL3  UNL     1      65.401  59.512 107.924  0.00  0.00    +0.000 Cl
ENDBRANCH  17  18
ENDBRANCH  16  17
ENDBRANCH   1  16
TORSDOF 6
ENDMDL
MODEL 10
REMARK VINA RESULT:      -6.1      2.321      4.674
REMARK  Name = ./S2534.pdb
REMARK  6 active torsions:
REMARK  status: ('A' for Active; 'I' for Inactive)
REMARK    1  A    between atoms: C4_5  and  C5_6
REMARK    2  A    between atoms: C5_6  and  C6_7
REMARK    3  A    between atoms: C5_6  and  O1_13
REMARK    4  A    between atoms: C6_7  and  N1_8
REMARK    5  A    between atoms: O1_13  and  C10_14
REMARK    6  A    between atoms: C10_14  and  C11_15
REMARK                            x       y       z     vdW  Elec       q    Type
REMARK                         _______ _______ _______ _____ _____    ______ ____
ROOT
ATOM      1  C5  UNL     1      61.684  57.874 106.576  0.00  0.00    +0.000 C 
ENDROOT
BRANCH   1   6
ATOM      2 CL1  UNL     1      58.537  52.683 106.070  0.00  0.00    +0.000 Cl
ATOM      3  C1  UNL     1      59.429  54.188 106.208  0.00  0.00    +0.000 A 
ATOM      4  C2  UNL     1      60.193  54.445 107.346  0.00  0.00    +0.000 A 
ATOM      5  C3  UNL     1      60.906  55.639 107.457  0.00  0.00    +0.000 A 
ATOM      6  C4  UNL     1      60.861  56.604 106.431  0.00  0.00    +0.000 A 
ATOM      7  C17 UNL     1      60.090  56.331 105.273  0.00  0.00    +0.000 A 
ATOM      8  C18 UNL     1      59.380  55.128 105.175  0.00  0.00    +0.000 A 
ATOM      9 CL4  UNL     1      59.987  57.447 103.914  0.00  0.00    +0.000 Cl
ENDBRANCH   1   6
BRANCH   1  10
ATOM     10  C6  UNL     1      62.981  57.767 105.753  0.00  0.00    +0.000 C 
BRANCH  10  11
ATOM     11  N1  UNL     1      63.043  58.811 104.732  0.00  0.00    +0.000 N 
ATOM     12  C7  UNL     1      63.376  58.661 103.439  0.00  0.00    +0.000 A 
ATOM     13  C8  UNL     1      63.233  59.883 102.823  0.00  0.00    +0.000 A 
ATOM     14  N2  UNL     1      62.806  60.796 103.721  0.00  0.00    +0.000 NA
ATOM     15  C9  UNL     1      62.699  60.105 104.874  0.00  0.00    +0.000 A 
ENDBRANCH  10  11
ENDBRANCH   1  10
BRANCH   1  16
ATOM     16  O1  UNL     1      62.015  58.044 107.946  0.00  0.00    +0.000 OA
BRANCH  16  17
ATOM     17  C10 UNL     1      62.103  59.412 108.288  0.00  0.00    +0.000 C 
BRANCH  17  18
ATOM     18  C11 UNL     1      62.946  59.547 109.533  0.00  0.00    +0.000 A 
ATOM     19  C12 UNL     1      64.352  59.682 109.438  0.00  0.00    +0.000 A 
ATOM     20 CL2  UNL     1      65.189  59.697 107.888  0.00  0.00    +0.000 Cl
ATOM     21  C13 UNL     1      65.123  59.831 110.598  0.00  0.00    +0.000 A 
ATOM     22  C14 UNL     1      64.512  59.868 111.850  0.00  0.00    +0.000 A 
ATOM     23  C15 UNL     1      63.126  59.772 111.955  0.00  0.00    +0.000 A 
ATOM     24  C16 UNL     1      62.337  59.623 110.808  0.00  0.00    +0.000 A 
ATOM     25 CL3  UNL     1      60.589  59.561 111.016  0.00  0.00    +0.000 Cl
ENDBRANCH  17  18
ENDBRANCH  16  17
ENDBRANCH   1  16
TORSDOF 6
ENDMDL
MODEL 11
REMARK VINA RESULT:      -6.1      3.078      6.417
REMARK  Name = ./S2534.pdb
REMARK  6 active torsions:
REMARK  status: ('A' for Active; 'I' for Inactive)
REMARK    1  A    between atoms: C4_5  and  C5_6
REMARK    2  A    between atoms: C5_6  and  C6_7
REMARK    3  A    between atoms: C5_6  and  O1_13
REMARK    4  A    between atoms: C6_7  and  N1_8
REMARK    5  A    between atoms: O1_13  and  C10_14
REMARK    6  A    between atoms: C10_14  and  C11_15
REMARK                            x       y       z     vdW  Elec       q    Type
REMARK                         _______ _______ _______ _____ _____    ______ ____
ROOT
ATOM      1  C5  UNL     1      62.929  58.147 104.401  0.00  0.00    +0.000 C 
ENDROOT
BRANCH   1   6
ATOM      2 CL1  UNL     1      65.039  59.764 109.881  0.00  0.00    +0.000 Cl
ATOM      3  C1  UNL     1      64.432  59.280 108.308  0.00  0.00    +0.000 A 
ATOM      4  C2  UNL     1      63.431  60.026 107.687  0.00  0.00    +0.000 A 
ATOM      5  C3  UNL     1      62.948  59.645 106.434  0.00  0.00    +0.000 A 
ATOM      6  C4  UNL     1      63.456  58.503 105.782  0.00  0.00    +0.000 A 
ATOM      7  C17 UNL     1      64.481  57.756 106.417  0.00  0.00    +0.000 A 
ATOM      8  C18 UNL     1      64.955  58.151 107.674  0.00  0.00    +0.000 A 
ATOM      9 CL4  UNL     1      65.213  56.333 105.682  0.00  0.00    +0.000 Cl
ENDBRANCH   1   6
BRANCH   1  10
ATOM     10  C6  UNL     1      62.030  59.275 103.864  0.00  0.00    +0.000 C 
BRANCH  10  11
ATOM     11  N1  UNL     1      62.364  59.598 102.478  0.00  0.00    +0.000 N 
ATOM     12  C7  UNL     1      63.295  60.466 102.049  0.00  0.00    +0.000 A 
ATOM     13  C8  UNL     1      63.325  60.405 100.674  0.00  0.00    +0.000 A 
ATOM     14  N2  UNL     1      62.423  59.500 100.240  0.00  0.00    +0.000 NA
ATOM     15  C9  UNL     1      61.857  59.025 101.369  0.00  0.00    +0.000 A 
ENDBRANCH  10  11
ENDBRANCH   1  10
BRANCH   1  16
ATOM     16  O1  UNL     1      62.167  56.953 104.503  0.00  0.00    +0.000 OA
BRANCH  16  17
ATOM     17  C10 UNL     1      60.901  57.199 105.081  0.00  0.00    +0.000 C 
BRANCH  17  18
ATOM     18  C11 UNL     1      60.314  55.886 105.538  0.00  0.00    +0.000 A 
ATOM     19  C12 UNL     1      60.591  55.386 106.832  0.00  0.00    +0.000 A 
ATOM     20 CL2  UNL     1      61.626  56.249 107.968  0.00  0.00    +0.000 Cl
ATOM     21  C13 UNL     1      60.023  54.178 107.256  0.00  0.00    +0.000 A 
ATOM     22  C14 UNL     1      59.163  53.471 106.416  0.00  0.00    +0.000 A 
ATOM     23  C15 UNL     1      58.853  53.971 105.152  0.00  0.00    +0.000 A 
ATOM     24  C16 UNL     1      59.411  55.176 104.711  0.00  0.00    +0.000 A 
ATOM     25 CL3  UNL     1      58.931  55.771 103.123  0.00  0.00    +0.000 Cl
ENDBRANCH  17  18
ENDBRANCH  16  17
ENDBRANCH   1  16
TORSDOF 6
ENDMDL
MODEL 12
REMARK VINA RESULT:      -6.0      9.726     11.236
REMARK  Name = ./S2534.pdb
REMARK  6 active torsions:
REMARK  status: ('A' for Active; 'I' for Inactive)
REMARK    1  A    between atoms: C4_5  and  C5_6
REMARK    2  A    between atoms: C5_6  and  C6_7
REMARK    3  A    between atoms: C5_6  and  O1_13
REMARK    4  A    between atoms: C6_7  and  N1_8
REMARK    5  A    between atoms: O1_13  and  C10_14
REMARK    6  A    between atoms: C10_14  and  C11_15
REMARK                            x       y       z     vdW  Elec       q    Type
REMARK                         _______ _______ _______ _____ _____    ______ ____
ROOT
ATOM      1  C5  UNL     1      72.802  61.968 107.151  0.00  0.00    +0.000 C 
ENDROOT
BRANCH   1   6
ATOM      2 CL1  UNL     1      69.581  62.758 102.042  0.00  0.00    +0.000 Cl
ATOM      3  C1  UNL     1      70.522  62.543 103.507  0.00  0.00    +0.000 A 
ATOM      4  C2  UNL     1      69.884  62.490 104.745  0.00  0.00    +0.000 A 
ATOM      5  C3  UNL     1      70.629  62.315 105.912  0.00  0.00    +0.000 A 
ATOM      6  C4  UNL     1      72.032  62.197 105.860  0.00  0.00    +0.000 A 
ATOM      7  C17 UNL     1      72.673  62.242 104.595  0.00  0.00    +0.000 A 
ATOM      8  C18 UNL     1      71.912  62.418 103.433  0.00  0.00    +0.000 A 
ATOM      9 CL4  UNL     1      74.416  62.071 104.406  0.00  0.00    +0.000 Cl
ENDBRANCH   1   6
BRANCH   1  10
ATOM     10  C6  UNL     1      72.650  60.507 107.613  0.00  0.00    +0.000 C 
BRANCH  10  11
ATOM     11  N1  UNL     1      73.537  59.623 106.860  0.00  0.00    +0.000 N 
ATOM     12  C7  UNL     1      73.180  58.687 105.965  0.00  0.00    +0.000 A 
ATOM     13  C8  UNL     1      74.332  58.141 105.445  0.00  0.00    +0.000 A 
ATOM     14  N2  UNL     1      75.408  58.734 106.004  0.00  0.00    +0.000 NA
ATOM     15  C9  UNL     1      74.884  59.635 106.862  0.00  0.00    +0.000 A 
ENDBRANCH  10  11
ENDBRANCH   1  10
BRANCH   1  16
ATOM     16  O1  UNL     1      72.275  62.829 108.149  0.00  0.00    +0.000 OA
BRANCH  16  17
ATOM     17  C10 UNL     1      73.025  64.022 108.249  0.00  0.00    +0.000 C 
BRANCH  17  18
ATOM     18  C11 UNL     1      72.075  65.195 108.238  0.00  0.00    +0.000 A 
ATOM     19  C12 UNL     1      71.404  65.588 109.420  0.00  0.00    +0.000 A 
ATOM     20 CL2  UNL     1      71.630  64.743 110.950  0.00  0.00    +0.000 Cl
ATOM     21  C13 UNL     1      70.542  66.691 109.405  0.00  0.00    +0.000 A 
ATOM     22  C14 UNL     1      70.355  67.424 108.234  0.00  0.00    +0.000 A 
ATOM     23  C15 UNL     1      71.038  67.069 107.071  0.00  0.00    +0.000 A 
ATOM     24  C16 UNL     1      71.904  65.970 107.066  0.00  0.00    +0.000 A 
ATOM     25 CL3  UNL     1      72.771  65.614 105.574  0.00  0.00    +0.000 Cl
ENDBRANCH  17  18
ENDBRANCH  16  17
ENDBRANCH   1  16
TORSDOF 6
ENDMDL
MODEL 13
REMARK VINA RESULT:      -6.0      3.687      5.683
REMARK  Name = ./S2534.pdb
REMARK  6 active torsions:
REMARK  status: ('A' for Active; 'I' for Inactive)
REMARK    1  A    between atoms: C4_5  and  C5_6
REMARK    2  A    between atoms: C5_6  and  C6_7
REMARK    3  A    between atoms: C5_6  and  O1_13
REMARK    4  A    between atoms: C6_7  and  N1_8
REMARK    5  A    between atoms: O1_13  and  C10_14
REMARK    6  A    between atoms: C10_14  and  C11_15
REMARK                            x       y       z     vdW  Elec       q    Type
REMARK                         _______ _______ _______ _____ _____    ______ ____
ROOT
ATOM      1  C5  UNL     1      62.243  59.974 108.764  0.00  0.00    +0.000 C 
ENDROOT
BRANCH   1   6
ATOM      2 CL1  UNL     1      60.347  54.665 106.457  0.00  0.00    +0.000 Cl
ATOM      3  C1  UNL     1      60.887  56.204 107.106  0.00  0.00    +0.000 A 
ATOM      4  C2  UNL     1      60.693  56.499 108.455  0.00  0.00    +0.000 A 
ATOM      5  C3  UNL     1      61.124  57.720 108.974  0.00  0.00    +0.000 A 
ATOM      6  C4  UNL     1      61.754  58.673 108.149  0.00  0.00    +0.000 A 
ATOM      7  C17 UNL     1      61.956  58.360 106.780  0.00  0.00    +0.000 A 
ATOM      8  C18 UNL     1      61.518  57.131 106.273  0.00  0.00    +0.000 A 
ATOM      9 CL4  UNL     1      62.761  59.459 105.664  0.00  0.00    +0.000 Cl
ENDBRANCH   1   6
BRANCH   1  10
ATOM     10  C6  UNL     1      63.370  59.697 109.775  0.00  0.00    +0.000 C 
BRANCH  10  11
ATOM     11  N1  UNL     1      64.514  59.060 109.125  0.00  0.00    +0.000 N 
ATOM     12  C7  UNL     1      65.358  59.617 108.241  0.00  0.00    +0.000 A 
ATOM     13  C8  UNL     1      66.329  58.688 107.943  0.00  0.00    +0.000 A 
ATOM     14  N2  UNL     1      66.102  57.555 108.640  0.00  0.00    +0.000 NA
ATOM     15  C9  UNL     1      64.988  57.820 109.354  0.00  0.00    +0.000 A 
ENDBRANCH  10  11
ENDBRANCH   1  10
BRANCH   1  16
ATOM     16  O1  UNL     1      61.156  60.592 109.437  0.00  0.00    +0.000 OA
BRANCH  16  17
ATOM     17  C10 UNL     1      61.566  61.157 110.666  0.00  0.00    +0.000 C 
BRANCH  17  18
ATOM     18  C11 UNL     1      60.348  61.670 111.394  0.00  0.00    +0.000 A 
ATOM     19  C12 UNL     1      59.986  63.036 111.317  0.00  0.00    +0.000 A 
ATOM     20 CL2  UNL     1      60.922  64.202 110.385  0.00  0.00    +0.000 Cl
ATOM     21  C13 UNL     1      58.840  63.497 111.977  0.00  0.00    +0.000 A 
ATOM     22  C14 UNL     1      58.037  62.613 112.696  0.00  0.00    +0.000 A 
ATOM     23  C15 UNL     1      58.362  61.259 112.750  0.00  0.00    +0.000 A 
ATOM     24  C16 UNL     1      59.503  60.778 112.097  0.00  0.00    +0.000 A 
ATOM     25 CL3  UNL     1      59.820  59.046 112.166  0.00  0.00    +0.000 Cl
ENDBRANCH  17  18
ENDBRANCH  16  17
ENDBRANCH   1  16
TORSDOF 6
ENDMDL
MODEL 14
REMARK VINA RESULT:      -5.9     10.093     12.100
REMARK  Name = ./S2534.pdb
REMARK  6 active torsions:
REMARK  status: ('A' for Active; 'I' for Inactive)
REMARK    1  A    between atoms: C4_5  and  C5_6
REMARK    2  A    between atoms: C5_6  and  C6_7
REMARK    3  A    between atoms: C5_6  and  O1_13
REMARK    4  A    between atoms: C6_7  and  N1_8
REMARK    5  A    between atoms: O1_13  and  C10_14
REMARK    6  A    between atoms: C10_14  and  C11_15
REMARK                            x       y       z     vdW  Elec       q    Type
REMARK                         _______ _______ _______ _____ _____    ______ ____
ROOT
ATOM      1  C5  UNL     1      71.462  64.413 107.078  0.00  0.00    +0.000 C 
ENDROOT
BRANCH   1   6
ATOM      2 CL1  UNL     1      70.746  70.451 107.434  0.00  0.00    +0.000 Cl
ATOM      3  C1  UNL     1      70.972  68.715 107.329  0.00  0.00    +0.000 A 
ATOM      4  C2  UNL     1      70.271  67.867 108.186  0.00  0.00    +0.000 A 
ATOM      5  C3  UNL     1      70.446  66.485 108.103  0.00  0.00    +0.000 A 
ATOM      6  C4  UNL     1      71.332  65.925 107.161  0.00  0.00    +0.000 A 
ATOM      7  C17 UNL     1      72.033  66.794 106.286  0.00  0.00    +0.000 A 
ATOM      8  C18 UNL     1      71.847  68.179 106.382  0.00  0.00    +0.000 A 
ATOM      9 CL4  UNL     1      73.139  66.206 105.049  0.00  0.00    +0.000 Cl
ENDBRANCH   1   6
BRANCH   1  10
ATOM     10  C6  UNL     1      70.230  63.808 106.381  0.00  0.00    +0.000 C 
BRANCH  10  11
ATOM     11  N1  UNL     1      70.612  62.699 105.509  0.00  0.00    +0.000 N 
ATOM     12  C7  UNL     1      71.571  61.785 105.732  0.00  0.00    +0.000 A 
ATOM     13  C8  UNL     1      71.543  60.883 104.692  0.00  0.00    +0.000 A 
ATOM     14  N2  UNL     1      70.568  61.223 103.823  0.00  0.00    +0.000 NA
ATOM     15  C9  UNL     1      70.019  62.335 104.356  0.00  0.00    +0.000 A 
ENDBRANCH  10  11
ENDBRANCH   1  10
BRANCH   1  16
ATOM     16  O1  UNL     1      71.552  63.894 108.397  0.00  0.00    +0.000 OA
BRANCH  16  17
ATOM     17  C10 UNL     1      72.893  63.625 108.753  0.00  0.00    +0.000 C 
BRANCH  17  18
ATOM     18  C11 UNL     1      73.490  64.866 109.370  0.00  0.00    +0.000 A 
ATOM     19  C12 UNL     1      74.621  65.486 108.787  0.00  0.00    +0.000 A 
ATOM     20 CL2  UNL     1      75.390  64.854 107.333  0.00  0.00    +0.000 Cl
ATOM     21  C13 UNL     1      75.153  66.651 109.353  0.00  0.00    +0.000 A 
ATOM     22  C14 UNL     1      74.562  67.221 110.480  0.00  0.00    +0.000 A 
ATOM     23  C15 UNL     1      73.426  66.640 111.042  0.00  0.00    +0.000 A 
ATOM     24  C16 UNL     1      72.879  65.476 110.491  0.00  0.00    +0.000 A 
ATOM     25 CL3  UNL     1      71.413  64.830 111.225  0.00  0.00    +0.000 Cl
ENDBRANCH  17  18
ENDBRANCH  16  17
ENDBRANCH   1  16
TORSDOF 6
ENDMDL
MODEL 15
REMARK VINA RESULT:      -5.9     10.709     13.734
REMARK  Name = ./S2534.pdb
REMARK  6 active torsions:
REMARK  status: ('A' for Active; 'I' for Inactive)
REMARK    1  A    between atoms: C4_5  and  C5_6
REMARK    2  A    between atoms: C5_6  and  C6_7
REMARK    3  A    between atoms: C5_6  and  O1_13
REMARK    4  A    between atoms: C6_7  and  N1_8
REMARK    5  A    between atoms: O1_13  and  C10_14
REMARK    6  A    between atoms: C10_14  and  C11_15
REMARK                            x       y       z     vdW  Elec       q    Type
REMARK                         _______ _______ _______ _____ _____    ______ ____
ROOT
ATOM      1  C5  UNL     1      72.536  64.840 109.800  0.00  0.00    +0.000 C 
ENDROOT
BRANCH   1   6
ATOM      2 CL1  UNL     1      75.243  65.795 115.172  0.00  0.00    +0.000 Cl
ATOM      3  C1  UNL     1      74.478  65.508 113.619  0.00  0.00    +0.000 A 
ATOM      4  C2  UNL     1      73.098  65.320 113.545  0.00  0.00    +0.000 A 
ATOM      5  C3  UNL     1      72.486  65.095 112.311  0.00  0.00    +0.000 A 
ATOM      6  C4  UNL     1      73.248  65.048 111.127  0.00  0.00    +0.000 A 
ATOM      7  C17 UNL     1      74.649  65.251 111.210  0.00  0.00    +0.000 A 
ATOM      8  C18 UNL     1      75.249  65.475 112.455  0.00  0.00    +0.000 A 
ATOM      9 CL4  UNL     1      75.695  65.247 109.793  0.00  0.00    +0.000 Cl
ENDBRANCH   1   6
BRANCH   1  10
ATOM     10  C6  UNL     1      71.089  65.360 109.881  0.00  0.00    +0.000 C 
BRANCH  10  11
ATOM     11  N1  UNL     1      70.841  66.385 108.869  0.00  0.00    +0.000 N 
ATOM     12  C7  UNL     1      70.543  67.677 109.080  0.00  0.00    +0.000 A 
ATOM     13  C8  UNL     1      70.463  68.296 107.852  0.00  0.00    +0.000 A 
ATOM     14  N2  UNL     1      70.717  67.400 106.875  0.00  0.00    +0.000 NA
ATOM     15  C9  UNL     1      70.945  66.245 107.533  0.00  0.00    +0.000 A 
ENDBRANCH  10  11
ENDBRANCH   1  10
BRANCH   1  16
ATOM     16  O1  UNL     1      72.514  63.449 109.512  0.00  0.00    +0.000 OA
BRANCH  16  17
ATOM     17  C10 UNL     1      73.165  63.167 108.290  0.00  0.00    +0.000 C 
BRANCH  17  18
ATOM     18  C11 UNL     1      73.249  61.669 108.121  0.00  0.00    +0.000 A 
ATOM     19  C12 UNL     1      72.419  61.004 107.187  0.00  0.00    +0.000 A 
ATOM     20 CL2  UNL     1      71.256  61.869 106.184  0.00  0.00    +0.000 Cl
ATOM     21  C13 UNL     1      72.520  59.617 107.020  0.00  0.00    +0.000 A 
ATOM     22  C14 UNL     1      73.452  58.885 107.755  0.00  0.00    +0.000 A 
ATOM     23  C15 UNL     1      74.299  59.533 108.652  0.00  0.00    +0.000 A 
ATOM     24  C16 UNL     1      74.214  60.918 108.833  0.00  0.00    +0.000 A 
ATOM     25 CL3  UNL     1      75.353  61.674 109.945  0.00  0.00    +0.000 Cl
ENDBRANCH  17  18
ENDBRANCH  16  17
ENDBRANCH   1  16
TORSDOF 6
ENDMDL
MODEL 16
REMARK VINA RESULT:      -5.9      4.428      6.846
REMARK  Name = ./S2534.pdb
REMARK  6 active torsions:
REMARK  status: ('A' for Active; 'I' for Inactive)
REMARK    1  A    between atoms: C4_5  and  C5_6
REMARK    2  A    between atoms: C5_6  and  C6_7
REMARK    3  A    between atoms: C5_6  and  O1_13
REMARK    4  A    between atoms: C6_7  and  N1_8
REMARK    5  A    between atoms: O1_13  and  C10_14
REMARK    6  A    between atoms: C10_14  and  C11_15
REMARK                            x       y       z     vdW  Elec       q    Type
REMARK                         _______ _______ _______ _____ _____    ______ ____
ROOT
ATOM      1  C5  UNL     1      62.253  58.987 112.537  0.00  0.00    +0.000 C 
ENDROOT
BRANCH   1   6
ATOM      2 CL1  UNL     1      64.401  58.371 106.871  0.00  0.00    +0.000 Cl
ATOM      3  C1  UNL     1      63.790  58.567 108.504  0.00  0.00    +0.000 A 
ATOM      4  C2  UNL     1      62.529  58.075 108.840  0.00  0.00    +0.000 A 
ATOM      5  C3  UNL     1      62.041  58.226 110.139  0.00  0.00    +0.000 A 
ATOM      6  C4  UNL     1      62.806  58.880 111.125  0.00  0.00    +0.000 A 
ATOM      7  C17 UNL     1      64.092  59.367 110.777  0.00  0.00    +0.000 A 
ATOM      8  C18 UNL     1      64.568  59.209 109.470  0.00  0.00    +0.000 A 
ATOM      9 CL4  UNL     1      65.149  60.169 111.935  0.00  0.00    +0.000 Cl
ENDBRANCH   1   6
BRANCH   1  10
ATOM     10  C6  UNL     1      60.950  58.177 112.664  0.00  0.00    +0.000 C 
BRANCH  10  11
ATOM     11  N1  UNL     1      60.774  57.676 114.026  0.00  0.00    +0.000 N 
ATOM     12  C7  UNL     1      61.736  57.433 114.931  0.00  0.00    +0.000 A 
ATOM     13  C8  UNL     1      61.124  57.043 116.101  0.00  0.00    +0.000 A 
ATOM     14  N2  UNL     1      59.785  57.047 115.936  0.00  0.00    +0.000 NA
ATOM     15  C9  UNL     1      59.607  57.441 114.657  0.00  0.00    +0.000 A 
ENDBRANCH  10  11
ENDBRANCH   1  10
BRANCH   1  16
ATOM     16  O1  UNL     1      61.980  60.353 112.812  0.00  0.00    +0.000 OA
BRANCH  16  17
ATOM     17  C10 UNL     1      60.646  60.687 112.488  0.00  0.00    +0.000 C 
BRANCH  17  18
ATOM     18  C11 UNL     1      60.572  62.168 112.206  0.00  0.00    +0.000 A 
ATOM     19  C12 UNL     1      60.733  62.658 110.888  0.00  0.00    +0.000 A 
ATOM     20 CL2  UNL     1      61.029  61.588 109.520  0.00  0.00    +0.000 Cl
ATOM     21  C13 UNL     1      60.639  64.032 110.633  0.00  0.00    +0.000 A 
ATOM     22  C14 UNL     1      60.364  64.924 111.669  0.00  0.00    +0.000 A 
ATOM     23  C15 UNL     1      60.168  64.450 112.966  0.00  0.00    +0.000 A 
ATOM     24  C16 UNL     1      60.258  63.081 113.241  0.00  0.00    +0.000 A 
ATOM     25 CL3  UNL     1      59.945  62.553 114.892  0.00  0.00    +0.000 Cl
ENDBRANCH  17  18
ENDBRANCH  16  17
ENDBRANCH   1  16
TORSDOF 6
ENDMDL
MODEL 17
REMARK VINA RESULT:      -5.9      2.961      7.046
REMARK  Name = ./S2534.pdb
REMARK  6 active torsions:
REMARK  status: ('A' for Active; 'I' for Inactive)
REMARK    1  A    between atoms: C4_5  and  C5_6
REMARK    2  A    between atoms: C5_6  and  C6_7
REMARK    3  A    between atoms: C5_6  and  O1_13
REMARK    4  A    between atoms: C6_7  and  N1_8
REMARK    5  A    between atoms: O1_13  and  C10_14
REMARK    6  A    between atoms: C10_14  and  C11_15
REMARK                            x       y       z     vdW  Elec       q    Type
REMARK                         _______ _______ _______ _____ _____    ______ ____
ROOT
ATOM      1  C5  UNL     1      61.530  56.052 104.940  0.00  0.00    +0.000 C 
ENDROOT
BRANCH   1   6
ATOM      2 CL1  UNL     1      58.245  50.940 105.365  0.00  0.00    +0.000 Cl
ATOM      3  C1  UNL     1      59.196  52.408 105.224  0.00  0.00    +0.000 A 
ATOM      4  C2  UNL     1      58.742  53.592 105.807  0.00  0.00    +0.000 A 
ATOM      5  C3  UNL     1      59.497  54.760 105.700  0.00  0.00    +0.000 A 
ATOM      6  C4  UNL     1      60.720  54.767 104.999  0.00  0.00    +0.000 A 
ATOM      7  C17 UNL     1      61.179  53.557 104.419  0.00  0.00    +0.000 A 
ATOM      8  C18 UNL     1      60.410  52.392 104.534  0.00  0.00    +0.000 A 
ATOM      9 CL4  UNL     1      62.706  53.439 103.550  0.00  0.00    +0.000 Cl
ENDBRANCH   1   6
BRANCH   1  10
ATOM     10  C6  UNL     1      60.941  57.100 105.903  0.00  0.00    +0.000 C 
BRANCH  10  11
ATOM     11  N1  UNL     1      61.793  57.272 107.078  0.00  0.00    +0.000 N 
ATOM     12  C7  UNL     1      61.398  57.541 108.333  0.00  0.00    +0.000 A 
ATOM     13  C8  UNL     1      62.518  57.548 109.134  0.00  0.00    +0.000 A 
ATOM     14  N2  UNL     1      63.611  57.278 108.388  0.00  0.00    +0.000 NA
ATOM     15  C9  UNL     1      63.129  57.113 107.139  0.00  0.00    +0.000 A 
ENDBRANCH  10  11
ENDBRANCH   1  10
BRANCH   1  16
ATOM     16  O1  UNL     1      61.478  56.558 103.615  0.00  0.00    +0.000 OA
BRANCH  16  17
ATOM     17  C10 UNL     1      60.919  57.855 103.580  0.00  0.00    +0.000 C 
BRANCH  17  18
ATOM     18  C11 UNL     1      61.715  58.701 102.616  0.00  0.00    +0.000 A 
ATOM     19  C12 UNL     1      61.504  58.591 101.220  0.00  0.00    +0.000 A 
ATOM     20 CL2  UNL     1      60.322  57.477 100.536  0.00  0.00    +0.000 Cl
ATOM     21  C13 UNL     1      62.231  59.397 100.335  0.00  0.00    +0.000 A 
ATOM     22  C14 UNL     1      63.150  60.326 100.820  0.00  0.00    +0.000 A 
ATOM     23  C15 UNL     1      63.341  60.468 102.193  0.00  0.00    +0.000 A 
ATOM     24  C16 UNL     1      62.624  59.673 103.095  0.00  0.00    +0.000 A 
ATOM     25 CL3  UNL     1      62.881  59.947 104.816  0.00  0.00    +0.000 Cl
ENDBRANCH  17  18
ENDBRANCH  16  17
ENDBRANCH   1  16
TORSDOF 6
ENDMDL
MODEL 18
REMARK VINA RESULT:      -5.9     10.579     13.579
REMARK  Name = ./S2534.pdb
REMARK  6 active torsions:
REMARK  status: ('A' for Active; 'I' for Inactive)
REMARK    1  A    between atoms: C4_5  and  C5_6
REMARK    2  A    between atoms: C5_6  and  C6_7
REMARK    3  A    between atoms: C5_6  and  O1_13
REMARK    4  A    between atoms: C6_7  and  N1_8
REMARK    5  A    between atoms: O1_13  and  C10_14
REMARK    6  A    between atoms: C10_14  and  C11_15
REMARK                            x       y       z     vdW  Elec       q    Type
REMARK                         _______ _______ _______ _____ _____    ______ ____
ROOT
ATOM      1  C5  UNL     1      72.491  64.749 109.589  0.00  0.00    +0.000 C 
ENDROOT
BRANCH   1   6
ATOM      2 CL1  UNL     1      75.138  66.041 114.921  0.00  0.00    +0.000 Cl
ATOM      3  C1  UNL     1      74.390  65.657 113.380  0.00  0.00    +0.000 A 
ATOM      4  C2  UNL     1      73.013  65.452 113.305  0.00  0.00    +0.000 A 
ATOM      5  C3  UNL     1      72.415  65.150 112.081  0.00  0.00    +0.000 A 
ATOM      6  C4  UNL     1      73.188  65.041 110.908  0.00  0.00    +0.000 A 
ATOM      7  C17 UNL     1      74.587  65.261 110.992  0.00  0.00    +0.000 A 
ATOM      8  C18 UNL     1      75.173  65.563 112.227  0.00  0.00    +0.000 A 
ATOM      9 CL4  UNL     1      75.646  65.184 109.587  0.00  0.00    +0.000 Cl
ENDBRANCH   1   6
BRANCH   1  10
ATOM     10  C6  UNL     1      71.027  65.224 109.641  0.00  0.00    +0.000 C 
BRANCH  10  11
ATOM     11  N1  UNL     1      70.808  66.353 108.738  0.00  0.00    +0.000 N 
ATOM     12  C7  UNL     1      70.566  67.629 109.080  0.00  0.00    +0.000 A 
ATOM     13  C8  UNL     1      70.496  68.369 107.921  0.00  0.00    +0.000 A 
ATOM     14  N2  UNL     1      70.701  67.565 106.857  0.00  0.00    +0.000 NA
ATOM     15  C9  UNL     1      70.891  66.341 107.394  0.00  0.00    +0.000 A 
ENDBRANCH  10  11
ENDBRANCH   1  10
BRANCH   1  16
ATOM     16  O1  UNL     1      72.517  63.347 109.365  0.00  0.00    +0.000 OA
BRANCH  16  17
ATOM     17  C10 UNL     1      73.160  63.032 108.147  0.00  0.00    +0.000 C 
BRANCH  17  18
ATOM     18  C11 UNL     1      73.217  61.531 108.003  0.00  0.00    +0.000 A 
ATOM     19  C12 UNL     1      74.096  60.765 108.805  0.00  0.00    +0.000 A 
ATOM     20 CL2  UNL     1      75.161  61.505 109.998  0.00  0.00    +0.000 Cl
ATOM     21  C13 UNL     1      74.125  59.370 108.681  0.00  0.00    +0.000 A 
ATOM     22  C14 UNL     1      73.275  58.725 107.783  0.00  0.00    +0.000 A 
ATOM     23  C15 UNL     1      72.380  59.465 107.013  0.00  0.00    +0.000 A 
ATOM     24  C16 UNL     1      72.335  60.860 107.123  0.00  0.00    +0.000 A 
ATOM     25 CL3  UNL     1      71.142  61.723 106.156  0.00  0.00    +0.000 Cl
ENDBRANCH  17  18
ENDBRANCH  16  17
ENDBRANCH   1  16
TORSDOF 6
ENDMDL
MODEL 19
REMARK VINA RESULT:      -5.9      3.705      5.839
REMARK  Name = ./S2534.pdb
REMARK  6 active torsions:
REMARK  status: ('A' for Active; 'I' for Inactive)
REMARK    1  A    between atoms: C4_5  and  C5_6
REMARK    2  A    between atoms: C5_6  and  C6_7
REMARK    3  A    between atoms: C5_6  and  O1_13
REMARK    4  A    between atoms: C6_7  and  N1_8
REMARK    5  A    between atoms: O1_13  and  C10_14
REMARK    6  A    between atoms: C10_14  and  C11_15
REMARK                            x       y       z     vdW  Elec       q    Type
REMARK                         _______ _______ _______ _____ _____    ______ ____
ROOT
ATOM      1  C5  UNL     1      62.324  59.961 108.697  0.00  0.00    +0.000 C 
ENDROOT
BRANCH   1   6
ATOM      2 CL1  UNL     1      60.297  54.632 106.553  0.00  0.00    +0.000 Cl
ATOM      3  C1  UNL     1      60.874  56.176 107.155  0.00  0.00    +0.000 A 
ATOM      4  C2  UNL     1      60.746  56.490 108.508  0.00  0.00    +0.000 A 
ATOM      5  C3  UNL     1      61.207  57.715 108.990  0.00  0.00    +0.000 A 
ATOM      6  C4  UNL     1      61.800  58.655 108.123  0.00  0.00    +0.000 A 
ATOM      7  C17 UNL     1      61.935  58.323 106.750  0.00  0.00    +0.000 A 
ATOM      8  C18 UNL     1      61.467  57.090 106.281  0.00  0.00    +0.000 A 
ATOM      9 CL4  UNL     1      62.689  59.404 105.582  0.00  0.00    +0.000 Cl
ENDBRANCH   1   6
BRANCH   1  10
ATOM     10  C6  UNL     1      63.399  59.683 109.764  0.00  0.00    +0.000 C 
BRANCH  10  11
ATOM     11  N1  UNL     1      64.628  59.180 109.153  0.00  0.00    +0.000 N 
ATOM     12  C7  UNL     1      65.225  58.000 109.387  0.00  0.00    +0.000 A 
ATOM     13  C8  UNL     1      66.312  57.905 108.547  0.00  0.00    +0.000 A 
ATOM     14  N2  UNL     1      66.394  59.015 107.784  0.00  0.00    +0.000 NA
ATOM     15  C9  UNL     1      65.348  59.770 108.180  0.00  0.00    +0.000 A 
ENDBRANCH  10  11
ENDBRANCH   1  10
BRANCH   1  16
ATOM     16  O1  UNL     1      61.241  60.656 109.298  0.00  0.00    +0.000 OA
BRANCH  16  17
ATOM     17  C10 UNL     1      61.603  61.178 110.560  0.00  0.00    +0.000 C 
BRANCH  17  18
ATOM     18  C11 UNL     1      60.351  61.630 111.274  0.00  0.00    +0.000 A 
ATOM     19  C12 UNL     1      59.590  60.714 112.038  0.00  0.00    +0.000 A 
ATOM     20 CL2  UNL     1      60.045  59.019 112.197  0.00  0.00    +0.000 Cl
ATOM     21  C13 UNL     1      58.443  61.148 112.716  0.00  0.00    +0.000 A 
ATOM     22  C14 UNL     1      58.057  62.486 112.661  0.00  0.00    +0.000 A 
ATOM     23  C15 UNL     1      58.818  63.405 111.942  0.00  0.00    +0.000 A 
ATOM     24  C16 UNL     1      59.967  62.992 111.258  0.00  0.00    +0.000 A 
ATOM     25 CL3  UNL     1      60.907  64.220 110.414  0.00  0.00    +0.000 Cl
ENDBRANCH  17  18
ENDBRANCH  16  17
ENDBRANCH   1  16
TORSDOF 6
ENDMDL
MODEL 20
REMARK VINA RESULT:      -5.8     12.219     14.878
REMARK  Name = ./S2534.pdb
REMARK  6 active torsions:
REMARK  status: ('A' for Active; 'I' for Inactive)
REMARK    1  A    between atoms: C4_5  and  C5_6
REMARK    2  A    between atoms: C5_6  and  C6_7
REMARK    3  A    between atoms: C5_6  and  O1_13
REMARK    4  A    between atoms: C6_7  and  N1_8
REMARK    5  A    between atoms: O1_13  and  C10_14
REMARK    6  A    between atoms: C10_14  and  C11_15
REMARK                            x       y       z     vdW  Elec       q    Type
REMARK                         _______ _______ _______ _____ _____    ______ ____
ROOT
ATOM      1  C5  UNL     1      73.198  64.795 110.471  0.00  0.00    +0.000 C 
ENDROOT
BRANCH   1   6
ATOM      2 CL1  UNL     1      75.897  68.089 114.826  0.00  0.00    +0.000 Cl
ATOM      3  C1  UNL     1      75.132  67.147 113.558  0.00  0.00    +0.000 A 
ATOM      4  C2  UNL     1      74.688  65.851 113.823  0.00  0.00    +0.000 A 
ATOM      5  C3  UNL     1      74.076  65.101 112.818  0.00  0.00    +0.000 A 
ATOM      6  C4  UNL     1      73.904  65.632 111.525  0.00  0.00    +0.000 A 
ATOM      7  C17 UNL     1      74.349  66.954 111.267  0.00  0.00    +0.000 A 
ATOM      8  C18 UNL     1      74.962  67.695 112.285  0.00  0.00    +0.000 A 
ATOM      9 CL4  UNL     1      74.157  67.732 109.699  0.00  0.00    +0.000 Cl
ENDBRANCH   1   6
BRANCH   1  10
ATOM     10  C6  UNL     1      71.672  64.972 110.581  0.00  0.00    +0.000 C 
BRANCH  10  11
ATOM     11  N1  UNL     1      71.151  65.752 109.460  0.00  0.00    +0.000 N 
ATOM     12  C7  UNL     1      70.663  67.003 109.500  0.00  0.00    +0.000 A 
ATOM     13  C8  UNL     1      70.354  67.375 108.211  0.00  0.00    +0.000 A 
ATOM     14  N2  UNL     1      70.653  66.368 107.364  0.00  0.00    +0.000 NA
ATOM     15  C9  UNL     1      71.140  65.395 108.161  0.00  0.00    +0.000 A 
ENDBRANCH  10  11
ENDBRANCH   1  10
BRANCH   1  16
ATOM     16  O1  UNL     1      73.523  63.430 110.686  0.00  0.00    +0.000 OA
BRANCH  16  17
ATOM     17  C10 UNL     1      74.190  62.878 109.569  0.00  0.00    +0.000 C 
BRANCH  17  18
ATOM     18  C11 UNL     1      75.677  62.901 109.832  0.00  0.00    +0.000 A 
ATOM     19  C12 UNL     1      76.557  63.536 108.925  0.00  0.00    +0.000 A 
ATOM     20 CL2  UNL     1      75.983  64.323 107.456  0.00  0.00    +0.000 Cl
ATOM     21  C13 UNL     1      77.932  63.573 109.189  0.00  0.00    +0.000 A 
ATOM     22  C14 UNL     1      78.440  63.004 110.356  0.00  0.00    +0.000 A 
ATOM     23  C15 UNL     1      77.579  62.406 111.275  0.00  0.00    +0.000 A 
ATOM     24  C16 UNL     1      76.203  62.360 111.029  0.00  0.00    +0.000 A 
ATOM     25 CL3  UNL     1      75.172  61.635 112.261  0.00  0.00    +0.000 Cl
ENDBRANCH  17  18
ENDBRANCH  16  17
ENDBRANCH   1  16
TORSDOF 6
ENDMDL
