MODEL 1
REMARK VINA RESULT:      -8.0      0.000      0.000
REMARK  Name = ./S2673.pdb
REMARK  8 active torsions:
REMARK  status: ('A' for Active; 'I' for Inactive)
REMARK    1  A    between atoms: C1_1  and  N1_2
REMARK    2  A    between atoms: C3_5  and  C26_37
REMARK    3  A    between atoms: N2_7  and  C18_27
REMARK    4  A    between atoms: N3_10  and  C6_11
REMARK    5  A    between atoms: C11_17  and  N4_18
REMARK    6  A    between atoms: N4_18  and  C12_19
REMARK    7  A    between atoms: C20_29  and  N5_33
REMARK    8  A    between atoms: C24_34  and  C25_35
REMARK                            x       y       z     vdW  Elec       q    Type
REMARK                         _______ _______ _______ _____ _____    ______ ____
ROOT
ATOM      1  C1  UNL     1      64.351  59.715 108.987  0.00  0.00    +0.000 C 
ATOM      2  N1  UNL     1      63.481  59.188 107.917  0.00  0.00    +0.000 N 
ATOM      3  C2  UNL     1      63.486  59.794 106.690  0.00  0.00    +0.000 A 
ATOM      4  O1  UNL     1      64.211  60.811 106.495  0.00  0.00    +0.000 OA
ATOM      5  C3  UNL     1      62.684  59.307 105.641  0.00  0.00    +0.000 A 
ATOM      6  C4  UNL     1      61.961  58.090 105.826  0.00  0.00    +0.000 A 
ATOM      7  N2  UNL     1      61.355  57.406 104.788  0.00  0.00    +0.000 N 
ATOM      8  C5  UNL     1      60.471  56.389 105.048  0.00  0.00    +0.000 A 
ATOM      9  O2  UNL     1      59.850  55.838 104.093  0.00  0.00    +0.000 OA
ATOM     10  N3  UNL     1      60.262  55.950 106.326  0.00  0.00    +0.000 N 
ATOM     11  C9  UNL     1      60.905  56.549 107.373  0.00  0.00    +0.000 A 
ATOM     12  O3  UNL     1      60.644  56.174 108.550  0.00  0.00    +0.000 OA
ATOM     13  C10 UNL     1      61.828  57.594 107.144  0.00  0.00    +0.000 A 
ATOM     14  C11 UNL     1      62.605  58.167 108.187  0.00  0.00    +0.000 A 
ATOM     15  C26 UNL     1      62.532  60.171 104.405  0.00  0.00    +0.000 C 
ENDROOT
BRANCH   7  16
ATOM     16  C18 UNL     1      61.780  57.566 103.416  0.00  0.00    +0.000 A 
ATOM     17  C19 UNL     1      62.965  56.964 102.958  0.00  0.00    +0.000 A 
ATOM     18  C20 UNL     1      63.389  57.136 101.631  0.00  0.00    +0.000 A 
ATOM     19  C21 UNL     1      62.639  57.963 100.775  0.00  0.00    +0.000 A 
ATOM     20  C22 UNL     1      61.470  58.577 101.233  0.00  0.00    +0.000 A 
ATOM     21  C23 UNL     1      61.042  58.383 102.547  0.00  0.00    +0.000 A 
BRANCH  18  22
ATOM     22  N5  UNL     1      64.608  56.510 101.195  0.00  0.00    +0.000 N 
ATOM     23  C24 UNL     1      65.893  57.149 101.203  0.00  0.00    +0.000 C 
ATOM     24  C25 UNL     1      67.122  56.348 100.924  0.00  0.00    +0.000 C 
ATOM     25  O4  UNL     1      65.990  58.396 101.356  0.00  0.00    +0.000 OA
ATOM     26  H17 UNL     1      64.545  55.554 100.772  0.00  0.00    +0.000 HD
ENDBRANCH  18  22
ENDBRANCH   7  16
BRANCH  10  27
ATOM     27  C6  UNL     1      59.271  54.884 106.584  0.00  0.00    +0.000 C 
ATOM     28  C7  UNL     1      59.319  53.712 105.607  0.00  0.00    +0.000 C 
ATOM     29  C8  UNL     1      59.868  53.544 107.008  0.00  0.00    +0.000 C 
ENDBRANCH  10  27
BRANCH  14  30
ATOM     30  N4  UNL     1      62.517  57.652 109.527  0.00  0.00    +0.000 N 
ATOM     31  H9  UNL     1      62.770  56.648 109.672  0.00  0.00    +0.000 HD
BRANCH  30  32
ATOM     32  C12 UNL     1      62.087  58.448 110.647  0.00  0.00    +0.000 A 
ATOM     33  C13 UNL     1      62.964  58.752 111.708  0.00  0.00    +0.000 A 
ATOM     34  C14 UNL     1      62.532  59.535 112.781  0.00  0.00    +0.000 A 
ATOM     35  C15 UNL     1      61.224  60.027 112.808  0.00  0.00    +0.000 A 
ATOM     36  I1  UNL     1      60.575  61.212 114.428  0.00  0.00    +0.000 I 
ATOM     37  C16 UNL     1      60.347  59.736 111.760  0.00  0.00    +0.000 A 
ATOM     38  C17 UNL     1      60.774  58.952 110.682  0.00  0.00    +0.000 A 
ATOM     39  F1  UNL     1      59.904  58.682 109.677  0.00  0.00    +0.000 F 
ENDBRANCH  30  32
ENDBRANCH  14  30
TORSDOF 5
ENDMDL
MODEL 2
REMARK VINA RESULT:      -7.9      3.693      6.348
REMARK  Name = ./S2673.pdb
REMARK  8 active torsions:
REMARK  status: ('A' for Active; 'I' for Inactive)
REMARK    1  A    between atoms: C1_1  and  N1_2
REMARK    2  A    between atoms: C3_5  and  C26_37
REMARK    3  A    between atoms: N2_7  and  C18_27
REMARK    4  A    between atoms: N3_10  and  C6_11
REMARK    5  A    between atoms: C11_17  and  N4_18
REMARK    6  A    between atoms: N4_18  and  C12_19
REMARK    7  A    between atoms: C20_29  and  N5_33
REMARK    8  A    between atoms: C24_34  and  C25_35
REMARK                            x       y       z     vdW  Elec       q    Type
REMARK                         _______ _______ _______ _____ _____    ______ ____
ROOT
ATOM      1  C1  UNL     1      65.241  59.830 114.387  0.00  0.00    +0.000 C 
ATOM      2  N1  UNL     1      64.195  59.758 113.347  0.00  0.00    +0.000 N 
ATOM      3  C2  UNL     1      64.562  59.646 112.034  0.00  0.00    +0.000 A 
ATOM      4  O1  UNL     1      65.787  59.635 111.723  0.00  0.00    +0.000 OA
ATOM      5  C3  UNL     1      63.592  59.556 111.018  0.00  0.00    +0.000 A 
ATOM      6  C4  UNL     1      62.215  59.447 111.379  0.00  0.00    +0.000 A 
ATOM      7  N2  UNL     1      61.222  59.105 110.480  0.00  0.00    +0.000 N 
ATOM      8  C5  UNL     1      59.900  59.256 110.812  0.00  0.00    +0.000 A 
ATOM      9  O2  UNL     1      59.006  59.032 109.946  0.00  0.00    +0.000 OA
ATOM     10  N3  UNL     1      59.532  59.630 112.075  0.00  0.00    +0.000 N 
ATOM     11  C9  UNL     1      60.484  59.900 113.017  0.00  0.00    +0.000 A 
ATOM     12  O3  UNL     1      60.123  60.312 114.155  0.00  0.00    +0.000 OA
ATOM     13  C10 UNL     1      61.856  59.749 112.714  0.00  0.00    +0.000 A 
ATOM     14  C11 UNL     1      62.876  59.904 113.692  0.00  0.00    +0.000 A 
ATOM     15  C26 UNL     1      64.053  59.705 109.582  0.00  0.00    +0.000 C 
ENDROOT
BRANCH   7  16
ATOM     16  C18 UNL     1      61.510  58.376 109.265  0.00  0.00    +0.000 A 
ATOM     17  C19 UNL     1      61.543  59.036 108.025  0.00  0.00    +0.000 A 
ATOM     18  C20 UNL     1      61.804  58.326 106.842  0.00  0.00    +0.000 A 
ATOM     19  C21 UNL     1      61.979  56.932 106.906  0.00  0.00    +0.000 A 
ATOM     20  C22 UNL     1      61.929  56.270 108.136  0.00  0.00    +0.000 A 
ATOM     21  C23 UNL     1      61.694  56.986 109.310  0.00  0.00    +0.000 A 
BRANCH  18  22
ATOM     22  N5  UNL     1      61.827  59.031 105.589  0.00  0.00    +0.000 N 
ATOM     23  C24 UNL     1      62.886  59.906 105.172  0.00  0.00    +0.000 C 
ATOM     24  C25 UNL     1      62.912  60.426 103.772  0.00  0.00    +0.000 C 
ATOM     25  O4  UNL     1      63.748  60.310 105.997  0.00  0.00    +0.000 OA
ATOM     26  H17 UNL     1      60.983  58.965 104.973  0.00  0.00    +0.000 HD
ENDBRANCH  18  22
ENDBRANCH   7  16
BRANCH  10  27
ATOM     27  C6  UNL     1      58.103  59.830 112.395  0.00  0.00    +0.000 C 
ATOM     28  C7  UNL     1      57.155  58.815 111.762  0.00  0.00    +0.000 C 
ATOM     29  C8  UNL     1      57.475  58.723 113.239  0.00  0.00    +0.000 C 
ENDBRANCH  10  27
BRANCH  14  30
ATOM     30  N4  UNL     1      62.532  60.170 115.064  0.00  0.00    +0.000 N 
ATOM     31  H9  UNL     1      62.441  61.171 115.350  0.00  0.00    +0.000 HD
BRANCH  30  32
ATOM     32  C12 UNL     1      62.331  59.128 116.037  0.00  0.00    +0.000 A 
ATOM     33  C13 UNL     1      62.252  57.774 115.654  0.00  0.00    +0.000 A 
ATOM     34  C14 UNL     1      62.068  56.777 116.614  0.00  0.00    +0.000 A 
ATOM     35  C15 UNL     1      61.963  57.114 117.966  0.00  0.00    +0.000 A 
ATOM     36  I1  UNL     1      61.688  55.605 119.414  0.00  0.00    +0.000 I 
ATOM     37  C16 UNL     1      62.045  58.453 118.359  0.00  0.00    +0.000 A 
ATOM     38  C17 UNL     1      62.229  59.457 117.402  0.00  0.00    +0.000 A 
ATOM     39  F1  UNL     1      62.304  60.749 117.807  0.00  0.00    +0.000 F 
ENDBRANCH  30  32
ENDBRANCH  14  30
TORSDOF 5
ENDMDL
MODEL 3
REMARK VINA RESULT:      -7.8     12.655     16.336
REMARK  Name = ./S2673.pdb
REMARK  8 active torsions:
REMARK  status: ('A' for Active; 'I' for Inactive)
REMARK    1  A    between atoms: C1_1  and  N1_2
REMARK    2  A    between atoms: C3_5  and  C26_37
REMARK    3  A    between atoms: N2_7  and  C18_27
REMARK    4  A    between atoms: N3_10  and  C6_11
REMARK    5  A    between atoms: C11_17  and  N4_18
REMARK    6  A    between atoms: N4_18  and  C12_19
REMARK    7  A    between atoms: C20_29  and  N5_33
REMARK    8  A    between atoms: C24_34  and  C25_35
REMARK                            x       y       z     vdW  Elec       q    Type
REMARK                         _______ _______ _______ _____ _____    ______ ____
ROOT
ATOM      1  C1  UNL     1      72.695  71.066 107.977  0.00  0.00    +0.000 C 
ATOM      2  N1  UNL     1      72.928  69.651 108.326  0.00  0.00    +0.000 N 
ATOM      3  C2  UNL     1      73.967  69.327 109.155  0.00  0.00    +0.000 A 
ATOM      4  O1  UNL     1      74.731  70.236 109.589  0.00  0.00    +0.000 OA
ATOM      5  C3  UNL     1      74.207  67.990 109.524  0.00  0.00    +0.000 A 
ATOM      6  C4  UNL     1      73.275  66.982 109.133  0.00  0.00    +0.000 A 
ATOM      7  N2  UNL     1      73.285  65.701 109.651  0.00  0.00    +0.000 N 
ATOM      8  C5  UNL     1      72.538  64.709 109.068  0.00  0.00    +0.000 A 
ATOM      9  O2  UNL     1      72.633  63.520 109.491  0.00  0.00    +0.000 OA
ATOM     10  N3  UNL     1      71.677  64.989 108.043  0.00  0.00    +0.000 N 
ATOM     11  C9  UNL     1      71.578  66.262 107.556  0.00  0.00    +0.000 A 
ATOM     12  O3  UNL     1      70.829  66.484 106.564  0.00  0.00    +0.000 OA
ATOM     13  C10 UNL     1      72.326  67.311 108.135  0.00  0.00    +0.000 A 
ATOM     14  C11 UNL     1      72.171  68.668 107.741  0.00  0.00    +0.000 A 
ATOM     15  C26 UNL     1      75.517  67.670 110.217  0.00  0.00    +0.000 C 
ENDROOT
BRANCH   7  16
ATOM     16  C18 UNL     1      73.886  65.398 110.930  0.00  0.00    +0.000 A 
ATOM     17  C19 UNL     1      73.328  65.898 112.119  0.00  0.00    +0.000 A 
ATOM     18  C20 UNL     1      73.922  65.621 113.360  0.00  0.00    +0.000 A 
ATOM     19  C21 UNL     1      75.117  64.879 113.397  0.00  0.00    +0.000 A 
ATOM     20  C22 UNL     1      75.684  64.396 112.215  0.00  0.00    +0.000 A 
ATOM     21  C23 UNL     1      75.074  64.655 110.986  0.00  0.00    +0.000 A 
BRANCH  18  22
ATOM     22  N5  UNL     1      73.328  66.150 114.559  0.00  0.00    +0.000 N 
ATOM     23  C24 UNL     1      73.679  67.412 115.146  0.00  0.00    +0.000 C 
ATOM     24  C25 UNL     1      72.862  67.961 116.270  0.00  0.00    +0.000 C 
ATOM     25  O4  UNL     1      74.719  68.024 114.783  0.00  0.00    +0.000 OA
ATOM     26  H17 UNL     1      72.653  65.544 115.081  0.00  0.00    +0.000 HD
ENDBRANCH  18  22
ENDBRANCH   7  16
BRANCH  10  27
ATOM     27  C6  UNL     1      70.916  63.895 107.402  0.00  0.00    +0.000 C 
ATOM     28  C7  UNL     1      70.962  63.891 105.876  0.00  0.00    +0.000 C 
ATOM     29  C8  UNL     1      71.770  62.875 106.653  0.00  0.00    +0.000 C 
ENDBRANCH  10  27
BRANCH  14  30
ATOM     30  N4  UNL     1      71.184  69.030 106.759  0.00  0.00    +0.000 N 
ATOM     31  H9  UNL     1      70.180  68.943 107.034  0.00  0.00    +0.000 HD
BRANCH  30  32
ATOM     32  C12 UNL     1      71.525  69.483 105.435  0.00  0.00    +0.000 A 
ATOM     33  C13 UNL     1      72.711  69.061 104.801  0.00  0.00    +0.000 A 
ATOM     34  C14 UNL     1      73.020  69.502 103.512  0.00  0.00    +0.000 A 
ATOM     35  C15 UNL     1      72.151  70.366 102.839  0.00  0.00    +0.000 A 
ATOM     36  I1  UNL     1      72.619  71.028 100.892  0.00  0.00    +0.000 I 
ATOM     37  C16 UNL     1      70.971  70.788 103.456  0.00  0.00    +0.000 A 
ATOM     38  C17 UNL     1      70.656  70.349 104.748  0.00  0.00    +0.000 A 
ATOM     39  F1  UNL     1      69.505  70.773 105.326  0.00  0.00    +0.000 F 
ENDBRANCH  30  32
ENDBRANCH  14  30
TORSDOF 5
ENDMDL
MODEL 4
REMARK VINA RESULT:      -7.6     14.059     16.631
REMARK  Name = ./S2673.pdb
REMARK  8 active torsions:
REMARK  status: ('A' for Active; 'I' for Inactive)
REMARK    1  A    between atoms: C1_1  and  N1_2
REMARK    2  A    between atoms: C3_5  and  C26_37
REMARK    3  A    between atoms: N2_7  and  C18_27
REMARK    4  A    between atoms: N3_10  and  C6_11
REMARK    5  A    between atoms: C11_17  and  N4_18
REMARK    6  A    between atoms: N4_18  and  C12_19
REMARK    7  A    between atoms: C20_29  and  N5_33
REMARK    8  A    between atoms: C24_34  and  C25_35
REMARK                            x       y       z     vdW  Elec       q    Type
REMARK                         _______ _______ _______ _____ _____    ______ ____
ROOT
ATOM      1  C1  UNL     1      78.076  61.330 111.485  0.00  0.00    +0.000 C 
ATOM      2  N1  UNL     1      77.154  62.461 111.708  0.00  0.00    +0.000 N 
ATOM      3  C2  UNL     1      76.715  63.190 110.636  0.00  0.00    +0.000 A 
ATOM      4  O1  UNL     1      77.125  62.906 109.474  0.00  0.00    +0.000 OA
ATOM      5  C3  UNL     1      75.820  64.263 110.810  0.00  0.00    +0.000 A 
ATOM      6  C4  UNL     1      75.266  64.504 112.103  0.00  0.00    +0.000 A 
ATOM      7  N2  UNL     1      74.203  65.359 112.322  0.00  0.00    +0.000 N 
ATOM      8  C5  UNL     1      73.872  65.746 113.596  0.00  0.00    +0.000 A 
ATOM      9  O2  UNL     1      72.960  66.605 113.774  0.00  0.00    +0.000 OA
ATOM     10  N3  UNL     1      74.503  65.203 114.680  0.00  0.00    +0.000 N 
ATOM     11  C9  UNL     1      75.507  64.292 114.507  0.00  0.00    +0.000 A 
ATOM     12  O3  UNL     1      76.123  63.856 115.519  0.00  0.00    +0.000 OA
ATOM     13  C10 UNL     1      75.871  63.863 113.210  0.00  0.00    +0.000 A 
ATOM     14  C11 UNL     1      76.825  62.835 112.986  0.00  0.00    +0.000 A 
ATOM     15  C26 UNL     1      75.586  65.188 109.632  0.00  0.00    +0.000 C 
ENDROOT
BRANCH   7  16
ATOM     16  C18 UNL     1      73.268  65.701 111.273  0.00  0.00    +0.000 A 
ATOM     17  C19 UNL     1      73.416  66.892 110.542  0.00  0.00    +0.000 A 
ATOM     18  C20 UNL     1      72.497  67.233 109.537  0.00  0.00    +0.000 A 
ATOM     19  C21 UNL     1      71.393  66.393 109.305  0.00  0.00    +0.000 A 
ATOM     20  C22 UNL     1      71.234  65.217 110.043  0.00  0.00    +0.000 A 
ATOM     21  C23 UNL     1      72.164  64.872 111.024  0.00  0.00    +0.000 A 
BRANCH  18  22
ATOM     22  N5  UNL     1      72.675  68.461 108.809  0.00  0.00    +0.000 N 
ATOM     23  C24 UNL     1      73.352  68.563 107.548  0.00  0.00    +0.000 C 
ATOM     24  C25 UNL     1      73.303  69.844 106.780  0.00  0.00    +0.000 C 
ATOM     25  O4  UNL     1      74.060  67.613 107.119  0.00  0.00    +0.000 OA
ATOM     26  H17 UNL     1      72.359  69.350 109.263  0.00  0.00    +0.000 HD
ENDBRANCH  18  22
ENDBRANCH   7  16
BRANCH  10  27
ATOM     27  C6  UNL     1      74.160  65.669 116.041  0.00  0.00    +0.000 C 
ATOM     28  C7  UNL     1      75.358  66.030 116.916  0.00  0.00    +0.000 C 
ATOM     29  C8  UNL     1      74.503  67.130 116.323  0.00  0.00    +0.000 C 
ENDBRANCH  10  27
BRANCH  14  30
ATOM     30  N4  UNL     1      77.422  62.142 114.097  0.00  0.00    +0.000 N 
ATOM     31  H9  UNL     1      78.208  62.619 114.593  0.00  0.00    +0.000 HD
BRANCH  30  32
ATOM     32  C12 UNL     1      76.993  60.837 114.528  0.00  0.00    +0.000 A 
ATOM     33  C13 UNL     1      75.625  60.527 114.670  0.00  0.00    +0.000 A 
ATOM     34  C14 UNL     1      75.228  59.251 115.079  0.00  0.00    +0.000 A 
ATOM     35  C15 UNL     1      76.187  58.270 115.349  0.00  0.00    +0.000 A 
ATOM     36  I1  UNL     1      75.583  56.345 115.964  0.00  0.00    +0.000 I 
ATOM     37  C16 UNL     1      77.545  58.565 115.209  0.00  0.00    +0.000 A 
ATOM     38  C17 UNL     1      77.949  59.841 114.799  0.00  0.00    +0.000 A 
ATOM     39  F1  UNL     1      79.274  60.104 114.671  0.00  0.00    +0.000 F 
ENDBRANCH  30  32
ENDBRANCH  14  30
TORSDOF 5
ENDMDL
MODEL 5
REMARK VINA RESULT:      -7.5     13.630     17.236
REMARK  Name = ./S2673.pdb
REMARK  8 active torsions:
REMARK  status: ('A' for Active; 'I' for Inactive)
REMARK    1  A    between atoms: C1_1  and  N1_2
REMARK    2  A    between atoms: C3_5  and  C26_37
REMARK    3  A    between atoms: N2_7  and  C18_27
REMARK    4  A    between atoms: N3_10  and  C6_11
REMARK    5  A    between atoms: C11_17  and  N4_18
REMARK    6  A    between atoms: N4_18  and  C12_19
REMARK    7  A    between atoms: C20_29  and  N5_33
REMARK    8  A    between atoms: C24_34  and  C25_35
REMARK                            x       y       z     vdW  Elec       q    Type
REMARK                         _______ _______ _______ _____ _____    ______ ____
ROOT
ATOM      1  C1  UNL     1      76.822  64.614 109.103  0.00  0.00    +0.000 C 
ATOM      2  N1  UNL     1      76.652  63.824 110.338  0.00  0.00    +0.000 N 
ATOM      3  C2  UNL     1      77.622  62.929 110.701  0.00  0.00    +0.000 A 
ATOM      4  O1  UNL     1      78.636  62.768 109.962  0.00  0.00    +0.000 OA
ATOM      5  C3  UNL     1      77.502  62.173 111.882  0.00  0.00    +0.000 A 
ATOM      6  C4  UNL     1      76.420  62.443 112.773  0.00  0.00    +0.000 A 
ATOM      7  N2  UNL     1      76.357  61.939 114.059  0.00  0.00    +0.000 N 
ATOM      8  C5  UNL     1      75.193  62.019 114.781  0.00  0.00    +0.000 A 
ATOM      9  O2  UNL     1      75.120  61.467 115.918  0.00  0.00    +0.000 OA
ATOM     10  N3  UNL     1      74.112  62.703 114.297  0.00  0.00    +0.000 N 
ATOM     11  C9  UNL     1      74.164  63.285 113.061  0.00  0.00    +0.000 A 
ATOM     12  O3  UNL     1      73.132  63.851 112.605  0.00  0.00    +0.000 OA
ATOM     13  C10 UNL     1      75.348  63.230 112.291  0.00  0.00    +0.000 A 
ATOM     14  C11 UNL     1      75.487  63.917 111.055  0.00  0.00    +0.000 A 
ATOM     15  C26 UNL     1      78.465  61.020 112.086  0.00  0.00    +0.000 C 
ENDROOT
BRANCH   7  16
ATOM     16  C18 UNL     1      77.541  61.519 114.775  0.00  0.00    +0.000 A 
ATOM     17  C19 UNL     1      77.783  60.157 115.022  0.00  0.00    +0.000 A 
ATOM     18  C20 UNL     1      78.923  59.751 115.734  0.00  0.00    +0.000 A 
ATOM     19  C21 UNL     1      79.796  60.729 116.245  0.00  0.00    +0.000 A 
ATOM     20  C22 UNL     1      79.547  62.085 116.016  0.00  0.00    +0.000 A 
ATOM     21  C23 UNL     1      78.426  62.481 115.287  0.00  0.00    +0.000 A 
BRANCH  18  22
ATOM     22  N5  UNL     1      79.140  58.350 115.974  0.00  0.00    +0.000 N 
ATOM     23  C24 UNL     1      79.977  57.511 115.163  0.00  0.00    +0.000 C 
ATOM     24  C25 UNL     1      80.296  56.123 115.615  0.00  0.00    +0.000 C 
ATOM     25  O4  UNL     1      80.376  57.900 114.033  0.00  0.00    +0.000 OA
ATOM     26  H17 UNL     1      78.594  57.892 116.740  0.00  0.00    +0.000 HD
ENDBRANCH  18  22
ENDBRANCH   7  16
BRANCH  10  27
ATOM     27  C6  UNL     1      72.855  62.737 115.074  0.00  0.00    +0.000 C 
ATOM     28  C7  UNL     1      73.038  62.783 116.589  0.00  0.00    +0.000 C 
ATOM     29  C8  UNL     1      72.614  64.032 115.846  0.00  0.00    +0.000 C 
ENDBRANCH  10  27
BRANCH  14  30
ATOM     30  N4  UNL     1      74.425  64.755 110.566  0.00  0.00    +0.000 N 
ATOM     31  H9  UNL     1      74.285  65.676 111.040  0.00  0.00    +0.000 HD
BRANCH  30  32
ATOM     32  C12 UNL     1      73.558  64.370 109.483  0.00  0.00    +0.000 A 
ATOM     33  C13 UNL     1      73.567  63.057 108.971  0.00  0.00    +0.000 A 
ATOM     34  C14 UNL     1      72.710  62.699 107.927  0.00  0.00    +0.000 A 
ATOM     35  C15 UNL     1      71.834  63.642 107.383  0.00  0.00    +0.000 A 
ATOM     36  I1  UNL     1      70.540  63.098 105.809  0.00  0.00    +0.000 I 
ATOM     37  C16 UNL     1      71.813  64.946 107.885  0.00  0.00    +0.000 A 
ATOM     38  C17 UNL     1      72.669  65.311 108.932  0.00  0.00    +0.000 A 
ATOM     39  F1  UNL     1      72.632  66.582 109.401  0.00  0.00    +0.000 F 
ENDBRANCH  30  32
ENDBRANCH  14  30
TORSDOF 5
ENDMDL
MODEL 6
REMARK VINA RESULT:      -7.4     15.343     17.881
REMARK  Name = ./S2673.pdb
REMARK  8 active torsions:
REMARK  status: ('A' for Active; 'I' for Inactive)
REMARK    1  A    between atoms: C1_1  and  N1_2
REMARK    2  A    between atoms: C3_5  and  C26_37
REMARK    3  A    between atoms: N2_7  and  C18_27
REMARK    4  A    between atoms: N3_10  and  C6_11
REMARK    5  A    between atoms: C11_17  and  N4_18
REMARK    6  A    between atoms: N4_18  and  C12_19
REMARK    7  A    between atoms: C20_29  and  N5_33
REMARK    8  A    between atoms: C24_34  and  C25_35
REMARK                            x       y       z     vdW  Elec       q    Type
REMARK                         _______ _______ _______ _____ _____    ______ ____
ROOT
ATOM      1  C1  UNL     1      76.435  65.591 108.384  0.00  0.00    +0.000 C 
ATOM      2  N1  UNL     1      75.993  65.146 109.720  0.00  0.00    +0.000 N 
ATOM      3  C2  UNL     1      75.858  63.808 109.971  0.00  0.00    +0.000 A 
ATOM      4  O1  UNL     1      76.085  62.971 109.051  0.00  0.00    +0.000 OA
ATOM      5  C3  UNL     1      75.458  63.348 111.240  0.00  0.00    +0.000 A 
ATOM      6  C4  UNL     1      75.320  64.284 112.308  0.00  0.00    +0.000 A 
ATOM      7  N2  UNL     1      75.180  63.907 113.631  0.00  0.00    +0.000 N 
ATOM      8  C5  UNL     1      74.805  64.824 114.580  0.00  0.00    +0.000 A 
ATOM      9  O2  UNL     1      74.585  64.444 115.766  0.00  0.00    +0.000 OA
ATOM     10  N3  UNL     1      74.680  66.149 114.265  0.00  0.00    +0.000 N 
ATOM     11  C9  UNL     1      74.889  66.574 112.983  0.00  0.00    +0.000 A 
ATOM     12  O3  UNL     1      74.701  67.790 112.700  0.00  0.00    +0.000 OA
ATOM     13  C10 UNL     1      75.285  65.660 111.980  0.00  0.00    +0.000 A 
ATOM     14  C11 UNL     1      75.626  66.072 110.663  0.00  0.00    +0.000 A 
ATOM     15  C26 UNL     1      75.070  61.888 111.374  0.00  0.00    +0.000 C 
ENDROOT
BRANCH   7  16
ATOM     16  C18 UNL     1      75.629  62.619 114.110  0.00  0.00    +0.000 A 
ATOM     17  C19 UNL     1      76.999  62.359 114.289  0.00  0.00    +0.000 A 
ATOM     18  C20 UNL     1      77.436  61.102 114.736  0.00  0.00    +0.000 A 
ATOM     19  C21 UNL     1      76.489  60.085 114.951  0.00  0.00    +0.000 A 
ATOM     20  C22 UNL     1      75.128  60.335 114.756  0.00  0.00    +0.000 A 
ATOM     21  C23 UNL     1      74.698  61.594 114.336  0.00  0.00    +0.000 A 
BRANCH  18  22
ATOM     22  N5  UNL     1      78.845  60.868 114.906  0.00  0.00    +0.000 N 
ATOM     23  C24 UNL     1      79.509  60.822 116.178  0.00  0.00    +0.000 C 
ATOM     24  C25 UNL     1      80.931  60.370 116.257  0.00  0.00    +0.000 C 
ATOM     25  O4  UNL     1      78.936  61.240 117.219  0.00  0.00    +0.000 OA
ATOM     26  H17 UNL     1      79.439  60.803 114.047  0.00  0.00    +0.000 HD
ENDBRANCH  18  22
ENDBRANCH   7  16
BRANCH  10  27
ATOM     27  C6  UNL     1      74.230  67.110 115.294  0.00  0.00    +0.000 C 
ATOM     28  C7  UNL     1      74.938  66.986 116.641  0.00  0.00    +0.000 C 
ATOM     29  C8  UNL     1      75.281  68.134 115.716  0.00  0.00    +0.000 C 
ENDBRANCH  10  27
BRANCH  14  30
ATOM     30  N4  UNL     1      75.637  67.469 110.319  0.00  0.00    +0.000 N 
ATOM     31  H9  UNL     1      76.433  68.044 110.675  0.00  0.00    +0.000 HD
BRANCH  30  32
ATOM     32  C12 UNL     1      74.603  68.090 109.533  0.00  0.00    +0.000 A 
ATOM     33  C13 UNL     1      73.367  67.449 109.313  0.00  0.00    +0.000 A 
ATOM     34  C14 UNL     1      72.372  68.073 108.556  0.00  0.00    +0.000 A 
ATOM     35  C15 UNL     1      72.594  69.341 108.012  0.00  0.00    +0.000 A 
ATOM     36  I1  UNL     1      71.088  70.280 106.872  0.00  0.00    +0.000 I 
ATOM     37  C16 UNL     1      73.814  69.987 108.226  0.00  0.00    +0.000 A 
ATOM     38  C17 UNL     1      74.815  69.368 108.984  0.00  0.00    +0.000 A 
ATOM     39  F1  UNL     1      75.991  70.015 109.177  0.00  0.00    +0.000 F 
ENDBRANCH  30  32
ENDBRANCH  14  30
TORSDOF 5
ENDMDL
MODEL 7
REMARK VINA RESULT:      -7.3     13.579     17.468
REMARK  Name = ./S2673.pdb
REMARK  8 active torsions:
REMARK  status: ('A' for Active; 'I' for Inactive)
REMARK    1  A    between atoms: C1_1  and  N1_2
REMARK    2  A    between atoms: C3_5  and  C26_37
REMARK    3  A    between atoms: N2_7  and  C18_27
REMARK    4  A    between atoms: N3_10  and  C6_11
REMARK    5  A    between atoms: C11_17  and  N4_18
REMARK    6  A    between atoms: N4_18  and  C12_19
REMARK    7  A    between atoms: C20_29  and  N5_33
REMARK    8  A    between atoms: C24_34  and  C25_35
REMARK                            x       y       z     vdW  Elec       q    Type
REMARK                         _______ _______ _______ _____ _____    ______ ____
ROOT
ATOM      1  C1  UNL     1      72.202  66.367 110.864  0.00  0.00    +0.000 C 
ATOM      2  N1  UNL     1      73.472  65.686 111.184  0.00  0.00    +0.000 N 
ATOM      3  C2  UNL     1      73.794  65.448 112.492  0.00  0.00    +0.000 A 
ATOM      4  O1  UNL     1      73.017  65.838 113.411  0.00  0.00    +0.000 OA
ATOM      5  C3  UNL     1      74.987  64.785 112.833  0.00  0.00    +0.000 A 
ATOM      6  C4  UNL     1      75.801  64.240 111.795  0.00  0.00    +0.000 A 
ATOM      7  N2  UNL     1      76.845  63.365 112.033  0.00  0.00    +0.000 N 
ATOM      8  C5  UNL     1      77.745  63.069 111.041  0.00  0.00    +0.000 A 
ATOM      9  O2  UNL     1      78.749  62.345 111.300  0.00  0.00    +0.000 OA
ATOM     10  N3  UNL     1      77.563  63.532 109.767  0.00  0.00    +0.000 N 
ATOM     11  C9  UNL     1      76.496  64.336 109.473  0.00  0.00    +0.000 A 
ATOM     12  O3  UNL     1      76.386  64.809 108.308  0.00  0.00    +0.000 OA
ATOM     13  C10 UNL     1      75.545  64.656 110.467  0.00  0.00    +0.000 A 
ATOM     14  C11 UNL     1      74.361  65.389 110.182  0.00  0.00    +0.000 A 
ATOM     15  C26 UNL     1      75.411  64.792 114.289  0.00  0.00    +0.000 C 
ENDROOT
BRANCH   7  16
ATOM     16  C18 UNL     1      76.911  62.563 113.234  0.00  0.00    +0.000 A 
ATOM     17  C19 UNL     1      77.937  62.761 114.173  0.00  0.00    +0.000 A 
ATOM     18  C20 UNL     1      78.012  61.969 115.329  0.00  0.00    +0.000 A 
ATOM     19  C21 UNL     1      77.076  60.935 115.513  0.00  0.00    +0.000 A 
ATOM     20  C22 UNL     1      76.066  60.723 114.571  0.00  0.00    +0.000 A 
ATOM     21  C23 UNL     1      75.982  61.530 113.436  0.00  0.00    +0.000 A 
BRANCH  18  22
ATOM     22  N5  UNL     1      79.077  62.196 116.269  0.00  0.00    +0.000 N 
ATOM     23  C24 UNL     1      79.029  63.164 117.328  0.00  0.00    +0.000 C 
ATOM     24  C25 UNL     1      80.099  63.178 118.370  0.00  0.00    +0.000 C 
ATOM     25  O4  UNL     1      78.142  64.059 117.342  0.00  0.00    +0.000 OA
ATOM     26  H17 UNL     1      79.975  61.678 116.127  0.00  0.00    +0.000 HD
ENDBRANCH  18  22
ENDBRANCH   7  16
BRANCH  10  27
ATOM     27  C6  UNL     1      78.570  63.237 108.726  0.00  0.00    +0.000 C 
ATOM     28  C7  UNL     1      79.201  64.466 108.077  0.00  0.00    +0.000 C 
ATOM     29  C8  UNL     1      79.996  63.654 109.078  0.00  0.00    +0.000 C 
ENDBRANCH  10  27
BRANCH  14  30
ATOM     30  N4  UNL     1      74.060  65.787 108.833  0.00  0.00    +0.000 N 
ATOM     31  H9  UNL     1      74.480  66.681 108.492  0.00  0.00    +0.000 HD
BRANCH  30  32
ATOM     32  C12 UNL     1      73.205  65.022 107.963  0.00  0.00    +0.000 A 
ATOM     33  C13 UNL     1      73.092  63.623 108.094  0.00  0.00    +0.000 A 
ATOM     34  C14 UNL     1      72.250  62.899 107.247  0.00  0.00    +0.000 A 
ATOM     35  C15 UNL     1      71.508  63.558 106.263  0.00  0.00    +0.000 A 
ATOM     36  I1  UNL     1      70.234  62.462 104.989  0.00  0.00    +0.000 I 
ATOM     37  C16 UNL     1      71.608  64.945 106.127  0.00  0.00    +0.000 A 
ATOM     38  C17 UNL     1      72.450  65.677 106.972  0.00  0.00    +0.000 A 
ATOM     39  F1  UNL     1      72.532  67.022 106.820  0.00  0.00    +0.000 F 
ENDBRANCH  30  32
ENDBRANCH  14  30
TORSDOF 5
ENDMDL
MODEL 8
REMARK VINA RESULT:      -7.3     15.200     17.635
REMARK  Name = ./S2673.pdb
REMARK  8 active torsions:
REMARK  status: ('A' for Active; 'I' for Inactive)
REMARK    1  A    between atoms: C1_1  and  N1_2
REMARK    2  A    between atoms: C3_5  and  C26_37
REMARK    3  A    between atoms: N2_7  and  C18_27
REMARK    4  A    between atoms: N3_10  and  C6_11
REMARK    5  A    between atoms: C11_17  and  N4_18
REMARK    6  A    between atoms: N4_18  and  C12_19
REMARK    7  A    between atoms: C20_29  and  N5_33
REMARK    8  A    between atoms: C24_34  and  C25_35
REMARK                            x       y       z     vdW  Elec       q    Type
REMARK                         _______ _______ _______ _____ _____    ______ ____
ROOT
ATOM      1  C1  UNL     1      76.268  65.872 108.174  0.00  0.00    +0.000 C 
ATOM      2  N1  UNL     1      76.001  65.336 109.523  0.00  0.00    +0.000 N 
ATOM      3  C2  UNL     1      76.096  63.988 109.739  0.00  0.00    +0.000 A 
ATOM      4  O1  UNL     1      76.381  63.217 108.779  0.00  0.00    +0.000 OA
ATOM      5  C3  UNL     1      75.867  63.444 111.017  0.00  0.00    +0.000 A 
ATOM      6  C4  UNL     1      75.665  64.325 112.122  0.00  0.00    +0.000 A 
ATOM      7  N2  UNL     1      75.684  63.903 113.439  0.00  0.00    +0.000 N 
ATOM      8  C5  UNL     1      75.242  64.729 114.441  0.00  0.00    +0.000 A 
ATOM      9  O2  UNL     1      75.173  64.295 115.627  0.00  0.00    +0.000 OA
ATOM     10  N3  UNL     1      74.890  66.024 114.178  0.00  0.00    +0.000 N 
ATOM     11  C9  UNL     1      74.934  66.504 112.899  0.00  0.00    +0.000 A 
ATOM     12  O3  UNL     1      74.538  67.680 112.670  0.00  0.00    +0.000 OA
ATOM     13  C10 UNL     1      75.391  65.684 111.842  0.00  0.00    +0.000 A 
ATOM     14  C11 UNL     1      75.566  66.173 110.519  0.00  0.00    +0.000 A 
ATOM     15  C26 UNL     1      75.723  61.939 111.132  0.00  0.00    +0.000 C 
ENDROOT
BRANCH   7  16
ATOM     16  C18 UNL     1      76.363  62.692 113.843  0.00  0.00    +0.000 A 
ATOM     17  C19 UNL     1      75.633  61.569 114.268  0.00  0.00    +0.000 A 
ATOM     18  C20 UNL     1      76.292  60.401 114.680  0.00  0.00    +0.000 A 
ATOM     19  C21 UNL     1      77.699  60.384 114.713  0.00  0.00    +0.000 A 
ATOM     20  C22 UNL     1      78.428  61.506 114.309  0.00  0.00    +0.000 A 
ATOM     21  C23 UNL     1      77.765  62.656 113.877  0.00  0.00    +0.000 A 
BRANCH  18  22
ATOM     22  N5  UNL     1      75.516  59.270 115.112  0.00  0.00    +0.000 N 
ATOM     23  C24 UNL     1      75.211  58.975 116.483  0.00  0.00    +0.000 C 
ATOM     24  C25 UNL     1      74.230  57.896 116.809  0.00  0.00    +0.000 C 
ATOM     25  O4  UNL     1      75.824  59.555 117.418  0.00  0.00    +0.000 OA
ATOM     26  H17 UNL     1      75.219  58.573 114.389  0.00  0.00    +0.000 HD
ENDBRANCH  18  22
ENDBRANCH   7  16
BRANCH  10  27
ATOM     27  C6  UNL     1      74.373  66.881 115.267  0.00  0.00    +0.000 C 
ATOM     28  C7  UNL     1      75.216  66.878 116.540  0.00  0.00    +0.000 C 
ATOM     29  C8  UNL     1      75.257  68.076 115.615  0.00  0.00    +0.000 C 
ENDBRANCH  10  27
BRANCH  14  30
ATOM     30  N4  UNL     1      75.333  67.560 110.220  0.00  0.00    +0.000 N 
ATOM     31  H9  UNL     1      76.019  68.253 110.595  0.00  0.00    +0.000 HD
BRANCH  30  32
ATOM     32  C12 UNL     1      74.203  68.018 109.453  0.00  0.00    +0.000 A 
ATOM     33  C13 UNL     1      72.988  67.303 109.443  0.00  0.00    +0.000 A 
ATOM     34  C14 UNL     1      71.900  67.769 108.701  0.00  0.00    +0.000 A 
ATOM     35  C15 UNL     1      72.007  68.952 107.965  0.00  0.00    +0.000 A 
ATOM     36  I1  UNL     1      70.360  69.654 106.849  0.00  0.00    +0.000 I 
ATOM     37  C16 UNL     1      73.204  69.671 107.971  0.00  0.00    +0.000 A 
ATOM     38  C17 UNL     1      74.299  69.210 108.712  0.00  0.00    +0.000 A 
ATOM     39  F1  UNL     1      75.451  69.925 108.701  0.00  0.00    +0.000 F 
ENDBRANCH  30  32
ENDBRANCH  14  30
TORSDOF 5
ENDMDL
MODEL 9
REMARK VINA RESULT:      -7.3     13.089     17.224
REMARK  Name = ./S2673.pdb
REMARK  8 active torsions:
REMARK  status: ('A' for Active; 'I' for Inactive)
REMARK    1  A    between atoms: C1_1  and  N1_2
REMARK    2  A    between atoms: C3_5  and  C26_37
REMARK    3  A    between atoms: N2_7  and  C18_27
REMARK    4  A    between atoms: N3_10  and  C6_11
REMARK    5  A    between atoms: C11_17  and  N4_18
REMARK    6  A    between atoms: N4_18  and  C12_19
REMARK    7  A    between atoms: C20_29  and  N5_33
REMARK    8  A    between atoms: C24_34  and  C25_35
REMARK                            x       y       z     vdW  Elec       q    Type
REMARK                         _______ _______ _______ _____ _____    ______ ____
ROOT
ATOM      1  C1  UNL     1      71.371  65.052 106.221  0.00  0.00    +0.000 C 
ATOM      2  N1  UNL     1      72.003  65.626 107.425  0.00  0.00    +0.000 N 
ATOM      3  C2  UNL     1      71.842  64.998 108.630  0.00  0.00    +0.000 A 
ATOM      4  O1  UNL     1      71.133  63.954 108.705  0.00  0.00    +0.000 OA
ATOM      5  C3  UNL     1      72.447  65.507 109.795  0.00  0.00    +0.000 A 
ATOM      6  C4  UNL     1      73.343  66.612 109.688  0.00  0.00    +0.000 A 
ATOM      7  N2  UNL     1      74.170  67.018 110.719  0.00  0.00    +0.000 N 
ATOM      8  C5  UNL     1      74.822  68.223 110.655  0.00  0.00    +0.000 A 
ATOM      9  O2  UNL     1      75.496  68.626 111.647  0.00  0.00    +0.000 OA
ATOM     10  N3  UNL     1      74.768  68.991 109.525  0.00  0.00    +0.000 N 
ATOM     11  C9  UNL     1      74.025  68.585 108.452  0.00  0.00    +0.000 A 
ATOM     12  O3  UNL     1      73.933  69.342 107.446  0.00  0.00    +0.000 OA
ATOM     13  C10 UNL     1      73.345  67.346 108.478  0.00  0.00    +0.000 A 
ATOM     14  C11 UNL     1      72.658  66.829 107.347  0.00  0.00    +0.000 A 
ATOM     15  C26 UNL     1      72.015  64.927 111.128  0.00  0.00    +0.000 C 
ENDROOT
BRANCH   7  16
ATOM     16  C18 UNL     1      74.560  66.121 111.784  0.00  0.00    +0.000 A 
ATOM     17  C19 UNL     1      74.171  66.372 113.111  0.00  0.00    +0.000 A 
ATOM     18  C20 UNL     1      74.567  65.512 114.147  0.00  0.00    +0.000 A 
ATOM     19  C21 UNL     1      75.404  64.421 113.850  0.00  0.00    +0.000 A 
ATOM     20  C22 UNL     1      75.807  64.180 112.534  0.00  0.00    +0.000 A 
ATOM     21  C23 UNL     1      75.390  65.025 111.505  0.00  0.00    +0.000 A 
BRANCH  18  22
ATOM     22  N5  UNL     1      74.155  65.799 115.495  0.00  0.00    +0.000 N 
ATOM     23  C24 UNL     1      75.002  66.392 116.491  0.00  0.00    +0.000 C 
ATOM     24  C25 UNL     1      74.419  66.835 117.793  0.00  0.00    +0.000 C 
ATOM     25  O4  UNL     1      76.248  66.466 116.315  0.00  0.00    +0.000 OA
ATOM     26  H17 UNL     1      73.202  65.485 115.794  0.00  0.00    +0.000 HD
ENDBRANCH  18  22
ENDBRANCH   7  16
BRANCH  10  27
ATOM     27  C6  UNL     1      75.442  70.307 109.497  0.00  0.00    +0.000 C 
ATOM     28  C7  UNL     1      74.797  71.338 108.574  0.00  0.00    +0.000 C 
ATOM     29  C8  UNL     1      74.622  71.459 110.073  0.00  0.00    +0.000 C 
ENDBRANCH  10  27
BRANCH  14  30
ATOM     30  N4  UNL     1      72.681  67.537 106.096  0.00  0.00    +0.000 N 
ATOM     31  H9  UNL     1      73.451  67.305 105.428  0.00  0.00    +0.000 HD
BRANCH  30  32
ATOM     32  C12 UNL     1      71.713  68.544 105.747  0.00  0.00    +0.000 A 
ATOM     33  C13 UNL     1      70.606  68.812 106.577  0.00  0.00    +0.000 A 
ATOM     34  C14 UNL     1      69.682  69.801 106.227  0.00  0.00    +0.000 A 
ATOM     35  C15 UNL     1      69.852  70.535 105.050  0.00  0.00    +0.000 A 
ATOM     36  I1  UNL     1      68.458  72.029 104.527  0.00  0.00    +0.000 I 
ATOM     37  C16 UNL     1      70.948  70.282 104.222  0.00  0.00    +0.000 A 
ATOM     38  C17 UNL     1      71.877  69.293 104.567  0.00  0.00    +0.000 A 
ATOM     39  F1  UNL     1      72.932  69.063 103.746  0.00  0.00    +0.000 F 
ENDBRANCH  30  32
ENDBRANCH  14  30
TORSDOF 5
ENDMDL
MODEL 10
REMARK VINA RESULT:      -7.3     12.866     16.720
REMARK  Name = ./S2673.pdb
REMARK  8 active torsions:
REMARK  status: ('A' for Active; 'I' for Inactive)
REMARK    1  A    between atoms: C1_1  and  N1_2
REMARK    2  A    between atoms: C3_5  and  C26_37
REMARK    3  A    between atoms: N2_7  and  C18_27
REMARK    4  A    between atoms: N3_10  and  C6_11
REMARK    5  A    between atoms: C11_17  and  N4_18
REMARK    6  A    between atoms: N4_18  and  C12_19
REMARK    7  A    between atoms: C20_29  and  N5_33
REMARK    8  A    between atoms: C24_34  and  C25_35
REMARK                            x       y       z     vdW  Elec       q    Type
REMARK                         _______ _______ _______ _____ _____    ______ ____
ROOT
ATOM      1  C1  UNL     1      71.302  65.051 106.243  0.00  0.00    +0.000 C 
ATOM      2  N1  UNL     1      71.916  65.633 107.452  0.00  0.00    +0.000 N 
ATOM      3  C2  UNL     1      71.748  65.007 108.657  0.00  0.00    +0.000 A 
ATOM      4  O1  UNL     1      71.048  63.957 108.726  0.00  0.00    +0.000 OA
ATOM      5  C3  UNL     1      72.336  65.523 109.828  0.00  0.00    +0.000 A 
ATOM      6  C4  UNL     1      73.223  66.636 109.728  0.00  0.00    +0.000 A 
ATOM      7  N2  UNL     1      74.035  67.052 110.767  0.00  0.00    +0.000 N 
ATOM      8  C5  UNL     1      74.677  68.263 110.707  0.00  0.00    +0.000 A 
ATOM      9  O2  UNL     1      75.337  68.673 111.706  0.00  0.00    +0.000 OA
ATOM     10  N3  UNL     1      74.628  69.028 109.575  0.00  0.00    +0.000 N 
ATOM     11  C9  UNL     1      73.900  68.613 108.495  0.00  0.00    +0.000 A 
ATOM     12  O3  UNL     1      73.812  69.367 107.486  0.00  0.00    +0.000 OA
ATOM     13  C10 UNL     1      73.232  67.368 108.516  0.00  0.00    +0.000 A 
ATOM     14  C11 UNL     1      72.561  66.842 107.379  0.00  0.00    +0.000 A 
ATOM     15  C26 UNL     1      71.895  64.942 111.157  0.00  0.00    +0.000 C 
ENDROOT
BRANCH   7  16
ATOM     16  C18 UNL     1      74.422  66.161 111.837  0.00  0.00    +0.000 A 
ATOM     17  C19 UNL     1      75.452  65.223 111.652  0.00  0.00    +0.000 A 
ATOM     18  C20 UNL     1      75.815  64.344 112.685  0.00  0.00    +0.000 A 
ATOM     19  C21 UNL     1      75.097  64.377 113.895  0.00  0.00    +0.000 A 
ATOM     20  C22 UNL     1      74.060  65.296 114.075  0.00  0.00    +0.000 A 
ATOM     21  C23 UNL     1      73.721  66.183 113.053  0.00  0.00    +0.000 A 
BRANCH  18  22
ATOM     22  N5  UNL     1      76.871  63.394 112.462  0.00  0.00    +0.000 N 
ATOM     23  C24 UNL     1      76.741  62.215 111.654  0.00  0.00    +0.000 C 
ATOM     24  C25 UNL     1      77.952  61.405 111.322  0.00  0.00    +0.000 C 
ATOM     25  O4  UNL     1      75.606  61.805 111.292  0.00  0.00    +0.000 OA
ATOM     26  H17 UNL     1      77.769  63.527 112.984  0.00  0.00    +0.000 HD
ENDBRANCH  18  22
ENDBRANCH   7  16
BRANCH  10  27
ATOM     27  C6  UNL     1      75.290  70.349 109.551  0.00  0.00    +0.000 C 
ATOM     28  C7  UNL     1      76.815  70.304 109.623  0.00  0.00    +0.000 C 
ATOM     29  C8  UNL     1      76.135  70.620 108.308  0.00  0.00    +0.000 C 
ENDBRANCH  10  27
BRANCH  14  30
ATOM     30  N4  UNL     1      72.592  67.548 106.127  0.00  0.00    +0.000 N 
ATOM     31  H9  UNL     1      73.358  67.307 105.459  0.00  0.00    +0.000 HD
BRANCH  30  32
ATOM     32  C12 UNL     1      71.633  68.564 105.776  0.00  0.00    +0.000 A 
ATOM     33  C13 UNL     1      70.523  68.837 106.600  0.00  0.00    +0.000 A 
ATOM     34  C14 UNL     1      69.609  69.834 106.249  0.00  0.00    +0.000 A 
ATOM     35  C15 UNL     1      69.792  70.572 105.076  0.00  0.00    +0.000 A 
ATOM     36  I1  UNL     1      68.413  72.079 104.551  0.00  0.00    +0.000 I 
ATOM     37  C16 UNL     1      70.892  70.314 104.254  0.00  0.00    +0.000 A 
ATOM     38  C17 UNL     1      71.811  69.316 104.600  0.00  0.00    +0.000 A 
ATOM     39  F1  UNL     1      72.869  69.082 103.785  0.00  0.00    +0.000 F 
ENDBRANCH  30  32
ENDBRANCH  14  30
TORSDOF 5
ENDMDL
MODEL 11
REMARK VINA RESULT:      -7.2     13.232     16.439
REMARK  Name = ./S2673.pdb
REMARK  8 active torsions:
REMARK  status: ('A' for Active; 'I' for Inactive)
REMARK    1  A    between atoms: C1_1  and  N1_2
REMARK    2  A    between atoms: C3_5  and  C26_37
REMARK    3  A    between atoms: N2_7  and  C18_27
REMARK    4  A    between atoms: N3_10  and  C6_11
REMARK    5  A    between atoms: C11_17  and  N4_18
REMARK    6  A    between atoms: N4_18  and  C12_19
REMARK    7  A    between atoms: C20_29  and  N5_33
REMARK    8  A    between atoms: C24_34  and  C25_35
REMARK                            x       y       z     vdW  Elec       q    Type
REMARK                         _______ _______ _______ _____ _____    ______ ____
ROOT
ATOM      1  C1  UNL     1      78.573  66.833 106.704  0.00  0.00    +0.000 C 
ATOM      2  N1  UNL     1      77.404  66.048 107.145  0.00  0.00    +0.000 N 
ATOM      3  C2  UNL     1      76.627  66.519 108.167  0.00  0.00    +0.000 A 
ATOM      4  O1  UNL     1      76.933  67.604 108.740  0.00  0.00    +0.000 OA
ATOM      5  C3  UNL     1      75.493  65.806 108.601  0.00  0.00    +0.000 A 
ATOM      6  C4  UNL     1      75.080  64.649 107.875  0.00  0.00    +0.000 A 
ATOM      7  N2  UNL     1      73.856  64.035 108.064  0.00  0.00    +0.000 N 
ATOM      8  C5  UNL     1      73.610  62.795 107.531  0.00  0.00    +0.000 A 
ATOM      9  O2  UNL     1      72.523  62.203 107.794  0.00  0.00    +0.000 OA
ATOM     10  N3  UNL     1      74.517  62.194 106.703  0.00  0.00    +0.000 N 
ATOM     11  C9  UNL     1      75.708  62.806 106.427  0.00  0.00    +0.000 A 
ATOM     12  O3  UNL     1      76.559  62.203 105.717  0.00  0.00    +0.000 OA
ATOM     13  C10 UNL     1      75.994  64.087 106.952  0.00  0.00    +0.000 A 
ATOM     14  C11 UNL     1      77.164  64.812 106.600  0.00  0.00    +0.000 A 
ATOM     15  C26 UNL     1      74.837  66.238 109.898  0.00  0.00    +0.000 C 
ENDROOT
BRANCH   7  16
ATOM     16  C18 UNL     1      72.725  64.741 108.622  0.00  0.00    +0.000 A 
ATOM     17  C19 UNL     1      72.015  65.679 107.853  0.00  0.00    +0.000 A 
ATOM     18  C20 UNL     1      70.929  66.379 108.400  0.00  0.00    +0.000 A 
ATOM     19  C21 UNL     1      70.591  66.170 109.750  0.00  0.00    +0.000 A 
ATOM     20  C22 UNL     1      71.306  65.252 110.523  0.00  0.00    +0.000 A 
ATOM     21  C23 UNL     1      72.369  64.541 109.965  0.00  0.00    +0.000 A 
BRANCH  18  22
ATOM     22  N5  UNL     1      70.226  67.334 107.587  0.00  0.00    +0.000 N 
ATOM     23  C24 UNL     1      70.638  68.697 107.400  0.00  0.00    +0.000 C 
ATOM     24  C25 UNL     1      69.955  69.545 106.378  0.00  0.00    +0.000 C 
ATOM     25  O4  UNL     1      71.512  69.213 108.147  0.00  0.00    +0.000 OA
ATOM     26  H17 UNL     1      69.313  67.043 107.167  0.00  0.00    +0.000 HD
ENDBRANCH  18  22
ENDBRANCH   7  16
BRANCH  10  27
ATOM     27  C6  UNL     1      74.249  60.839 106.178  0.00  0.00    +0.000 C 
ATOM     28  C7  UNL     1      72.853  60.643 105.591  0.00  0.00    +0.000 C 
ATOM     29  C8  UNL     1      74.045  60.767 104.666  0.00  0.00    +0.000 C 
ENDBRANCH  10  27
BRANCH  14  30
ATOM     30  N4  UNL     1      78.086  64.279 105.633  0.00  0.00    +0.000 N 
ATOM     31  H9  UNL     1      77.860  64.427 104.624  0.00  0.00    +0.000 HD
BRANCH  30  32
ATOM     32  C12 UNL     1      79.273  63.550 105.999  0.00  0.00    +0.000 A 
ATOM     33  C13 UNL     1      79.741  63.537 107.329  0.00  0.00    +0.000 A 
ATOM     34  C14 UNL     1      80.888  62.816 107.668  0.00  0.00    +0.000 A 
ATOM     35  C15 UNL     1      81.581  62.098 106.689  0.00  0.00    +0.000 A 
ATOM     36  I1  UNL     1      83.311  61.007 107.204  0.00  0.00    +0.000 I 
ATOM     37  C16 UNL     1      81.124  62.100 105.368  0.00  0.00    +0.000 A 
ATOM     38  C17 UNL     1      79.975  62.821 105.022  0.00  0.00    +0.000 A 
ATOM     39  F1  UNL     1      79.552  62.810 103.734  0.00  0.00    +0.000 F 
ENDBRANCH  30  32
ENDBRANCH  14  30
TORSDOF 5
ENDMDL
MODEL 12
REMARK VINA RESULT:      -7.2     11.207     15.078
REMARK  Name = ./S2673.pdb
REMARK  8 active torsions:
REMARK  status: ('A' for Active; 'I' for Inactive)
REMARK    1  A    between atoms: C1_1  and  N1_2
REMARK    2  A    between atoms: C3_5  and  C26_37
REMARK    3  A    between atoms: N2_7  and  C18_27
REMARK    4  A    between atoms: N3_10  and  C6_11
REMARK    5  A    between atoms: C11_17  and  N4_18
REMARK    6  A    between atoms: N4_18  and  C12_19
REMARK    7  A    between atoms: C20_29  and  N5_33
REMARK    8  A    between atoms: C24_34  and  C25_35
REMARK                            x       y       z     vdW  Elec       q    Type
REMARK                         _______ _______ _______ _____ _____    ______ ____
ROOT
ATOM      1  C1  UNL     1      72.160  58.938 105.536  0.00  0.00    +0.000 C 
ATOM      2  N1  UNL     1      72.424  60.360 105.827  0.00  0.00    +0.000 N 
ATOM      3  C2  UNL     1      71.370  61.217 105.992  0.00  0.00    +0.000 A 
ATOM      4  O1  UNL     1      70.187  60.790 105.865  0.00  0.00    +0.000 OA
ATOM      5  C3  UNL     1      71.584  62.576 106.290  0.00  0.00    +0.000 A 
ATOM      6  C4  UNL     1      72.912  63.030 106.552  0.00  0.00    +0.000 A 
ATOM      7  N2  UNL     1      73.194  64.270 107.093  0.00  0.00    +0.000 N 
ATOM      8  C5  UNL     1      74.478  64.754 107.094  0.00  0.00    +0.000 A 
ATOM      9  O2  UNL     1      74.706  65.930 107.502  0.00  0.00    +0.000 OA
ATOM     10  N3  UNL     1      75.521  63.976 106.674  0.00  0.00    +0.000 N 
ATOM     11  C9  UNL     1      75.292  62.712 106.206  0.00  0.00    +0.000 A 
ATOM     12  O3  UNL     1      76.261  62.037 105.758  0.00  0.00    +0.000 OA
ATOM     13  C10 UNL     1      73.984  62.177 106.197  0.00  0.00    +0.000 A 
ATOM     14  C11 UNL     1      73.712  60.831 105.831  0.00  0.00    +0.000 A 
ATOM     15  C26 UNL     1      70.400  63.518 106.194  0.00  0.00    +0.000 C 
ENDROOT
BRANCH   7  16
ATOM     16  C18 UNL     1      72.221  65.004 107.870  0.00  0.00    +0.000 A 
ATOM     17  C19 UNL     1      71.545  66.105 107.316  0.00  0.00    +0.000 A 
ATOM     18  C20 UNL     1      70.614  66.830 108.077  0.00  0.00    +0.000 A 
ATOM     19  C21 UNL     1      70.403  66.474 109.421  0.00  0.00    +0.000 A 
ATOM     20  C22 UNL     1      71.087  65.391 109.980  0.00  0.00    +0.000 A 
ATOM     21  C23 UNL     1      71.993  64.659 109.211  0.00  0.00    +0.000 A 
BRANCH  18  22
ATOM     22  N5  UNL     1      69.942  67.954 107.482  0.00  0.00    +0.000 N 
ATOM     23  C24 UNL     1      70.514  69.265 107.356  0.00  0.00    +0.000 C 
ATOM     24  C25 UNL     1      69.816  70.305 106.543  0.00  0.00    +0.000 C 
ATOM     25  O4  UNL     1      71.555  69.576 107.995  0.00  0.00    +0.000 OA
ATOM     26  H17 UNL     1      68.944  67.831 107.191  0.00  0.00    +0.000 HD
ENDBRANCH  18  22
ENDBRANCH   7  16
BRANCH  10  27
ATOM     27  C6  UNL     1      76.889  64.535 106.641  0.00  0.00    +0.000 C 
ATOM     28  C7  UNL     1      77.323  65.245 107.921  0.00  0.00    +0.000 C 
ATOM     29  C8  UNL     1      77.875  63.872 107.600  0.00  0.00    +0.000 C 
ENDBRANCH  10  27
BRANCH  14  30
ATOM     30  N4  UNL     1      74.790  59.935 105.507  0.00  0.00    +0.000 N 
ATOM     31  H9  UNL     1      75.366  59.572 106.299  0.00  0.00    +0.000 HD
BRANCH  30  32
ATOM     32  C12 UNL     1      75.104  59.543 104.157  0.00  0.00    +0.000 A 
ATOM     33  C13 UNL     1      74.647  60.292 103.053  0.00  0.00    +0.000 A 
ATOM     34  C14 UNL     1      74.971  59.902 101.752  0.00  0.00    +0.000 A 
ATOM     35  C15 UNL     1      75.756  58.766 101.533  0.00  0.00    +0.000 A 
ATOM     36  I1  UNL     1      76.246  58.183  99.566  0.00  0.00    +0.000 I 
ATOM     37  C16 UNL     1      76.218  58.019 102.620  0.00  0.00    +0.000 A 
ATOM     38  C17 UNL     1      75.897  58.404 103.927  0.00  0.00    +0.000 A 
ATOM     39  F1  UNL     1      76.356  57.662 104.965  0.00  0.00    +0.000 F 
ENDBRANCH  30  32
ENDBRANCH  14  30
TORSDOF 5
ENDMDL
MODEL 13
REMARK VINA RESULT:      -7.2     13.388     16.411
REMARK  Name = ./S2673.pdb
REMARK  8 active torsions:
REMARK  status: ('A' for Active; 'I' for Inactive)
REMARK    1  A    between atoms: C1_1  and  N1_2
REMARK    2  A    between atoms: C3_5  and  C26_37
REMARK    3  A    between atoms: N2_7  and  C18_27
REMARK    4  A    between atoms: N3_10  and  C6_11
REMARK    5  A    between atoms: C11_17  and  N4_18
REMARK    6  A    between atoms: N4_18  and  C12_19
REMARK    7  A    between atoms: C20_29  and  N5_33
REMARK    8  A    between atoms: C24_34  and  C25_35
REMARK                            x       y       z     vdW  Elec       q    Type
REMARK                         _______ _______ _______ _____ _____    ______ ____
ROOT
ATOM      1  C1  UNL     1      71.707  65.013 111.157  0.00  0.00    +0.000 C 
ATOM      2  N1  UNL     1      72.111  66.029 110.166  0.00  0.00    +0.000 N 
ATOM      3  C2  UNL     1      71.511  66.042 108.937  0.00  0.00    +0.000 A 
ATOM      4  O1  UNL     1      70.641  65.170 108.653  0.00  0.00    +0.000 OA
ATOM      5  C3  UNL     1      71.858  67.009 107.974  0.00  0.00    +0.000 A 
ATOM      6  C4  UNL     1      72.749  68.063 108.337  0.00  0.00    +0.000 A 
ATOM      7  N2  UNL     1      72.951  69.185 107.555  0.00  0.00    +0.000 N 
ATOM      8  C5  UNL     1      73.991  70.040 107.820  0.00  0.00    +0.000 A 
ATOM      9  O2  UNL     1      74.223  71.007 107.038  0.00  0.00    +0.000 OA
ATOM     10  N3  UNL     1      74.773  69.871 108.929  0.00  0.00    +0.000 N 
ATOM     11  C9  UNL     1      74.553  68.818 109.772  0.00  0.00    +0.000 A 
ATOM     12  O3  UNL     1      75.331  68.642 110.751  0.00  0.00    +0.000 OA
ATOM     13  C10 UNL     1      73.487  67.921 109.536  0.00  0.00    +0.000 A 
ATOM     14  C11 UNL     1      73.148  66.883 110.445  0.00  0.00    +0.000 A 
ATOM     15  C26 UNL     1      71.360  66.807 106.556  0.00  0.00    +0.000 C 
ENDROOT
BRANCH   7  16
ATOM     16  C18 UNL     1      71.973  69.628 106.587  0.00  0.00    +0.000 A 
ATOM     17  C19 UNL     1      70.717  70.101 107.002  0.00  0.00    +0.000 A 
ATOM     18  C20 UNL     1      69.760  70.512 106.062  0.00  0.00    +0.000 A 
ATOM     19  C21 UNL     1      70.053  70.396 104.691  0.00  0.00    +0.000 A 
ATOM     20  C22 UNL     1      71.295  69.909 104.274  0.00  0.00    +0.000 A 
ATOM     21  C23 UNL     1      72.251  69.524 105.215  0.00  0.00    +0.000 A 
BRANCH  18  22
ATOM     22  N5  UNL     1      68.482  70.988 106.520  0.00  0.00    +0.000 N 
ATOM     23  C24 UNL     1      68.174  72.369 106.765  0.00  0.00    +0.000 C 
ATOM     24  C25 UNL     1      66.763  72.776 107.041  0.00  0.00    +0.000 C 
ATOM     25  O4  UNL     1      69.091  73.230 106.835  0.00  0.00    +0.000 OA
ATOM     26  H17 UNL     1      67.754  70.278 106.766  0.00  0.00    +0.000 HD
ENDBRANCH  18  22
ENDBRANCH   7  16
BRANCH  10  27
ATOM     27  C6  UNL     1      75.915  70.779 109.168  0.00  0.00    +0.000 C 
ATOM     28  C7  UNL     1      77.237  70.080 109.473  0.00  0.00    +0.000 C 
ATOM     29  C8  UNL     1      77.018  70.712 108.115  0.00  0.00    +0.000 C 
ENDBRANCH  10  27
BRANCH  14  30
ATOM     30  N4  UNL     1      73.858  66.745 111.688  0.00  0.00    +0.000 N 
ATOM     31  H9  UNL     1      73.759  67.518 112.384  0.00  0.00    +0.000 HD
BRANCH  30  32
ATOM     32  C12 UNL     1      74.693  65.613 111.993  0.00  0.00    +0.000 A 
ATOM     33  C13 UNL     1      75.505  65.017 111.007  0.00  0.00    +0.000 A 
ATOM     34  C14 UNL     1      76.318  63.925 111.324  0.00  0.00    +0.000 A 
ATOM     35  C15 UNL     1      76.334  63.417 112.626  0.00  0.00    +0.000 A 
ATOM     36  I1  UNL     1      77.564  61.771 113.102  0.00  0.00    +0.000 I 
ATOM     37  C16 UNL     1      75.536  64.002 113.613  0.00  0.00    +0.000 A 
ATOM     38  C17 UNL     1      74.720  65.096 113.301  0.00  0.00    +0.000 A 
ATOM     39  F1  UNL     1      73.954  65.646 114.276  0.00  0.00    +0.000 F 
ENDBRANCH  30  32
ENDBRANCH  14  30
TORSDOF 5
ENDMDL
MODEL 14
REMARK VINA RESULT:      -7.2     11.013     14.568
REMARK  Name = ./S2673.pdb
REMARK  8 active torsions:
REMARK  status: ('A' for Active; 'I' for Inactive)
REMARK    1  A    between atoms: C1_1  and  N1_2
REMARK    2  A    between atoms: C3_5  and  C26_37
REMARK    3  A    between atoms: N2_7  and  C18_27
REMARK    4  A    between atoms: N3_10  and  C6_11
REMARK    5  A    between atoms: C11_17  and  N4_18
REMARK    6  A    between atoms: N4_18  and  C12_19
REMARK    7  A    between atoms: C20_29  and  N5_33
REMARK    8  A    between atoms: C24_34  and  C25_35
REMARK                            x       y       z     vdW  Elec       q    Type
REMARK                         _______ _______ _______ _____ _____    ______ ____
ROOT
ATOM      1  C1  UNL     1      71.194  60.264 105.767  0.00  0.00    +0.000 C 
ATOM      2  N1  UNL     1      71.783  61.463 106.394  0.00  0.00    +0.000 N 
ATOM      3  C2  UNL     1      71.397  62.703 105.964  0.00  0.00    +0.000 A 
ATOM      4  O1  UNL     1      70.565  62.808 105.018  0.00  0.00    +0.000 OA
ATOM      5  C3  UNL     1      71.923  63.868 106.552  0.00  0.00    +0.000 A 
ATOM      6  C4  UNL     1      72.767  63.748 107.697  0.00  0.00    +0.000 A 
ATOM      7  N2  UNL     1      73.125  64.824 108.489  0.00  0.00    +0.000 N 
ATOM      8  C5  UNL     1      74.126  64.702 109.418  0.00  0.00    +0.000 A 
ATOM      9  O2  UNL     1      74.509  65.719 110.065  0.00  0.00    +0.000 OA
ATOM     10  N3  UNL     1      74.708  63.490 109.668  0.00  0.00    +0.000 N 
ATOM     11  C9  UNL     1      74.325  62.384 108.961  0.00  0.00    +0.000 A 
ATOM     12  O3  UNL     1      74.924  61.290 109.159  0.00  0.00    +0.000 OA
ATOM     13  C10 UNL     1      73.291  62.470 108.001  0.00  0.00    +0.000 A 
ATOM     14  C11 UNL     1      72.780  61.328 107.327  0.00  0.00    +0.000 A 
ATOM     15  C26 UNL     1      71.664  65.192 105.859  0.00  0.00    +0.000 C 
ENDROOT
BRANCH   7  16
ATOM     16  C18 UNL     1      72.333  66.033 108.538  0.00  0.00    +0.000 A 
ATOM     17  C19 UNL     1      72.770  67.203 107.894  0.00  0.00    +0.000 A 
ATOM     18  C20 UNL     1      72.011  68.381 107.959  0.00  0.00    +0.000 A 
ATOM     19  C21 UNL     1      70.829  68.394 108.723  0.00  0.00    +0.000 A 
ATOM     20  C22 UNL     1      70.402  67.237 109.380  0.00  0.00    +0.000 A 
ATOM     21  C23 UNL     1      71.149  66.062 109.291  0.00  0.00    +0.000 A 
BRANCH  18  22
ATOM     22  N5  UNL     1      72.488  69.563 107.291  0.00  0.00    +0.000 N 
ATOM     23  C24 UNL     1      72.075  69.972 105.979  0.00  0.00    +0.000 C 
ATOM     24  C25 UNL     1      72.472  71.316 105.461  0.00  0.00    +0.000 C 
ATOM     25  O4  UNL     1      71.455  69.178 105.222  0.00  0.00    +0.000 OA
ATOM     26  H17 UNL     1      73.241  70.119 107.757  0.00  0.00    +0.000 HD
ENDBRANCH  18  22
ENDBRANCH   7  16
BRANCH  10  27
ATOM     27  C6  UNL     1      75.816  63.392 110.641  0.00  0.00    +0.000 C 
ATOM     28  C7  UNL     1      75.575  64.116 111.963  0.00  0.00    +0.000 C 
ATOM     29  C8  UNL     1      75.489  62.606 111.908  0.00  0.00    +0.000 C 
ENDBRANCH  10  27
BRANCH  14  30
ATOM     30  N4  UNL     1      73.269  60.014 107.649  0.00  0.00    +0.000 N 
ATOM     31  H9  UNL     1      72.975  59.605 108.564  0.00  0.00    +0.000 HD
BRANCH  30  32
ATOM     32  C12 UNL     1      74.142  59.268 106.781  0.00  0.00    +0.000 A 
ATOM     33  C13 UNL     1      75.251  59.877 106.160  0.00  0.00    +0.000 A 
ATOM     34  C14 UNL     1      76.093  59.134 105.329  0.00  0.00    +0.000 A 
ATOM     35  C15 UNL     1      75.843  57.776 105.109  0.00  0.00    +0.000 A 
ATOM     36  I1  UNL     1      77.118  56.657 103.857  0.00  0.00    +0.000 I 
ATOM     37  C16 UNL     1      74.749  57.161 105.722  0.00  0.00    +0.000 A 
ATOM     38  C17 UNL     1      73.901  57.900 106.556  0.00  0.00    +0.000 A 
ATOM     39  F1  UNL     1      72.845  57.281 107.139  0.00  0.00    +0.000 F 
ENDBRANCH  30  32
ENDBRANCH  14  30
TORSDOF 5
ENDMDL
MODEL 15
REMARK VINA RESULT:      -7.2     12.330     15.787
REMARK  Name = ./S2673.pdb
REMARK  8 active torsions:
REMARK  status: ('A' for Active; 'I' for Inactive)
REMARK    1  A    between atoms: C1_1  and  N1_2
REMARK    2  A    between atoms: C3_5  and  C26_37
REMARK    3  A    between atoms: N2_7  and  C18_27
REMARK    4  A    between atoms: N3_10  and  C6_11
REMARK    5  A    between atoms: C11_17  and  N4_18
REMARK    6  A    between atoms: N4_18  and  C12_19
REMARK    7  A    between atoms: C20_29  and  N5_33
REMARK    8  A    between atoms: C24_34  and  C25_35
REMARK                            x       y       z     vdW  Elec       q    Type
REMARK                         _______ _______ _______ _____ _____    ______ ____
ROOT
ATOM      1  C1  UNL     1      73.894  70.785 107.399  0.00  0.00    +0.000 C 
ATOM      2  N1  UNL     1      73.847  69.420 107.958  0.00  0.00    +0.000 N 
ATOM      3  C2  UNL     1      74.613  69.116 109.051  0.00  0.00    +0.000 A 
ATOM      4  O1  UNL     1      75.371  69.995 109.550  0.00  0.00    +0.000 OA
ATOM      5  C3  UNL     1      74.578  67.829 109.621  0.00  0.00    +0.000 A 
ATOM      6  C4  UNL     1      73.634  66.877 109.132  0.00  0.00    +0.000 A 
ATOM      7  N2  UNL     1      73.351  65.690 109.783  0.00  0.00    +0.000 N 
ATOM      8  C5  UNL     1      72.632  64.706 109.154  0.00  0.00    +0.000 A 
ATOM      9  O2  UNL     1      72.466  63.588 109.724  0.00  0.00    +0.000 OA
ATOM     10  N3  UNL     1      72.077  64.920 107.922  0.00  0.00    +0.000 N 
ATOM     11  C9  UNL     1      72.267  66.112 107.280  0.00  0.00    +0.000 A 
ATOM     12  O3  UNL     1      71.805  66.262 106.115  0.00  0.00    +0.000 OA
ATOM     13  C10 UNL     1      72.996  67.152 107.900  0.00  0.00    +0.000 A 
ATOM     14  C11 UNL     1      73.120  68.445 107.323  0.00  0.00    +0.000 A 
ATOM     15  C26 UNL     1      75.636  67.481 110.650  0.00  0.00    +0.000 C 
ENDROOT
BRANCH   7  16
ATOM     16  C18 UNL     1      73.593  65.518 111.198  0.00  0.00    +0.000 A 
ATOM     17  C19 UNL     1      74.586  64.635 111.653  0.00  0.00    +0.000 A 
ATOM     18  C20 UNL     1      74.807  64.453 113.027  0.00  0.00    +0.000 A 
ATOM     19  C21 UNL     1      73.985  65.127 113.948  0.00  0.00    +0.000 A 
ATOM     20  C22 UNL     1      72.984  65.993 113.498  0.00  0.00    +0.000 A 
ATOM     21  C23 UNL     1      72.786  66.188 112.131  0.00  0.00    +0.000 A 
BRANCH  18  22
ATOM     22  N5  UNL     1      75.829  63.538 113.460  0.00  0.00    +0.000 N 
ATOM     23  C24 UNL     1      75.707  62.108 113.416  0.00  0.00    +0.000 C 
ATOM     24  C25 UNL     1      76.899  61.252 113.696  0.00  0.00    +0.000 C 
ATOM     25  O4  UNL     1      74.586  61.564 113.228  0.00  0.00    +0.000 OA
ATOM     26  H17 UNL     1      76.687  63.937 113.909  0.00  0.00    +0.000 HD
ENDBRANCH  18  22
ENDBRANCH   7  16
BRANCH  10  27
ATOM     27  C6  UNL     1      71.346  63.828 107.245  0.00  0.00    +0.000 C 
ATOM     28  C7  UNL     1      71.763  63.578 105.798  0.00  0.00    +0.000 C 
ATOM     29  C8  UNL     1      72.198  62.615 106.882  0.00  0.00    +0.000 C 
ENDBRANCH  10  27
BRANCH  14  30
ATOM     30  N4  UNL     1      72.446  68.760 106.092  0.00  0.00    +0.000 N 
ATOM     31  H9  UNL     1      72.754  68.250 105.234  0.00  0.00    +0.000 HD
BRANCH  30  32
ATOM     32  C12 UNL     1      71.396  69.742 106.002  0.00  0.00    +0.000 A 
ATOM     33  C13 UNL     1      71.522  70.871 105.168  0.00  0.00    +0.000 A 
ATOM     34  C14 UNL     1      70.489  71.808 105.086  0.00  0.00    +0.000 A 
ATOM     35  C15 UNL     1      69.318  71.629 105.829  0.00  0.00    +0.000 A 
ATOM     36  I1  UNL     1      67.759  73.044 105.698  0.00  0.00    +0.000 I 
ATOM     37  C16 UNL     1      69.181  70.511 106.655  0.00  0.00    +0.000 A 
ATOM     38  C17 UNL     1      70.212  69.569 106.742  0.00  0.00    +0.000 A 
ATOM     39  F1  UNL     1      70.056  68.493 107.553  0.00  0.00    +0.000 F 
ENDBRANCH  30  32
ENDBRANCH  14  30
TORSDOF 5
ENDMDL
MODEL 16
REMARK VINA RESULT:      -7.2     15.275     18.227
REMARK  Name = ./S2673.pdb
REMARK  8 active torsions:
REMARK  status: ('A' for Active; 'I' for Inactive)
REMARK    1  A    between atoms: C1_1  and  N1_2
REMARK    2  A    between atoms: C3_5  and  C26_37
REMARK    3  A    between atoms: N2_7  and  C18_27
REMARK    4  A    between atoms: N3_10  and  C6_11
REMARK    5  A    between atoms: C11_17  and  N4_18
REMARK    6  A    between atoms: N4_18  and  C12_19
REMARK    7  A    between atoms: C20_29  and  N5_33
REMARK    8  A    between atoms: C24_34  and  C25_35
REMARK                            x       y       z     vdW  Elec       q    Type
REMARK                         _______ _______ _______ _____ _____    ______ ____
ROOT
ATOM      1  C1  UNL     1      76.571  63.936 109.434  0.00  0.00    +0.000 C 
ATOM      2  N1  UNL     1      76.537  63.308 110.769  0.00  0.00    +0.000 N 
ATOM      3  C2  UNL     1      77.552  62.469 111.142  0.00  0.00    +0.000 A 
ATOM      4  O1  UNL     1      78.489  62.219 110.332  0.00  0.00    +0.000 OA
ATOM      5  C3  UNL     1      77.561  61.869 112.415  0.00  0.00    +0.000 A 
ATOM      6  C4  UNL     1      76.569  62.246 113.370  0.00  0.00    +0.000 A 
ATOM      7  N2  UNL     1      76.642  61.908 114.709  0.00  0.00    +0.000 N 
ATOM      8  C5  UNL     1      75.554  62.076 115.528  0.00  0.00    +0.000 A 
ATOM      9  O2  UNL     1      75.603  61.672 116.726  0.00  0.00    +0.000 OA
ATOM     10  N3  UNL     1      74.420  62.689 115.073  0.00  0.00    +0.000 N 
ATOM     11  C9  UNL     1      74.339  63.110 113.775  0.00  0.00    +0.000 A 
ATOM     12  O3  UNL     1      73.258  63.611 113.357  0.00  0.00    +0.000 OA
ATOM     13  C10 UNL     1      75.442  62.962 112.903  0.00  0.00    +0.000 A 
ATOM     14  C11 UNL     1      75.447  63.488 111.583  0.00  0.00    +0.000 A 
ATOM     15  C26 UNL     1      78.557  60.753 112.665  0.00  0.00    +0.000 C 
ENDROOT
BRANCH   7  16
ATOM     16  C18 UNL     1      77.897  61.586 115.349  0.00  0.00    +0.000 A 
ATOM     17  C19 UNL     1      78.230  60.253 115.643  0.00  0.00    +0.000 A 
ATOM     18  C20 UNL     1      79.440  59.941 116.282  0.00  0.00    +0.000 A 
ATOM     19  C21 UNL     1      80.296  60.987 116.675  0.00  0.00    +0.000 A 
ATOM     20  C22 UNL     1      79.959  62.315 116.399  0.00  0.00    +0.000 A 
ATOM     21  C23 UNL     1      78.765  62.616 115.742  0.00  0.00    +0.000 A 
BRANCH  18  22
ATOM     22  N5  UNL     1      79.749  58.567 116.573  0.00  0.00    +0.000 N 
ATOM     23  C24 UNL     1      81.017  57.949 116.305  0.00  0.00    +0.000 C 
ATOM     24  C25 UNL     1      81.301  56.580 116.829  0.00  0.00    +0.000 C 
ATOM     25  O4  UNL     1      81.862  58.512 115.559  0.00  0.00    +0.000 OA
ATOM     26  H17 UNL     1      78.978  57.956 116.930  0.00  0.00    +0.000 HD
ENDBRANCH  18  22
ENDBRANCH   7  16
BRANCH  10  27
ATOM     27  C6  UNL     1      73.246  62.817 115.961  0.00  0.00    +0.000 C 
ATOM     28  C7  UNL     1      73.565  63.261 117.387  0.00  0.00    +0.000 C 
ATOM     29  C8  UNL     1      72.940  64.242 116.418  0.00  0.00    +0.000 C 
ENDBRANCH  10  27
BRANCH  14  30
ATOM     30  N4  UNL     1      74.329  64.254 111.102  0.00  0.00    +0.000 N 
ATOM     31  H9  UNL     1      73.410  63.763 111.022  0.00  0.00    +0.000 HD
BRANCH  30  32
ATOM     32  C12 UNL     1      74.434  65.638 110.718  0.00  0.00    +0.000 A 
ATOM     33  C13 UNL     1      73.967  66.087 109.466  0.00  0.00    +0.000 A 
ATOM     34  C14 UNL     1      74.068  67.436 109.116  0.00  0.00    +0.000 A 
ATOM     35  C15 UNL     1      74.632  68.353 110.008  0.00  0.00    +0.000 A 
ATOM     36  I1  UNL     1      74.779  70.389 109.477  0.00  0.00    +0.000 I 
ATOM     37  C16 UNL     1      75.095  67.920 111.253  0.00  0.00    +0.000 A 
ATOM     38  C17 UNL     1      74.996  66.570 111.610  0.00  0.00    +0.000 A 
ATOM     39  F1  UNL     1      75.454  66.173 112.824  0.00  0.00    +0.000 F 
ENDBRANCH  30  32
ENDBRANCH  14  30
TORSDOF 5
ENDMDL
MODEL 17
REMARK VINA RESULT:      -7.2     14.301     16.522
REMARK  Name = ./S2673.pdb
REMARK  8 active torsions:
REMARK  status: ('A' for Active; 'I' for Inactive)
REMARK    1  A    between atoms: C1_1  and  N1_2
REMARK    2  A    between atoms: C3_5  and  C26_37
REMARK    3  A    between atoms: N2_7  and  C18_27
REMARK    4  A    between atoms: N3_10  and  C6_11
REMARK    5  A    between atoms: C11_17  and  N4_18
REMARK    6  A    between atoms: N4_18  and  C12_19
REMARK    7  A    between atoms: C20_29  and  N5_33
REMARK    8  A    between atoms: C24_34  and  C25_35
REMARK                            x       y       z     vdW  Elec       q    Type
REMARK                         _______ _______ _______ _____ _____    ______ ____
ROOT
ATOM      1  C1  UNL     1      74.442  60.342 114.146  0.00  0.00    +0.000 C 
ATOM      2  N1  UNL     1      74.568  61.811 114.083  0.00  0.00    +0.000 N 
ATOM      3  C2  UNL     1      75.014  62.397 112.931  0.00  0.00    +0.000 A 
ATOM      4  O1  UNL     1      75.341  61.676 111.945  0.00  0.00    +0.000 OA
ATOM      5  C3  UNL     1      75.128  63.797 112.829  0.00  0.00    +0.000 A 
ATOM      6  C4  UNL     1      74.646  64.613 113.896  0.00  0.00    +0.000 A 
ATOM      7  N2  UNL     1      74.482  65.982 113.786  0.00  0.00    +0.000 N 
ATOM      8  C5  UNL     1      74.257  66.747 114.903  0.00  0.00    +0.000 A 
ATOM      9  O2  UNL     1      74.208  68.007 114.800  0.00  0.00    +0.000 OA
ATOM     10  N3  UNL     1      74.069  66.166 116.126  0.00  0.00    +0.000 N 
ATOM     11  C9  UNL     1      74.143  64.807 116.261  0.00  0.00    +0.000 A 
ATOM     12  O3  UNL     1      74.035  64.297 117.411  0.00  0.00    +0.000 OA
ATOM     13  C10 UNL     1      74.366  63.986 115.133  0.00  0.00    +0.000 A 
ATOM     14  C11 UNL     1      74.334  62.567 115.204  0.00  0.00    +0.000 A 
ATOM     15  C26 UNL     1      75.875  64.363 111.637  0.00  0.00    +0.000 C 
ENDROOT
BRANCH   7  16
ATOM     16  C18 UNL     1      74.316  66.631 112.506  0.00  0.00    +0.000 A 
ATOM     17  C19 UNL     1      75.250  67.580 112.057  0.00  0.00    +0.000 A 
ATOM     18  C20 UNL     1      75.079  68.225 110.822  0.00  0.00    +0.000 A 
ATOM     19  C21 UNL     1      73.928  67.950 110.060  0.00  0.00    +0.000 A 
ATOM     20  C22 UNL     1      72.988  67.021 110.513  0.00  0.00    +0.000 A 
ATOM     21  C23 UNL     1      73.178  66.364 111.730  0.00  0.00    +0.000 A 
BRANCH  18  22
ATOM     22  N5  UNL     1      76.052  69.193 110.393  0.00  0.00    +0.000 N 
ATOM     23  C24 UNL     1      76.967  68.993 109.306  0.00  0.00    +0.000 C 
ATOM     24  C25 UNL     1      77.795  70.135 108.812  0.00  0.00    +0.000 C 
ATOM     25  O4  UNL     1      77.146  67.845 108.819  0.00  0.00    +0.000 OA
ATOM     26  H17 UNL     1      76.154  70.069 110.957  0.00  0.00    +0.000 HD
ENDBRANCH  18  22
ENDBRANCH   7  16
BRANCH  10  27
ATOM     27  C6  UNL     1      73.874  67.014 117.321  0.00  0.00    +0.000 C 
ATOM     28  C7  UNL     1      72.829  68.116 117.162  0.00  0.00    +0.000 C 
ATOM     29  C8  UNL     1      72.503  66.884 117.981  0.00  0.00    +0.000 C 
ENDBRANCH  10  27
BRANCH  14  30
ATOM     30  N4  UNL     1      74.011  61.908 116.442  0.00  0.00    +0.000 N 
ATOM     31  H9  UNL     1      74.766  61.843 117.161  0.00  0.00    +0.000 HD
BRANCH  30  32
ATOM     32  C12 UNL     1      72.718  61.335 116.710  0.00  0.00    +0.000 A 
ATOM     33  C13 UNL     1      71.565  61.783 116.034  0.00  0.00    +0.000 A 
ATOM     34  C14 UNL     1      70.320  61.206 116.300  0.00  0.00    +0.000 A 
ATOM     35  C15 UNL     1      70.210  60.177 117.239  0.00  0.00    +0.000 A 
ATOM     36  I1  UNL     1      68.329  59.307 117.636  0.00  0.00    +0.000 I 
ATOM     37  C16 UNL     1      71.346  59.722 117.912  0.00  0.00    +0.000 A 
ATOM     38  C17 UNL     1      72.596  60.295 117.650  0.00  0.00    +0.000 A 
ATOM     39  F1  UNL     1      73.685  59.838 118.317  0.00  0.00    +0.000 F 
ENDBRANCH  30  32
ENDBRANCH  14  30
TORSDOF 5
ENDMDL
MODEL 18
REMARK VINA RESULT:      -7.1     11.110     13.379
REMARK  Name = ./S2673.pdb
REMARK  8 active torsions:
REMARK  status: ('A' for Active; 'I' for Inactive)
REMARK    1  A    between atoms: C1_1  and  N1_2
REMARK    2  A    between atoms: C3_5  and  C26_37
REMARK    3  A    between atoms: N2_7  and  C18_27
REMARK    4  A    between atoms: N3_10  and  C6_11
REMARK    5  A    between atoms: C11_17  and  N4_18
REMARK    6  A    between atoms: N4_18  and  C12_19
REMARK    7  A    between atoms: C20_29  and  N5_33
REMARK    8  A    between atoms: C24_34  and  C25_35
REMARK                            x       y       z     vdW  Elec       q    Type
REMARK                         _______ _______ _______ _____ _____    ______ ____
ROOT
ATOM      1  C1  UNL     1      76.561  63.869 111.882  0.00  0.00    +0.000 C 
ATOM      2  N1  UNL     1      75.625  63.829 110.742  0.00  0.00    +0.000 N 
ATOM      3  C2  UNL     1      75.904  63.019 109.674  0.00  0.00    +0.000 A 
ATOM      4  O1  UNL     1      76.970  62.338 109.664  0.00  0.00    +0.000 OA
ATOM      5  C3  UNL     1      75.025  62.941 108.578  0.00  0.00    +0.000 A 
ATOM      6  C4  UNL     1      73.768  63.614 108.645  0.00  0.00    +0.000 A 
ATOM      7  N2  UNL     1      72.745  63.395 107.741  0.00  0.00    +0.000 N 
ATOM      8  C5  UNL     1      71.663  64.238 107.699  0.00  0.00    +0.000 A 
ATOM      9  O2  UNL     1      70.783  64.085 106.803  0.00  0.00    +0.000 OA
ATOM     10  N3  UNL     1      71.512  65.235 108.623  0.00  0.00    +0.000 N 
ATOM     11  C9  UNL     1      72.465  65.432 109.583  0.00  0.00    +0.000 A 
ATOM     12  O3  UNL     1      72.340  66.401 110.383  0.00  0.00    +0.000 OA
ATOM     13  C10 UNL     1      73.589  64.579 109.663  0.00  0.00    +0.000 A 
ATOM     14  C11 UNL     1      74.544  64.672 110.713  0.00  0.00    +0.000 A 
ATOM     15  C26 UNL     1      75.515  62.242 107.325  0.00  0.00    +0.000 C 
ENDROOT
BRANCH   7  16
ATOM     16  C18 UNL     1      72.651  62.175 106.973  0.00  0.00    +0.000 A 
ATOM     17  C19 UNL     1      72.723  62.204 105.570  0.00  0.00    +0.000 A 
ATOM     18  C20 UNL     1      72.612  61.022 104.822  0.00  0.00    +0.000 A 
ATOM     19  C21 UNL     1      72.375  59.808 105.493  0.00  0.00    +0.000 A 
ATOM     20  C22 UNL     1      72.286  59.778 106.887  0.00  0.00    +0.000 A 
ATOM     21  C23 UNL     1      72.421  60.954 107.625  0.00  0.00    +0.000 A 
BRANCH  18  22
ATOM     22  N5  UNL     1      72.686  61.087 103.387  0.00  0.00    +0.000 N 
ATOM     23  C24 UNL     1      71.553  61.284 102.527  0.00  0.00    +0.000 C 
ATOM     24  C25 UNL     1      71.763  61.540 101.071  0.00  0.00    +0.000 C 
ATOM     25  O4  UNL     1      70.380  61.157 102.970  0.00  0.00    +0.000 OA
ATOM     26  H17 UNL     1      73.611  60.902 102.934  0.00  0.00    +0.000 HD
ENDBRANCH  18  22
ENDBRANCH   7  16
BRANCH  10  27
ATOM     27  C6  UNL     1      70.362  66.158 108.528  0.00  0.00    +0.000 C 
ATOM     28  C7  UNL     1      70.662  67.601 108.927  0.00  0.00    +0.000 C 
ATOM     29  C8  UNL     1      70.498  67.245 107.465  0.00  0.00    +0.000 C 
ENDBRANCH  10  27
BRANCH  14  30
ATOM     30  N4  UNL     1      74.360  65.618 111.780  0.00  0.00    +0.000 N 
ATOM     31  H9  UNL     1      74.506  66.628 111.556  0.00  0.00    +0.000 HD
BRANCH  30  32
ATOM     32  C12 UNL     1      74.007  65.228 113.121  0.00  0.00    +0.000 A 
ATOM     33  C13 UNL     1      73.135  64.147 113.362  0.00  0.00    +0.000 A 
ATOM     34  C14 UNL     1      72.812  63.777 114.670  0.00  0.00    +0.000 A 
ATOM     35  C15 UNL     1      73.355  64.476 115.752  0.00  0.00    +0.000 A 
ATOM     36  I1  UNL     1      72.868  63.912 117.725  0.00  0.00    +0.000 I 
ATOM     37  C16 UNL     1      74.224  65.547 115.525  0.00  0.00    +0.000 A 
ATOM     38  C17 UNL     1      74.551  65.922 114.217  0.00  0.00    +0.000 A 
ATOM     39  F1  UNL     1      75.396  66.965 114.022  0.00  0.00    +0.000 F 
ENDBRANCH  30  32
ENDBRANCH  14  30
TORSDOF 5
ENDMDL
MODEL 19
REMARK VINA RESULT:      -7.1     13.648     16.505
REMARK  Name = ./S2673.pdb
REMARK  8 active torsions:
REMARK  status: ('A' for Active; 'I' for Inactive)
REMARK    1  A    between atoms: C1_1  and  N1_2
REMARK    2  A    between atoms: C3_5  and  C26_37
REMARK    3  A    between atoms: N2_7  and  C18_27
REMARK    4  A    between atoms: N3_10  and  C6_11
REMARK    5  A    between atoms: C11_17  and  N4_18
REMARK    6  A    between atoms: N4_18  and  C12_19
REMARK    7  A    between atoms: C20_29  and  N5_33
REMARK    8  A    between atoms: C24_34  and  C25_35
REMARK                            x       y       z     vdW  Elec       q    Type
REMARK                         _______ _______ _______ _____ _____    ______ ____
ROOT
ATOM      1  C1  UNL     1      71.914  65.546 111.308  0.00  0.00    +0.000 C 
ATOM      2  N1  UNL     1      72.181  66.504 110.218  0.00  0.00    +0.000 N 
ATOM      3  C2  UNL     1      71.292  66.607 109.183  0.00  0.00    +0.000 A 
ATOM      4  O1  UNL     1      70.270  65.863 109.157  0.00  0.00    +0.000 OA
ATOM      5  C3  UNL     1      71.505  67.523 108.136  0.00  0.00    +0.000 A 
ATOM      6  C4  UNL     1      72.592  68.444 108.228  0.00  0.00    +0.000 A 
ATOM      7  N2  UNL     1      72.733  69.533 107.388  0.00  0.00    +0.000 N 
ATOM      8  C5  UNL     1      73.910  70.237 107.353  0.00  0.00    +0.000 A 
ATOM      9  O2  UNL     1      74.059  71.168 106.510  0.00  0.00    +0.000 OA
ATOM     10  N3  UNL     1      74.922  69.956 108.229  0.00  0.00    +0.000 N 
ATOM     11  C9  UNL     1      74.788  68.937 109.131  0.00  0.00    +0.000 A 
ATOM     12  O3  UNL     1      75.761  68.651 109.883  0.00  0.00    +0.000 OA
ATOM     13  C10 UNL     1      73.588  68.195 109.202  0.00  0.00    +0.000 A 
ATOM     14  C11 UNL     1      73.359  67.207 110.197  0.00  0.00    +0.000 A 
ATOM     15  C26 UNL     1      70.636  67.401 106.899  0.00  0.00    +0.000 C 
ENDROOT
BRANCH   7  16
ATOM     16  C18 UNL     1      71.606  70.111 106.691  0.00  0.00    +0.000 A 
ATOM     17  C19 UNL     1      71.469  69.959 105.300  0.00  0.00    +0.000 A 
ATOM     18  C20 UNL     1      70.386  70.537 104.620  0.00  0.00    +0.000 A 
ATOM     19  C21 UNL     1      69.464  71.318 105.340  0.00  0.00    +0.000 A 
ATOM     20  C22 UNL     1      69.608  71.487 106.720  0.00  0.00    +0.000 A 
ATOM     21  C23 UNL     1      70.674  70.889 107.394  0.00  0.00    +0.000 A 
BRANCH  18  22
ATOM     22  N5  UNL     1      70.277  70.365 103.196  0.00  0.00    +0.000 N 
ATOM     23  C24 UNL     1      71.012  71.132 102.230  0.00  0.00    +0.000 C 
ATOM     24  C25 UNL     1      70.979  70.738 100.790  0.00  0.00    +0.000 C 
ATOM     25  O4  UNL     1      71.614  72.185 102.569  0.00  0.00    +0.000 OA
ATOM     26  H17 UNL     1      69.560  69.693 102.837  0.00  0.00    +0.000 HD
ENDBRANCH  18  22
ENDBRANCH   7  16
BRANCH  10  27
ATOM     27  C6  UNL     1      76.197  70.698 108.142  0.00  0.00    +0.000 C 
ATOM     28  C7  UNL     1      76.051  72.210 107.990  0.00  0.00    +0.000 C 
ATOM     29  C8  UNL     1      76.479  71.628 109.320  0.00  0.00    +0.000 C 
ENDBRANCH  10  27
BRANCH  14  30
ATOM     30  N4  UNL     1      74.340  66.966 111.221  0.00  0.00    +0.000 N 
ATOM     31  H9  UNL     1      74.475  67.711 111.940  0.00  0.00    +0.000 HD
BRANCH  30  32
ATOM     32  C12 UNL     1      75.137  65.767 111.277  0.00  0.00    +0.000 A 
ATOM     33  C13 UNL     1      75.727  65.228 110.116  0.00  0.00    +0.000 A 
ATOM     34  C14 UNL     1      76.506  64.070 110.192  0.00  0.00    +0.000 A 
ATOM     35  C15 UNL     1      76.708  63.439 111.423  0.00  0.00    +0.000 A 
ATOM     36  I1  UNL     1      77.887  61.693 111.534  0.00  0.00    +0.000 I 
ATOM     37  C16 UNL     1      76.131  63.968 112.580  0.00  0.00    +0.000 A 
ATOM     38  C17 UNL     1      75.350  65.127 112.511  0.00  0.00    +0.000 A 
ATOM     39  F1  UNL     1      74.799  65.620 113.648  0.00  0.00    +0.000 F 
ENDBRANCH  30  32
ENDBRANCH  14  30
TORSDOF 5
ENDMDL
MODEL 20
REMARK VINA RESULT:      -7.1     12.710     15.986
REMARK  Name = ./S2673.pdb
REMARK  8 active torsions:
REMARK  status: ('A' for Active; 'I' for Inactive)
REMARK    1  A    between atoms: C1_1  and  N1_2
REMARK    2  A    between atoms: C3_5  and  C26_37
REMARK    3  A    between atoms: N2_7  and  C18_27
REMARK    4  A    between atoms: N3_10  and  C6_11
REMARK    5  A    between atoms: C11_17  and  N4_18
REMARK    6  A    between atoms: N4_18  and  C12_19
REMARK    7  A    between atoms: C20_29  and  N5_33
REMARK    8  A    between atoms: C24_34  and  C25_35
REMARK                            x       y       z     vdW  Elec       q    Type
REMARK                         _______ _______ _______ _____ _____    ______ ____
ROOT
ATOM      1  C1  UNL     1      74.339  60.400 114.056  0.00  0.00    +0.000 C 
ATOM      2  N1  UNL     1      74.501  61.867 114.021  0.00  0.00    +0.000 N 
ATOM      3  C2  UNL     1      74.973  62.462 112.883  0.00  0.00    +0.000 A 
ATOM      4  O1  UNL     1      75.290  61.750 111.887  0.00  0.00    +0.000 OA
ATOM      5  C3  UNL     1      75.122  63.859 112.807  0.00  0.00    +0.000 A 
ATOM      6  C4  UNL     1      74.651  64.668 113.884  0.00  0.00    +0.000 A 
ATOM      7  N2  UNL     1      74.522  66.042 113.798  0.00  0.00    +0.000 N 
ATOM      8  C5  UNL     1      74.307  66.793 114.926  0.00  0.00    +0.000 A 
ATOM      9  O2  UNL     1      74.290  68.056 114.845  0.00  0.00    +0.000 OA
ATOM     10  N3  UNL     1      74.093  66.195 116.137  0.00  0.00    +0.000 N 
ATOM     11  C9  UNL     1      74.132  64.833 116.248  0.00  0.00    +0.000 A 
ATOM     12  O3  UNL     1      74.001  64.306 117.388  0.00  0.00    +0.000 OA
ATOM     13  C10 UNL     1      74.344  64.027 115.107  0.00  0.00    +0.000 A 
ATOM     14  C11 UNL     1      74.277  62.608 115.153  0.00  0.00    +0.000 A 
ATOM     15  C26 UNL     1      75.894  64.427 111.632  0.00  0.00    +0.000 C 
ENDROOT
BRANCH   7  16
ATOM     16  C18 UNL     1      74.384  66.719 112.528  0.00  0.00    +0.000 A 
ATOM     17  C19 UNL     1      73.234  66.537 111.741  0.00  0.00    +0.000 A 
ATOM     18  C20 UNL     1      73.108  67.178 110.499  0.00  0.00    +0.000 A 
ATOM     19  C21 UNL     1      74.173  67.966 110.024  0.00  0.00    +0.000 A 
ATOM     20  C22 UNL     1      75.326  68.133 110.796  0.00  0.00    +0.000 A 
ATOM     21  C23 UNL     1      75.434  67.512 112.041  0.00  0.00    +0.000 A 
BRANCH  18  22
ATOM     22  N5  UNL     1      71.920  66.969 109.716  0.00  0.00    +0.000 N 
ATOM     23  C24 UNL     1      71.834  66.070 108.600  0.00  0.00    +0.000 C 
ATOM     24  C25 UNL     1      70.505  65.774 107.985  0.00  0.00    +0.000 C 
ATOM     25  O4  UNL     1      72.877  65.595 108.075  0.00  0.00    +0.000 OA
ATOM     26  H17 UNL     1      71.085  67.565 109.922  0.00  0.00    +0.000 HD
ENDBRANCH  18  22
ENDBRANCH   7  16
BRANCH  10  27
ATOM     27  C6  UNL     1      73.908  67.027 117.345  0.00  0.00    +0.000 C 
ATOM     28  C7  UNL     1      72.864  68.132 117.209  0.00  0.00    +0.000 C 
ATOM     29  C8  UNL     1      72.542  66.890 118.013  0.00  0.00    +0.000 C 
ENDBRANCH  10  27
BRANCH  14  30
ATOM     30  N4  UNL     1      73.926  61.936 116.376  0.00  0.00    +0.000 N 
ATOM     31  H9  UNL     1      74.680  61.815 117.089  0.00  0.00    +0.000 HD
BRANCH  30  32
ATOM     32  C12 UNL     1      72.607  61.421 116.637  0.00  0.00    +0.000 A 
ATOM     33  C13 UNL     1      71.456  62.192 116.374  0.00  0.00    +0.000 A 
ATOM     34  C14 UNL     1      70.184  61.671 116.624  0.00  0.00    +0.000 A 
ATOM     35  C15 UNL     1      70.043  60.377 117.134  0.00  0.00    +0.000 A 
ATOM     36  I1  UNL     1      68.120  59.593 117.507  0.00  0.00    +0.000 I 
ATOM     37  C16 UNL     1      71.176  59.603 117.394  0.00  0.00    +0.000 A 
ATOM     38  C17 UNL     1      72.453  60.119 117.146  0.00  0.00    +0.000 A 
ATOM     39  F1  UNL     1      73.538  59.348 117.408  0.00  0.00    +0.000 F 
ENDBRANCH  30  32
ENDBRANCH  14  30
TORSDOF 5
ENDMDL
