MODEL 1
REMARK VINA RESULT:      -7.5      0.000      0.000
REMARK  Name = ./S3022.pdb
REMARK  27 active torsions:
REMARK  status: ('A' for Active; 'I' for Inactive)
REMARK    1  A    between atoms: C1_1  and  O1_2
REMARK    2  A    between atoms: O1_2  and  C2_3
REMARK    3  A    between atoms: C6_8  and  O3_9
REMARK    4  A    between atoms: O3_9  and  C7_10
REMARK    5  A    between atoms: C7_10  and  C8_11
REMARK    6  A    between atoms: C10_14  and  O5_15
REMARK    7  A    between atoms: O5_15  and  C11_16
REMARK    8  A    between atoms: C11_16  and  C12_18
REMARK    9  A    between atoms: C18_24  and  O7_25
REMARK   10  A    between atoms: C20_27  and  O8_28
REMARK   11  A    between atoms: O8_28  and  C21_29
REMARK   12  A    between atoms: C21_29  and  C22_31
REMARK   13  A    between atoms: C22_31  and  O10_32
REMARK   14  A    between atoms: C22_31  and  C23_33
REMARK   15  A    between atoms: C23_33  and  N1_34
REMARK   16  A    between atoms: C23_33  and  C29_42
REMARK   17  A    between atoms: C24_35  and  O12_37
REMARK   18  A    between atoms: O12_37  and  C25_38
REMARK   19  A    between atoms: C25_38  and  C26_39
REMARK   20  A    between atoms: C25_38  and  C27_40
REMARK   21  A    between atoms: C25_38  and  C28_41
REMARK   22  A    between atoms: C35_48  and  C45_60
REMARK   23  A    between atoms: C37_50  and  O13_51
REMARK   24  A    between atoms: O13_51  and  C38_52
REMARK   25  A    between atoms: C40_55  and  C41_56
REMARK   26  A    between atoms: C42_57  and  C43_58
REMARK   27  A    between atoms: C42_57  and  C44_59
REMARK                            x       y       z     vdW  Elec       q    Type
REMARK                         _______ _______ _______ _____ _____    ______ ____
ROOT
ATOM      1  C2  UNL     1      75.835  63.836 110.280  0.00  0.00    +0.000 C 
ATOM      2  C3  UNL     1      75.697  64.848 111.468  0.00  0.00    +0.000 C 
ATOM      3  C4  UNL     1      75.416  66.337 111.135  0.00  0.00    +0.000 C 
ATOM      4  O2  UNL     1      74.401  66.825 111.987  0.00  0.00    +0.000 OA
ATOM      5  C5  UNL     1      73.521  67.013 110.900  0.00  0.00    +0.000 C 
ATOM      6  C6  UNL     1      74.588  66.625 109.888  0.00  0.00    +0.000 C 
ATOM      7  C9  UNL     1      74.309  65.385 109.000  0.00  0.00    +0.000 C 
ATOM      8  C10 UNL     1      73.208  65.773 107.878  0.00  0.00    +0.000 C 
ATOM      9  C18 UNL     1      73.105  64.681 106.789  0.00  0.00    +0.000 C 
ATOM     10  C19 UNL     1      71.826  64.248 106.037  0.00  0.00    +0.000 C 
ATOM     11  C20 UNL     1      72.227  62.932 105.210  0.00  0.00    +0.000 C 
ATOM     12  C35 UNL     1      73.783  62.662 105.054  0.00  0.00    +0.000 C 
ATOM     13  C36 UNL     1      74.723  63.632 105.396  0.00  0.00    +0.000 C 
ATOM     14  C37 UNL     1      76.021  63.301 106.196  0.00  0.00    +0.000 C 
ATOM     15  C39 UNL     1      75.844  63.290 107.762  0.00  0.00    +0.000 C 
ATOM     16  O14 UNL     1      75.938  62.153 108.222  0.00  0.00    +0.000 OA
ATOM     17  C40 UNL     1      75.711  64.500 108.837  0.00  0.00    +0.000 C 
ATOM     18  C41 UNL     1      77.030  65.368 108.711  0.00  0.00    +0.000 C 
ATOM     19  C42 UNL     1      74.153  64.997 105.598  0.00  0.00    +0.000 C 
ATOM     20  C43 UNL     1      73.561  65.522 104.228  0.00  0.00    +0.000 C 
ATOM     21  C44 UNL     1      75.218  66.109 105.838  0.00  0.00    +0.000 C 
ATOM     22  C45 UNL     1      74.204  61.233 104.825  0.00  0.00    +0.000 C 
ENDROOT
BRANCH   1  24
ATOM     23  C1  UNL     1      75.063  62.025 111.565  0.00  0.00    +0.000 C 
ATOM     24  O1  UNL     1      74.839  62.825 110.418  0.00  0.00    +0.000 OA
ENDBRANCH   1  24
BRANCH   9  25
ATOM     25  O7  UNL     1      73.347  63.486 107.532  0.00  0.00    +0.000 OA
ATOM     26  H20 UNL     1      73.592  63.709 108.471  0.00  0.00    +0.000 HD
ENDBRANCH   9  25
BRANCH  14  27
ATOM     27  O13 UNL     1      77.120  64.118 105.838  0.00  0.00    +0.000 OA
ATOM     28  C38 UNL     1      77.783  63.621 104.696  0.00  0.00    +0.000 C 
ENDBRANCH  14  27
BRANCH   6  29
ATOM     29  O3  UNL     1      75.046  67.745 109.105  0.00  0.00    +0.000 OA
BRANCH  29  30
ATOM     30  C7  UNL     1      75.827  68.830 109.533  0.00  0.00    +0.000 C 
ATOM     31  C8  UNL     1      75.146  70.097 109.925  0.00  0.00    +0.000 C 
ATOM     32  O4  UNL     1      77.083  68.748 109.623  0.00  0.00    +0.000 OA
ENDBRANCH  29  30
ENDBRANCH   6  29
BRANCH   8  33
ATOM     33  O5  UNL     1      71.933  65.920 108.513  0.00  0.00    +0.000 OA
BRANCH  33  34
ATOM     34  C11 UNL     1      71.062  66.992 108.275  0.00  0.00    +0.000 C 
ATOM     35  O6  UNL     1      69.887  66.970 108.738  0.00  0.00    +0.000 OA
BRANCH  34  36
ATOM     36  C12 UNL     1      71.510  68.128 107.441  0.00  0.00    +0.000 A 
ATOM     37  C13 UNL     1      72.120  69.254 108.029  0.00  0.00    +0.000 A 
ATOM     38  C14 UNL     1      72.519  70.339 107.239  0.00  0.00    +0.000 A 
ATOM     39  C15 UNL     1      72.321  70.305 105.855  0.00  0.00    +0.000 A 
ATOM     40  C16 UNL     1      71.726  69.187 105.263  0.00  0.00    +0.000 A 
ATOM     41  C17 UNL     1      71.320  68.105 106.049  0.00  0.00    +0.000 A 
ENDBRANCH  34  36
ENDBRANCH  33  34
ENDBRANCH   8  33
BRANCH  11  42
ATOM     42  O8  UNL     1      71.585  62.896 103.935  0.00  0.00    +0.000 OA
BRANCH  42  43
ATOM     43  C21 UNL     1      70.741  61.844 103.538  0.00  0.00    +0.000 C 
ATOM     44  O9  UNL     1      70.644  60.805 104.239  0.00  0.00    +0.000 OA
BRANCH  43  45
ATOM     45  C22 UNL     1      69.868  61.994 102.321  0.00  0.00    +0.000 C 
BRANCH  45  46
ATOM     46  O10 UNL     1      69.186  63.223 102.355  0.00  0.00    +0.000 OA
ATOM     47  H25 UNL     1      69.482  63.692 103.180  0.00  0.00    +0.000 HD
ENDBRANCH  45  46
BRANCH  45  48
ATOM     48  C23 UNL     1      70.676  61.850 101.006  0.00  0.00    +0.000 C 
BRANCH  48  49
ATOM     49  C29 UNL     1      69.811  61.386  99.847  0.00  0.00    +0.000 A 
ATOM     50  C30 UNL     1      68.477  60.982 100.053  0.00  0.00    +0.000 A 
ATOM     51  C31 UNL     1      67.686  60.574  98.975  0.00  0.00    +0.000 A 
ATOM     52  C32 UNL     1      68.214  60.575  97.682  0.00  0.00    +0.000 A 
ATOM     53  C33 UNL     1      69.532  60.979  97.467  0.00  0.00    +0.000 A 
ATOM     54  C34 UNL     1      70.328  61.379  98.543  0.00  0.00    +0.000 A 
ENDBRANCH  48  49
BRANCH  48  55
ATOM     55  N1  UNL     1      71.798  60.921 101.205  0.00  0.00    +0.000 N 
ATOM     56  C24 UNL     1      73.165  61.301 101.011  0.00  0.00    +0.000 C 
ATOM     57  O11 UNL     1      73.457  62.502 100.759  0.00  0.00    +0.000 OA
ATOM     58  H27 UNL     1      71.599  59.911 101.397  0.00  0.00    +0.000 HD
BRANCH  56  59
ATOM     59  O12 UNL     1      74.161  60.318 101.124  0.00  0.00    +0.000 OA
BRANCH  59  60
ATOM     60  C25 UNL     1      74.923  59.748 100.051  0.00  0.00    +0.000 C 
ATOM     61  C26 UNL     1      76.221  60.543  99.821  0.00  0.00    +0.000 C 
ATOM     62  C27 UNL     1      75.239  58.266 100.340  0.00  0.00    +0.000 C 
ATOM     63  C28 UNL     1      74.052  59.832  98.790  0.00  0.00    +0.000 C 
ENDBRANCH  59  60
ENDBRANCH  56  59
ENDBRANCH  48  55
ENDBRANCH  45  48
ENDBRANCH  43  45
ENDBRANCH  42  43
ENDBRANCH  11  42
TORSDOF 17
ENDMDL
MODEL 2
REMARK VINA RESULT:      -7.5      3.248      9.418
REMARK  Name = ./S3022.pdb
REMARK  27 active torsions:
REMARK  status: ('A' for Active; 'I' for Inactive)
REMARK    1  A    between atoms: C1_1  and  O1_2
REMARK    2  A    between atoms: O1_2  and  C2_3
REMARK    3  A    between atoms: C6_8  and  O3_9
REMARK    4  A    between atoms: O3_9  and  C7_10
REMARK    5  A    between atoms: C7_10  and  C8_11
REMARK    6  A    between atoms: C10_14  and  O5_15
REMARK    7  A    between atoms: O5_15  and  C11_16
REMARK    8  A    between atoms: C11_16  and  C12_18
REMARK    9  A    between atoms: C18_24  and  O7_25
REMARK   10  A    between atoms: C20_27  and  O8_28
REMARK   11  A    between atoms: O8_28  and  C21_29
REMARK   12  A    between atoms: C21_29  and  C22_31
REMARK   13  A    between atoms: C22_31  and  O10_32
REMARK   14  A    between atoms: C22_31  and  C23_33
REMARK   15  A    between atoms: C23_33  and  N1_34
REMARK   16  A    between atoms: C23_33  and  C29_42
REMARK   17  A    between atoms: C24_35  and  O12_37
REMARK   18  A    between atoms: O12_37  and  C25_38
REMARK   19  A    between atoms: C25_38  and  C26_39
REMARK   20  A    between atoms: C25_38  and  C27_40
REMARK   21  A    between atoms: C25_38  and  C28_41
REMARK   22  A    between atoms: C35_48  and  C45_60
REMARK   23  A    between atoms: C37_50  and  O13_51
REMARK   24  A    between atoms: O13_51  and  C38_52
REMARK   25  A    between atoms: C40_55  and  C41_56
REMARK   26  A    between atoms: C42_57  and  C43_58
REMARK   27  A    between atoms: C42_57  and  C44_59
REMARK                            x       y       z     vdW  Elec       q    Type
REMARK                         _______ _______ _______ _____ _____    ______ ____
ROOT
ATOM      1  C2  UNL     1      71.901  62.349 104.043  0.00  0.00    +0.000 C 
ATOM      2  C3  UNL     1      71.183  61.016 104.446  0.00  0.00    +0.000 C 
ATOM      3  C4  UNL     1      72.025  59.904 105.125  0.00  0.00    +0.000 C 
ATOM      4  O2  UNL     1      71.314  59.385 106.230  0.00  0.00    +0.000 OA
ATOM      5  C5  UNL     1      72.282  59.872 107.134  0.00  0.00    +0.000 C 
ATOM      6  C6  UNL     1      73.184  60.353 106.007  0.00  0.00    +0.000 C 
ATOM      7  C9  UNL     1      73.492  61.871 105.942  0.00  0.00    +0.000 C 
ATOM      8  C10 UNL     1      74.542  62.249 107.115  0.00  0.00    +0.000 C 
ATOM      9  C18 UNL     1      75.112  63.673 106.922  0.00  0.00    +0.000 C 
ATOM     10  C19 UNL     1      75.490  64.673 108.038  0.00  0.00    +0.000 C 
ATOM     11  C20 UNL     1      75.790  66.066 107.298  0.00  0.00    +0.000 C 
ATOM     12  C35 UNL     1      76.009  65.980 105.728  0.00  0.00    +0.000 C 
ATOM     13  C36 UNL     1      76.174  64.753 105.087  0.00  0.00    +0.000 C 
ATOM     14  C37 UNL     1      75.463  64.404 103.744  0.00  0.00    +0.000 C 
ATOM     15  C39 UNL     1      74.002  63.833 103.900  0.00  0.00    +0.000 C 
ATOM     16  O14 UNL     1      73.157  64.629 103.496  0.00  0.00    +0.000 OA
ATOM     17  C40 UNL     1      73.464  62.369 104.353  0.00  0.00    +0.000 C 
ATOM     18  C41 UNL     1      74.062  61.325 103.322  0.00  0.00    +0.000 C 
ATOM     19  C42 UNL     1      76.445  63.610 106.007  0.00  0.00    +0.000 C 
ATOM     20  C43 UNL     1      77.834  63.840 106.729  0.00  0.00    +0.000 C 
ATOM     21  C44 UNL     1      76.772  62.267 105.286  0.00  0.00    +0.000 C 
ATOM     22  C45 UNL     1      75.721  67.228 104.933  0.00  0.00    +0.000 C 
ENDROOT
BRANCH   1  24
ATOM     23  C1  UNL     1      70.097  63.017 105.394  0.00  0.00    +0.000 C 
ATOM     24  O1  UNL     1      71.274  63.434 104.724  0.00  0.00    +0.000 OA
ENDBRANCH   1  24
BRANCH   9  25
ATOM     25  O7  UNL     1      74.002  64.372 106.358  0.00  0.00    +0.000 OA
ATOM     26  H20 UNL     1      74.039  65.336 106.607  0.00  0.00    +0.000 HD
ENDBRANCH   9  25
BRANCH  14  27
ATOM     27  O13 UNL     1      76.229  63.552 102.912  0.00  0.00    +0.000 OA
ATOM     28  C38 UNL     1      76.121  63.923 101.555  0.00  0.00    +0.000 C 
ENDBRANCH  14  27
BRANCH   6  29
ATOM     29  O3  UNL     1      74.382  59.563 105.878  0.00  0.00    +0.000 OA
BRANCH  29  30
ATOM     30  C7  UNL     1      74.494  58.240 105.423  0.00  0.00    +0.000 C 
ATOM     31  C8  UNL     1      75.097  57.987 104.084  0.00  0.00    +0.000 C 
ATOM     32  O4  UNL     1      74.127  57.263 106.133  0.00  0.00    +0.000 OA
ENDBRANCH  29  30
ENDBRANCH   6  29
BRANCH   8  33
ATOM     33  O5  UNL     1      73.870  62.183 108.377  0.00  0.00    +0.000 OA
BRANCH  33  34
ATOM     34  C11 UNL     1      74.363  61.483 109.487  0.00  0.00    +0.000 C 
ATOM     35  O6  UNL     1      73.911  60.336 109.765  0.00  0.00    +0.000 OA
BRANCH  34  36
ATOM     36  C12 UNL     1      75.382  62.110 110.355  0.00  0.00    +0.000 A 
ATOM     37  C13 UNL     1      75.004  63.005 111.375  0.00  0.00    +0.000 A 
ATOM     38  C14 UNL     1      75.973  63.618 112.178  0.00  0.00    +0.000 A 
ATOM     39  C15 UNL     1      77.328  63.333 111.976  0.00  0.00    +0.000 A 
ATOM     40  C16 UNL     1      77.710  62.438 110.973  0.00  0.00    +0.000 A 
ATOM     41  C17 UNL     1      76.746  61.831 110.164  0.00  0.00    +0.000 A 
ENDBRANCH  34  36
ENDBRANCH  33  34
ENDBRANCH   8  33
BRANCH  11  42
ATOM     42  O8  UNL     1      76.873  66.765 107.914  0.00  0.00    +0.000 OA
BRANCH  42  43
ATOM     43  C21 UNL     1      76.739  68.064 108.435  0.00  0.00    +0.000 C 
ATOM     44  O9  UNL     1      76.813  69.066 107.678  0.00  0.00    +0.000 OA
BRANCH  43  45
ATOM     45  C22 UNL     1      76.404  68.264 109.889  0.00  0.00    +0.000 C 
BRANCH  45  46
ATOM     46  O10 UNL     1      77.159  69.321 110.425  0.00  0.00    +0.000 OA
ATOM     47  H25 UNL     1      77.563  69.805 109.656  0.00  0.00    +0.000 HD
ENDBRANCH  45  46
BRANCH  45  48
ATOM     48  C23 UNL     1      74.889  68.504 110.106  0.00  0.00    +0.000 C 
BRANCH  48  49
ATOM     49  C29 UNL     1      74.299  67.560 111.140  0.00  0.00    +0.000 A 
ATOM     50  C30 UNL     1      74.805  67.516 112.454  0.00  0.00    +0.000 A 
ATOM     51  C31 UNL     1      74.242  66.655 113.402  0.00  0.00    +0.000 A 
ATOM     52  C32 UNL     1      73.165  65.838 113.049  0.00  0.00    +0.000 A 
ATOM     53  C33 UNL     1      72.653  65.879 111.752  0.00  0.00    +0.000 A 
ATOM     54  C34 UNL     1      73.219  66.732 110.801  0.00  0.00    +0.000 A 
ENDBRANCH  48  49
BRANCH  48  55
ATOM     55  N1  UNL     1      74.170  68.373 108.831  0.00  0.00    +0.000 N 
ATOM     56  C24 UNL     1      73.455  69.455 108.226  0.00  0.00    +0.000 C 
ATOM     57  O11 UNL     1      73.510  70.609 108.734  0.00  0.00    +0.000 OA
ATOM     58  H27 UNL     1      74.085  67.428 108.386  0.00  0.00    +0.000 HD
BRANCH  56  59
ATOM     59  O12 UNL     1      72.713  69.207 107.061  0.00  0.00    +0.000 OA
BRANCH  59  60
ATOM     60  C25 UNL     1      71.479  68.482 106.972  0.00  0.00    +0.000 C 
ATOM     61  C26 UNL     1      70.489  69.203 106.039  0.00  0.00    +0.000 C 
ATOM     62  C27 UNL     1      71.732  67.041 106.486  0.00  0.00    +0.000 C 
ATOM     63  C28 UNL     1      70.888  68.430 108.388  0.00  0.00    +0.000 C 
ENDBRANCH  59  60
ENDBRANCH  56  59
ENDBRANCH  48  55
ENDBRANCH  45  48
ENDBRANCH  43  45
ENDBRANCH  42  43
ENDBRANCH  11  42
TORSDOF 17
ENDMDL
MODEL 3
REMARK VINA RESULT:      -7.4      3.598      6.944
REMARK  Name = ./S3022.pdb
REMARK  27 active torsions:
REMARK  status: ('A' for Active; 'I' for Inactive)
REMARK    1  A    between atoms: C1_1  and  O1_2
REMARK    2  A    between atoms: O1_2  and  C2_3
REMARK    3  A    between atoms: C6_8  and  O3_9
REMARK    4  A    between atoms: O3_9  and  C7_10
REMARK    5  A    between atoms: C7_10  and  C8_11
REMARK    6  A    between atoms: C10_14  and  O5_15
REMARK    7  A    between atoms: O5_15  and  C11_16
REMARK    8  A    between atoms: C11_16  and  C12_18
REMARK    9  A    between atoms: C18_24  and  O7_25
REMARK   10  A    between atoms: C20_27  and  O8_28
REMARK   11  A    between atoms: O8_28  and  C21_29
REMARK   12  A    between atoms: C21_29  and  C22_31
REMARK   13  A    between atoms: C22_31  and  O10_32
REMARK   14  A    between atoms: C22_31  and  C23_33
REMARK   15  A    between atoms: C23_33  and  N1_34
REMARK   16  A    between atoms: C23_33  and  C29_42
REMARK   17  A    between atoms: C24_35  and  O12_37
REMARK   18  A    between atoms: O12_37  and  C25_38
REMARK   19  A    between atoms: C25_38  and  C26_39
REMARK   20  A    between atoms: C25_38  and  C27_40
REMARK   21  A    between atoms: C25_38  and  C28_41
REMARK   22  A    between atoms: C35_48  and  C45_60
REMARK   23  A    between atoms: C37_50  and  O13_51
REMARK   24  A    between atoms: O13_51  and  C38_52
REMARK   25  A    between atoms: C40_55  and  C41_56
REMARK   26  A    between atoms: C42_57  and  C43_58
REMARK   27  A    between atoms: C42_57  and  C44_59
REMARK                            x       y       z     vdW  Elec       q    Type
REMARK                         _______ _______ _______ _____ _____    ______ ____
ROOT
ATOM      1  C2  UNL     1      73.200  57.040 104.821  0.00  0.00    +0.000 C 
ATOM      2  C3  UNL     1      72.499  57.195 106.214  0.00  0.00    +0.000 C 
ATOM      3  C4  UNL     1      72.483  58.599 106.876  0.00  0.00    +0.000 C 
ATOM      4  O2  UNL     1      71.190  58.866 107.378  0.00  0.00    +0.000 OA
ATOM      5  C5  UNL     1      71.009  59.927 106.467  0.00  0.00    +0.000 C 
ATOM      6  C6  UNL     1      72.433  59.804 105.944  0.00  0.00    +0.000 C 
ATOM      7  C9  UNL     1      72.613  59.465 104.442  0.00  0.00    +0.000 C 
ATOM      8  C10 UNL     1      72.268  60.776 103.558  0.00  0.00    +0.000 C 
ATOM      9  C18 UNL     1      72.708  60.595 102.087  0.00  0.00    +0.000 C 
ATOM     10  C19 UNL     1      71.991  61.151 100.836  0.00  0.00    +0.000 C 
ATOM     11  C20 UNL     1      72.717  60.472  99.575  0.00  0.00    +0.000 C 
ATOM     12  C35 UNL     1      74.118  59.788  99.872  0.00  0.00    +0.000 C 
ATOM     13  C36 UNL     1      74.777  59.985 101.084  0.00  0.00    +0.000 C 
ATOM     14  C37 UNL     1      75.459  58.822 101.868  0.00  0.00    +0.000 C 
ATOM     15  C39 UNL     1      74.495  58.015 102.819  0.00  0.00    +0.000 C 
ATOM     16  O14 UNL     1      74.298  56.874 102.404  0.00  0.00    +0.000 OA
ATOM     17  C40 UNL     1      73.865  58.379 104.271  0.00  0.00    +0.000 C 
ATOM     18  C41 UNL     1      75.086  58.618 105.251  0.00  0.00    +0.000 C 
ATOM     19  C42 UNL     1      74.231  61.105 101.905  0.00  0.00    +0.000 C 
ATOM     20  C43 UNL     1      74.454  62.471 101.138  0.00  0.00    +0.000 C 
ATOM     21  C44 UNL     1      75.054  61.420 103.192  0.00  0.00    +0.000 C 
ATOM     22  C45 UNL     1      74.548  58.689  98.935  0.00  0.00    +0.000 C 
ENDROOT
BRANCH   1  24
ATOM     23  C1  UNL     1      71.751  55.287 104.225  0.00  0.00    +0.000 C 
ATOM     24  O1  UNL     1      72.242  56.569 103.875  0.00  0.00    +0.000 OA
ENDBRANCH   1  24
BRANCH   9  25
ATOM     25  O7  UNL     1      72.488  59.200 101.873  0.00  0.00    +0.000 OA
ATOM     26  H20 UNL     1      71.904  59.062 101.078  0.00  0.00    +0.000 HD
ENDBRANCH   9  25
BRANCH  14  27
ATOM     27  O13 UNL     1      76.611  59.232 102.582  0.00  0.00    +0.000 OA
ATOM     28  C38 UNL     1      77.656  59.597 101.708  0.00  0.00    +0.000 C 
ENDBRANCH  14  27
BRANCH   6  29
ATOM     29  O3  UNL     1      73.268  60.909 106.342  0.00  0.00    +0.000 OA
BRANCH  29  30
ATOM     30  C7  UNL     1      73.626  61.290 107.645  0.00  0.00    +0.000 C 
ATOM     31  C8  UNL     1      75.021  61.046 108.110  0.00  0.00    +0.000 C 
ATOM     32  O4  UNL     1      72.807  61.862 108.415  0.00  0.00    +0.000 OA
ENDBRANCH  29  30
ENDBRANCH   6  29
BRANCH   8  33
ATOM     33  O5  UNL     1      70.854  61.001 103.597  0.00  0.00    +0.000 OA
BRANCH  33  34
ATOM     34  C11 UNL     1      70.271  62.259 103.799  0.00  0.00    +0.000 C 
ATOM     35  O6  UNL     1      69.288  62.624 103.094  0.00  0.00    +0.000 OA
BRANCH  34  36
ATOM     36  C12 UNL     1      70.838  63.176 104.811  0.00  0.00    +0.000 A 
ATOM     37  C13 UNL     1      72.091  63.787 104.606  0.00  0.00    +0.000 A 
ATOM     38  C14 UNL     1      72.637  64.633 105.578  0.00  0.00    +0.000 A 
ATOM     39  C15 UNL     1      71.932  64.884 106.760  0.00  0.00    +0.000 A 
ATOM     40  C16 UNL     1      70.683  64.290 106.967  0.00  0.00    +0.000 A 
ATOM     41  C17 UNL     1      70.139  63.439 106.002  0.00  0.00    +0.000 A 
ENDBRANCH  34  36
ENDBRANCH  33  34
ENDBRANCH   8  33
BRANCH  11  42
ATOM     42  O8  UNL     1      72.829  61.383  98.480  0.00  0.00    +0.000 OA
BRANCH  42  43
ATOM     43  C21 UNL     1      72.050  61.271  97.316  0.00  0.00    +0.000 C 
ATOM     44  O9  UNL     1      72.587  60.990  96.213  0.00  0.00    +0.000 OA
BRANCH  43  45
ATOM     45  C22 UNL     1      70.551  61.384  97.396  0.00  0.00    +0.000 C 
BRANCH  45  46
ATOM     46  O10 UNL     1      70.064  62.193  96.355  0.00  0.00    +0.000 OA
ATOM     47  H25 UNL     1      70.857  62.550  95.873  0.00  0.00    +0.000 HD
ENDBRANCH  45  46
BRANCH  45  48
ATOM     48  C23 UNL     1      69.863  59.996  97.382  0.00  0.00    +0.000 C 
BRANCH  48  49
ATOM     49  C29 UNL     1      69.206  59.692  96.046  0.00  0.00    +0.000 A 
ATOM     50  C30 UNL     1      67.860  60.035  95.806  0.00  0.00    +0.000 A 
ATOM     51  C31 UNL     1      67.271  59.766  94.566  0.00  0.00    +0.000 A 
ATOM     52  C32 UNL     1      68.022  59.163  93.554  0.00  0.00    +0.000 A 
ATOM     53  C33 UNL     1      69.356  58.826  93.780  0.00  0.00    +0.000 A 
ATOM     54  C34 UNL     1      69.945  59.085  95.021  0.00  0.00    +0.000 A 
ENDBRANCH  48  49
BRANCH  48  55
ATOM     55  N1  UNL     1      68.873  59.913  98.465  0.00  0.00    +0.000 N 
ATOM     56  C24 UNL     1      68.974  58.976  99.542  0.00  0.00    +0.000 C 
ATOM     57  O11 UNL     1      69.998  58.245  99.648  0.00  0.00    +0.000 OA
ATOM     58  H27 UNL     1      68.000  60.489  98.405  0.00  0.00    +0.000 HD
BRANCH  56  59
ATOM     59  O12 UNL     1      67.927  58.901 100.473  0.00  0.00    +0.000 OA
BRANCH  59  60
ATOM     60  C25 UNL     1      66.619  58.360 100.246  0.00  0.00    +0.000 C 
ATOM     61  C26 UNL     1      65.537  59.431 100.476  0.00  0.00    +0.000 C 
ATOM     62  C27 UNL     1      66.513  57.779  98.821  0.00  0.00    +0.000 C 
ATOM     63  C28 UNL     1      66.423  57.223 101.259  0.00  0.00    +0.000 C 
ENDBRANCH  59  60
ENDBRANCH  56  59
ENDBRANCH  48  55
ENDBRANCH  45  48
ENDBRANCH  43  45
ENDBRANCH  42  43
ENDBRANCH  11  42
TORSDOF 17
ENDMDL
MODEL 4
REMARK VINA RESULT:      -7.2      4.373      8.008
REMARK  Name = ./S3022.pdb
REMARK  27 active torsions:
REMARK  status: ('A' for Active; 'I' for Inactive)
REMARK    1  A    between atoms: C1_1  and  O1_2
REMARK    2  A    between atoms: O1_2  and  C2_3
REMARK    3  A    between atoms: C6_8  and  O3_9
REMARK    4  A    between atoms: O3_9  and  C7_10
REMARK    5  A    between atoms: C7_10  and  C8_11
REMARK    6  A    between atoms: C10_14  and  O5_15
REMARK    7  A    between atoms: O5_15  and  C11_16
REMARK    8  A    between atoms: C11_16  and  C12_18
REMARK    9  A    between atoms: C18_24  and  O7_25
REMARK   10  A    between atoms: C20_27  and  O8_28
REMARK   11  A    between atoms: O8_28  and  C21_29
REMARK   12  A    between atoms: C21_29  and  C22_31
REMARK   13  A    between atoms: C22_31  and  O10_32
REMARK   14  A    between atoms: C22_31  and  C23_33
REMARK   15  A    between atoms: C23_33  and  N1_34
REMARK   16  A    between atoms: C23_33  and  C29_42
REMARK   17  A    between atoms: C24_35  and  O12_37
REMARK   18  A    between atoms: O12_37  and  C25_38
REMARK   19  A    between atoms: C25_38  and  C26_39
REMARK   20  A    between atoms: C25_38  and  C27_40
REMARK   21  A    between atoms: C25_38  and  C28_41
REMARK   22  A    between atoms: C35_48  and  C45_60
REMARK   23  A    between atoms: C37_50  and  O13_51
REMARK   24  A    between atoms: O13_51  and  C38_52
REMARK   25  A    between atoms: C40_55  and  C41_56
REMARK   26  A    between atoms: C42_57  and  C43_58
REMARK   27  A    between atoms: C42_57  and  C44_59
REMARK                            x       y       z     vdW  Elec       q    Type
REMARK                         _______ _______ _______ _____ _____    ______ ____
ROOT
ATOM      1  C2  UNL     1      73.604  58.248 106.050  0.00  0.00    +0.000 C 
ATOM      2  C3  UNL     1      72.479  59.095 106.738  0.00  0.00    +0.000 C 
ATOM      3  C4  UNL     1      72.283  60.565 106.280  0.00  0.00    +0.000 C 
ATOM      4  O2  UNL     1      70.905  60.822 106.105  0.00  0.00    +0.000 OA
ATOM      5  C5  UNL     1      71.075  61.017 104.719  0.00  0.00    +0.000 C 
ATOM      6  C6  UNL     1      72.587  60.883 104.821  0.00  0.00    +0.000 C 
ATOM      7  C9  UNL     1      73.253  59.725 104.034  0.00  0.00    +0.000 C 
ATOM      8  C10 UNL     1      73.266  60.094 102.458  0.00  0.00    +0.000 C 
ATOM      9  C18 UNL     1      74.171  59.126 101.661  0.00  0.00    +0.000 C 
ATOM     10  C19 UNL     1      73.935  58.622 100.219  0.00  0.00    +0.000 C 
ATOM     11  C20 UNL     1      75.024  57.467  99.975  0.00  0.00    +0.000 C 
ATOM     12  C35 UNL     1      76.221  57.415 101.015  0.00  0.00    +0.000 C 
ATOM     13  C36 UNL     1      76.438  58.453 101.920  0.00  0.00    +0.000 C 
ATOM     14  C37 UNL     1      76.779  58.200 103.421  0.00  0.00    +0.000 C 
ATOM     15  C39 UNL     1      75.528  57.992 104.355  0.00  0.00    +0.000 C 
ATOM     16  O14 UNL     1      75.447  56.832 104.756  0.00  0.00    +0.000 OA
ATOM     17  C40 UNL     1      74.455  59.048 104.967  0.00  0.00    +0.000 C 
ATOM     18  C41 UNL     1      75.282  60.084 105.835  0.00  0.00    +0.000 C 
ATOM     19  C42 UNL     1      75.681  59.702 101.616  0.00  0.00    +0.000 C 
ATOM     20  C43 UNL     1      76.191  60.299 100.242  0.00  0.00    +0.000 C 
ATOM     21  C44 UNL     1      76.031  60.907 102.541  0.00  0.00    +0.000 C 
ATOM     22  C45 UNL     1      76.909  56.086 101.193  0.00  0.00    +0.000 C 
ENDROOT
BRANCH   1  24
ATOM     23  C1  UNL     1      71.688  56.894 105.896  0.00  0.00    +0.000 C 
ATOM     24  O1  UNL     1      73.008  57.110 105.429  0.00  0.00    +0.000 OA
ENDBRANCH   1  24
BRANCH   9  25
ATOM     25  O7  UNL     1      73.994  57.896 102.364  0.00  0.00    +0.000 OA
ATOM     26  H20 UNL     1      74.737  57.761 103.014  0.00  0.00    +0.000 HD
ENDBRANCH   9  25
BRANCH  14  27
ATOM     27  O13 UNL     1      77.635  59.185 103.971  0.00  0.00    +0.000 OA
ATOM     28  C38 UNL     1      78.885  58.639 104.331  0.00  0.00    +0.000 C 
ENDBRANCH  14  27
BRANCH   6  29
ATOM     29  O3  UNL     1      73.272  62.132 104.606  0.00  0.00    +0.000 OA
BRANCH  29  30
ATOM     30  C7  UNL     1      72.707  63.381 104.302  0.00  0.00    +0.000 C 
ATOM     31  C8  UNL     1      72.409  64.326 105.415  0.00  0.00    +0.000 C 
ATOM     32  O4  UNL     1      72.479  63.732 103.112  0.00  0.00    +0.000 OA
ENDBRANCH  29  30
ENDBRANCH   6  29
BRANCH   8  33
ATOM     33  O5  UNL     1      71.930  60.006 101.951  0.00  0.00    +0.000 OA
BRANCH  33  34
ATOM     34  C11 UNL     1      71.449  60.776 100.884  0.00  0.00    +0.000 C 
ATOM     35  O6  UNL     1      71.986  61.886 100.609  0.00  0.00    +0.000 OA
BRANCH  34  36
ATOM     36  C12 UNL     1      70.281  60.305 100.108  0.00  0.00    +0.000 A 
ATOM     37  C13 UNL     1      70.191  58.964  99.688  0.00  0.00    +0.000 A 
ATOM     38  C14 UNL     1      69.098  58.528  98.931  0.00  0.00    +0.000 A 
ATOM     39  C15 UNL     1      68.079  59.426  98.595  0.00  0.00    +0.000 A 
ATOM     40  C16 UNL     1      68.155  60.756  99.017  0.00  0.00    +0.000 A 
ATOM     41  C17 UNL     1      69.250  61.197  99.766  0.00  0.00    +0.000 A 
ENDBRANCH  34  36
ENDBRANCH  33  34
ENDBRANCH   8  33
BRANCH  11  42
ATOM     42  O8  UNL     1      75.526  57.494  98.637  0.00  0.00    +0.000 OA
BRANCH  42  43
ATOM     43  C21 UNL     1      74.918  56.790  97.583  0.00  0.00    +0.000 C 
ATOM     44  O9  UNL     1      74.835  55.536  97.617  0.00  0.00    +0.000 OA
BRANCH  43  45
ATOM     45  C22 UNL     1      74.268  57.540  96.450  0.00  0.00    +0.000 C 
BRANCH  45  46
ATOM     46  O10 UNL     1      74.733  57.058  95.214  0.00  0.00    +0.000 OA
ATOM     47  H25 UNL     1      75.023  57.851  94.688  0.00  0.00    +0.000 HD
ENDBRANCH  45  46
BRANCH  45  48
ATOM     48  C23 UNL     1      72.722  57.471  96.522  0.00  0.00    +0.000 C 
BRANCH  48  49
ATOM     49  C29 UNL     1      72.081  58.847  96.457  0.00  0.00    +0.000 A 
ATOM     50  C30 UNL     1      70.879  59.055  95.752  0.00  0.00    +0.000 A 
ATOM     51  C31 UNL     1      70.290  60.323  95.715  0.00  0.00    +0.000 A 
ATOM     52  C32 UNL     1      70.890  61.391  96.388  0.00  0.00    +0.000 A 
ATOM     53  C33 UNL     1      72.076  61.193  97.094  0.00  0.00    +0.000 A 
ATOM     54  C34 UNL     1      72.672  59.930  97.125  0.00  0.00    +0.000 A 
ENDBRANCH  48  49
BRANCH  48  55
ATOM     55  N1  UNL     1      72.305  56.774  97.747  0.00  0.00    +0.000 N 
ATOM     56  C24 UNL     1      71.260  55.796  97.767  0.00  0.00    +0.000 C 
ATOM     57  O11 UNL     1      70.726  55.421  96.688  0.00  0.00    +0.000 OA
ATOM     58  H27 UNL     1      72.710  57.069  98.667  0.00  0.00    +0.000 HD
BRANCH  56  59
ATOM     59  O12 UNL     1      70.861  55.260  99.002  0.00  0.00    +0.000 OA
BRANCH  59  60
ATOM     60  C25 UNL     1      71.544  54.247  99.754  0.00  0.00    +0.000 C 
ATOM     61  C26 UNL     1      72.338  53.316  98.820  0.00  0.00    +0.000 C 
ATOM     62  C27 UNL     1      72.476  54.888 100.802  0.00  0.00    +0.000 C 
ATOM     63  C28 UNL     1      70.468  53.430 100.482  0.00  0.00    +0.000 C 
ENDBRANCH  59  60
ENDBRANCH  56  59
ENDBRANCH  48  55
ENDBRANCH  45  48
ENDBRANCH  43  45
ENDBRANCH  42  43
ENDBRANCH  11  42
TORSDOF 17
ENDMDL
MODEL 5
REMARK VINA RESULT:      -7.2      2.802      9.120
REMARK  Name = ./S3022.pdb
REMARK  27 active torsions:
REMARK  status: ('A' for Active; 'I' for Inactive)
REMARK    1  A    between atoms: C1_1  and  O1_2
REMARK    2  A    between atoms: O1_2  and  C2_3
REMARK    3  A    between atoms: C6_8  and  O3_9
REMARK    4  A    between atoms: O3_9  and  C7_10
REMARK    5  A    between atoms: C7_10  and  C8_11
REMARK    6  A    between atoms: C10_14  and  O5_15
REMARK    7  A    between atoms: O5_15  and  C11_16
REMARK    8  A    between atoms: C11_16  and  C12_18
REMARK    9  A    between atoms: C18_24  and  O7_25
REMARK   10  A    between atoms: C20_27  and  O8_28
REMARK   11  A    between atoms: O8_28  and  C21_29
REMARK   12  A    between atoms: C21_29  and  C22_31
REMARK   13  A    between atoms: C22_31  and  O10_32
REMARK   14  A    between atoms: C22_31  and  C23_33
REMARK   15  A    between atoms: C23_33  and  N1_34
REMARK   16  A    between atoms: C23_33  and  C29_42
REMARK   17  A    between atoms: C24_35  and  O12_37
REMARK   18  A    between atoms: O12_37  and  C25_38
REMARK   19  A    between atoms: C25_38  and  C26_39
REMARK   20  A    between atoms: C25_38  and  C27_40
REMARK   21  A    between atoms: C25_38  and  C28_41
REMARK   22  A    between atoms: C35_48  and  C45_60
REMARK   23  A    between atoms: C37_50  and  O13_51
REMARK   24  A    between atoms: O13_51  and  C38_52
REMARK   25  A    between atoms: C40_55  and  C41_56
REMARK   26  A    between atoms: C42_57  and  C43_58
REMARK   27  A    between atoms: C42_57  and  C44_59
REMARK                            x       y       z     vdW  Elec       q    Type
REMARK                         _______ _______ _______ _____ _____    ______ ____
ROOT
ATOM      1  C2  UNL     1      74.414  58.863 103.687  0.00  0.00    +0.000 C 
ATOM      2  C3  UNL     1      75.873  58.375 103.394  0.00  0.00    +0.000 C 
ATOM      3  C4  UNL     1      76.900  59.408 102.859  0.00  0.00    +0.000 C 
ATOM      4  O2  UNL     1      78.120  59.261 103.557  0.00  0.00    +0.000 OA
ATOM      5  C5  UNL     1      77.994  60.544 104.131  0.00  0.00    +0.000 C 
ATOM      6  C6  UNL     1      76.740  60.850 103.326  0.00  0.00    +0.000 C 
ATOM      7  C9  UNL     1      75.437  61.130 104.118  0.00  0.00    +0.000 C 
ATOM      8  C10 UNL     1      75.525  62.605 104.779  0.00  0.00    +0.000 C 
ATOM      9  C18 UNL     1      74.153  63.058 105.329  0.00  0.00    +0.000 C 
ATOM     10  C19 UNL     1      73.903  63.921 106.586  0.00  0.00    +0.000 C 
ATOM     11  C20 UNL     1      72.318  63.886 106.836  0.00  0.00    +0.000 C 
ATOM     12  C35 UNL     1      71.438  63.370 105.620  0.00  0.00    +0.000 C 
ATOM     13  C36 UNL     1      71.988  63.200 104.351  0.00  0.00    +0.000 C 
ATOM     14  C37 UNL     1      71.690  61.951 103.466  0.00  0.00    +0.000 C 
ATOM     15  C39 UNL     1      72.614  60.706 103.750  0.00  0.00    +0.000 C 
ATOM     16  O14 UNL     1      71.991  59.787 104.278  0.00  0.00    +0.000 OA
ATOM     17  C40 UNL     1      74.157  60.398 103.344  0.00  0.00    +0.000 C 
ATOM     18  C41 UNL     1      74.227  60.442 101.762  0.00  0.00    +0.000 C 
ATOM     19  C42 UNL     1      73.329  63.831 104.172  0.00  0.00    +0.000 C 
ATOM     20  C43 UNL     1      73.187  65.402 104.306  0.00  0.00    +0.000 C 
ATOM     21  C44 UNL     1      73.880  63.767 102.715  0.00  0.00    +0.000 C 
ATOM     22  C45 UNL     1      70.092  62.782 105.958  0.00  0.00    +0.000 C 
ENDROOT
BRANCH   1  24
ATOM     23  C1  UNL     1      74.913  57.591 105.600  0.00  0.00    +0.000 C 
ATOM     24  O1  UNL     1      74.121  58.637 105.065  0.00  0.00    +0.000 OA
ENDBRANCH   1  24
BRANCH   9  25
ATOM     25  O7  UNL     1      73.585  61.829 105.782  0.00  0.00    +0.000 OA
ATOM     26  H20 UNL     1      72.796  61.588 105.224  0.00  0.00    +0.000 HD
ENDBRANCH   9  25
BRANCH  14  27
ATOM     27  O13 UNL     1      71.679  62.239 102.080  0.00  0.00    +0.000 OA
ATOM     28  C38 UNL     1      70.409  62.681 101.655  0.00  0.00    +0.000 C 
ENDBRANCH  14  27
BRANCH   6  29
ATOM     29  O3  UNL     1      76.963  61.843 102.305  0.00  0.00    +0.000 OA
BRANCH  29  30
ATOM     30  C7  UNL     1      78.120  62.608 102.089  0.00  0.00    +0.000 C 
ATOM     31  C8  UNL     1      79.087  62.171 101.042  0.00  0.00    +0.000 C 
ATOM     32  O4  UNL     1      78.342  63.668 102.734  0.00  0.00    +0.000 OA
ENDBRANCH  29  30
ENDBRANCH   6  29
BRANCH   8  33
ATOM     33  O5  UNL     1      76.470  62.574 105.854  0.00  0.00    +0.000 OA
BRANCH  33  34
ATOM     34  C11 UNL     1      77.228  63.682 106.257  0.00  0.00    +0.000 C 
ATOM     35  O6  UNL     1      77.237  64.733 105.557  0.00  0.00    +0.000 OA
BRANCH  34  36
ATOM     36  C12 UNL     1      78.050  63.600 107.483  0.00  0.00    +0.000 A 
ATOM     37  C13 UNL     1      79.449  63.763 107.423  0.00  0.00    +0.000 A 
ATOM     38  C14 UNL     1      80.227  63.658 108.581  0.00  0.00    +0.000 A 
ATOM     39  C15 UNL     1      79.615  63.399 109.812  0.00  0.00    +0.000 A 
ATOM     40  C16 UNL     1      78.228  63.246 109.882  0.00  0.00    +0.000 A 
ATOM     41  C17 UNL     1      77.448  63.342 108.727  0.00  0.00    +0.000 A 
ENDBRANCH  34  36
ENDBRANCH  33  34
ENDBRANCH   8  33
BRANCH  11  42
ATOM     42  O8  UNL     1      71.832  65.146 107.303  0.00  0.00    +0.000 OA
BRANCH  42  43
ATOM     43  C21 UNL     1      71.470  65.371 108.643  0.00  0.00    +0.000 C 
ATOM     44  O9  UNL     1      70.917  64.464 109.316  0.00  0.00    +0.000 OA
BRANCH  43  45
ATOM     45  C22 UNL     1      71.835  66.668 109.316  0.00  0.00    +0.000 C 
BRANCH  45  46
ATOM     46  O10 UNL     1      70.828  67.052 110.218  0.00  0.00    +0.000 OA
ATOM     47  H25 UNL     1      70.477  67.927 109.902  0.00  0.00    +0.000 HD
ENDBRANCH  45  46
BRANCH  45  48
ATOM     48  C23 UNL     1      73.209  66.585 110.027  0.00  0.00    +0.000 C 
BRANCH  48  49
ATOM     49  C29 UNL     1      74.358  66.957 109.105  0.00  0.00    +0.000 A 
ATOM     50  C30 UNL     1      74.142  67.750 107.961  0.00  0.00    +0.000 A 
ATOM     51  C31 UNL     1      75.211  68.100 107.130  0.00  0.00    +0.000 A 
ATOM     52  C32 UNL     1      76.504  67.670 107.438  0.00  0.00    +0.000 A 
ATOM     53  C33 UNL     1      76.728  66.890 108.572  0.00  0.00    +0.000 A 
ATOM     54  C34 UNL     1      75.661  66.531 109.399  0.00  0.00    +0.000 A 
ENDBRANCH  48  49
BRANCH  48  55
ATOM     55  N1  UNL     1      73.413  65.236 110.573  0.00  0.00    +0.000 N 
ATOM     56  C24 UNL     1      73.226  64.920 111.956  0.00  0.00    +0.000 C 
ATOM     57  O11 UNL     1      72.769  65.791 112.746  0.00  0.00    +0.000 OA
ATOM     58  H27 UNL     1      73.809  64.488 109.955  0.00  0.00    +0.000 HD
BRANCH  56  59
ATOM     59  O12 UNL     1      73.545  63.628 112.403  0.00  0.00    +0.000 OA
BRANCH  59  60
ATOM     60  C25 UNL     1      74.860  63.097 112.612  0.00  0.00    +0.000 C 
ATOM     61  C26 UNL     1      75.908  64.226 112.632  0.00  0.00    +0.000 C 
ATOM     62  C27 UNL     1      74.914  62.284 113.922  0.00  0.00    +0.000 C 
ATOM     63  C28 UNL     1      75.156  62.159 111.435  0.00  0.00    +0.000 C 
ENDBRANCH  59  60
ENDBRANCH  56  59
ENDBRANCH  48  55
ENDBRANCH  45  48
ENDBRANCH  43  45
ENDBRANCH  42  43
ENDBRANCH  11  42
TORSDOF 17
ENDMDL
MODEL 6
REMARK VINA RESULT:      -7.2      3.580     11.330
REMARK  Name = ./S3022.pdb
REMARK  27 active torsions:
REMARK  status: ('A' for Active; 'I' for Inactive)
REMARK    1  A    between atoms: C1_1  and  O1_2
REMARK    2  A    between atoms: O1_2  and  C2_3
REMARK    3  A    between atoms: C6_8  and  O3_9
REMARK    4  A    between atoms: O3_9  and  C7_10
REMARK    5  A    between atoms: C7_10  and  C8_11
REMARK    6  A    between atoms: C10_14  and  O5_15
REMARK    7  A    between atoms: O5_15  and  C11_16
REMARK    8  A    between atoms: C11_16  and  C12_18
REMARK    9  A    between atoms: C18_24  and  O7_25
REMARK   10  A    between atoms: C20_27  and  O8_28
REMARK   11  A    between atoms: O8_28  and  C21_29
REMARK   12  A    between atoms: C21_29  and  C22_31
REMARK   13  A    between atoms: C22_31  and  O10_32
REMARK   14  A    between atoms: C22_31  and  C23_33
REMARK   15  A    between atoms: C23_33  and  N1_34
REMARK   16  A    between atoms: C23_33  and  C29_42
REMARK   17  A    between atoms: C24_35  and  O12_37
REMARK   18  A    between atoms: O12_37  and  C25_38
REMARK   19  A    between atoms: C25_38  and  C26_39
REMARK   20  A    between atoms: C25_38  and  C27_40
REMARK   21  A    between atoms: C25_38  and  C28_41
REMARK   22  A    between atoms: C35_48  and  C45_60
REMARK   23  A    between atoms: C37_50  and  O13_51
REMARK   24  A    between atoms: O13_51  and  C38_52
REMARK   25  A    between atoms: C40_55  and  C41_56
REMARK   26  A    between atoms: C42_57  and  C43_58
REMARK   27  A    between atoms: C42_57  and  C44_59
REMARK                            x       y       z     vdW  Elec       q    Type
REMARK                         _______ _______ _______ _____ _____    ______ ____
ROOT
ATOM      1  C2  UNL     1      69.892  56.652  98.920  0.00  0.00    +0.000 C 
ATOM      2  C3  UNL     1      70.485  55.351  98.279  0.00  0.00    +0.000 C 
ATOM      3  C4  UNL     1      71.809  55.465  97.478  0.00  0.00    +0.000 C 
ATOM      4  O2  UNL     1      72.674  54.411  97.848  0.00  0.00    +0.000 OA
ATOM      5  C5  UNL     1      73.604  55.314  98.405  0.00  0.00    +0.000 C 
ATOM      6  C6  UNL     1      72.807  56.522  97.936  0.00  0.00    +0.000 C 
ATOM      7  C9  UNL     1      72.271  57.487  99.024  0.00  0.00    +0.000 C 
ATOM      8  C10 UNL     1      73.499  58.365  99.606  0.00  0.00    +0.000 C 
ATOM      9  C18 UNL     1      72.990  59.539 100.473  0.00  0.00    +0.000 C 
ATOM     10  C19 UNL     1      73.675  60.119 101.732  0.00  0.00    +0.000 C 
ATOM     11  C20 UNL     1      72.618  61.142 102.375  0.00  0.00    +0.000 C 
ATOM     12  C35 UNL     1      71.416  61.577 101.433  0.00  0.00    +0.000 C 
ATOM     13  C36 UNL     1      71.424  61.284 100.071  0.00  0.00    +0.000 C 
ATOM     14  C37 UNL     1      70.167  60.746  99.320  0.00  0.00    +0.000 C 
ATOM     15  C39 UNL     1      69.976  59.184  99.391  0.00  0.00    +0.000 C 
ATOM     16  O14 UNL     1      69.006  58.875 100.081  0.00  0.00    +0.000 OA
ATOM     17  C40 UNL     1      70.730  57.972  98.616  0.00  0.00    +0.000 C 
ATOM     18  C41 UNL     1      70.500  58.210  97.066  0.00  0.00    +0.000 C 
ATOM     19  C42 UNL     1      72.748  60.841  99.544  0.00  0.00    +0.000 C 
ATOM     20  C43 UNL     1      73.785  62.029  99.672  0.00  0.00    +0.000 C 
ATOM     21  C44 UNL     1      72.794  60.652  97.997  0.00  0.00    +0.000 C 
ATOM     22  C45 UNL     1      70.150  62.030 102.114  0.00  0.00    +0.000 C 
ENDROOT
BRANCH   1  24
ATOM     23  C1  UNL     1      69.250  55.206 100.659  0.00  0.00    +0.000 C 
ATOM     24  O1  UNL     1      69.801  56.469 100.332  0.00  0.00    +0.000 OA
ENDBRANCH   1  24
BRANCH   9  25
ATOM     25  O7  UNL     1      71.825  58.984 101.084  0.00  0.00    +0.000 OA
ATOM     26  H20 UNL     1      72.039  58.660 102.002  0.00  0.00    +0.000 HD
ENDBRANCH   9  25
BRANCH  14  27
ATOM     27  O13 UNL     1      70.092  61.182  97.975  0.00  0.00    +0.000 OA
ATOM     28  C38 UNL     1      68.762  61.177  97.504  0.00  0.00    +0.000 C 
ENDBRANCH  14  27
BRANCH   6  29
ATOM     29  O3  UNL     1      73.460  57.238  96.869  0.00  0.00    +0.000 OA
BRANCH  29  30
ATOM     30  C7  UNL     1      74.684  56.933  96.252  0.00  0.00    +0.000 C 
ATOM     31  C8  UNL     1      75.916  57.633  96.712  0.00  0.00    +0.000 C 
ATOM     32  O4  UNL     1      74.768  56.061  95.344  0.00  0.00    +0.000 OA
ENDBRANCH  29  30
ENDBRANCH   6  29
BRANCH   8  33
ATOM     33  O5  UNL     1      74.332  57.520 100.408  0.00  0.00    +0.000 OA
BRANCH  33  34
ATOM     34  C11 UNL     1      75.730  57.487 100.312  0.00  0.00    +0.000 C 
ATOM     35  O6  UNL     1      76.317  56.425  99.960  0.00  0.00    +0.000 OA
BRANCH  34  36
ATOM     36  C12 UNL     1      76.518  58.687 100.665  0.00  0.00    +0.000 A 
ATOM     37  C13 UNL     1      77.117  58.805 101.935  0.00  0.00    +0.000 A 
ATOM     38  C14 UNL     1      77.839  59.955 102.276  0.00  0.00    +0.000 A 
ATOM     39  C15 UNL     1      77.978  60.992 101.348  0.00  0.00    +0.000 A 
ATOM     40  C16 UNL     1      77.396  60.878 100.082  0.00  0.00    +0.000 A 
ATOM     41  C17 UNL     1      76.668  59.735  99.741  0.00  0.00    +0.000 A 
ENDBRANCH  34  36
ENDBRANCH  33  34
ENDBRANCH   8  33
BRANCH  11  42
ATOM     42  O8  UNL     1      73.266  62.293 102.920  0.00  0.00    +0.000 OA
BRANCH  42  43
ATOM     43  C21 UNL     1      73.659  62.378 104.267  0.00  0.00    +0.000 C 
ATOM     44  O9  UNL     1      74.503  61.573 104.737  0.00  0.00    +0.000 OA
BRANCH  43  45
ATOM     45  C22 UNL     1      73.149  63.498 105.134  0.00  0.00    +0.000 C 
BRANCH  45  46
ATOM     46  O10 UNL     1      72.912  64.648 104.360  0.00  0.00    +0.000 OA
ATOM     47  H25 UNL     1      72.032  65.010 104.646  0.00  0.00    +0.000 HD
ENDBRANCH  45  46
BRANCH  45  48
ATOM     48  C23 UNL     1      71.875  63.090 105.917  0.00  0.00    +0.000 C 
BRANCH  48  49
ATOM     49  C29 UNL     1      71.540  64.076 107.023  0.00  0.00    +0.000 A 
ATOM     50  C30 UNL     1      70.624  65.125 106.806  0.00  0.00    +0.000 A 
ATOM     51  C31 UNL     1      70.311  66.016 107.838  0.00  0.00    +0.000 A 
ATOM     52  C32 UNL     1      70.899  65.863 109.096  0.00  0.00    +0.000 A 
ATOM     53  C33 UNL     1      71.802  64.823 109.321  0.00  0.00    +0.000 A 
ATOM     54  C34 UNL     1      72.124  63.937 108.290  0.00  0.00    +0.000 A 
ENDBRANCH  48  49
BRANCH  48  55
ATOM     55  N1  UNL     1      72.037  61.740 106.474  0.00  0.00    +0.000 N 
ATOM     56  C24 UNL     1      71.125  60.671 106.200  0.00  0.00    +0.000 C 
ATOM     57  O11 UNL     1      70.190  60.837 105.369  0.00  0.00    +0.000 OA
ATOM     58  H27 UNL     1      72.790  61.564 107.182  0.00  0.00    +0.000 HD
BRANCH  56  59
ATOM     59  O12 UNL     1      71.304  59.445 106.859  0.00  0.00    +0.000 OA
BRANCH  59  60
ATOM     60  C25 UNL     1      72.161  58.371 106.448  0.00  0.00    +0.000 C 
ATOM     61  C26 UNL     1      71.416  57.025 106.507  0.00  0.00    +0.000 C 
ATOM     62  C27 UNL     1      72.708  58.628 105.029  0.00  0.00    +0.000 C 
ATOM     63  C28 UNL     1      73.338  58.336 107.433  0.00  0.00    +0.000 C 
ENDBRANCH  59  60
ENDBRANCH  56  59
ENDBRANCH  48  55
ENDBRANCH  45  48
ENDBRANCH  43  45
ENDBRANCH  42  43
ENDBRANCH  11  42
TORSDOF 17
ENDMDL
MODEL 7
REMARK VINA RESULT:      -7.2      2.503      8.362
REMARK  Name = ./S3022.pdb
REMARK  27 active torsions:
REMARK  status: ('A' for Active; 'I' for Inactive)
REMARK    1  A    between atoms: C1_1  and  O1_2
REMARK    2  A    between atoms: O1_2  and  C2_3
REMARK    3  A    between atoms: C6_8  and  O3_9
REMARK    4  A    between atoms: O3_9  and  C7_10
REMARK    5  A    between atoms: C7_10  and  C8_11
REMARK    6  A    between atoms: C10_14  and  O5_15
REMARK    7  A    between atoms: O5_15  and  C11_16
REMARK    8  A    between atoms: C11_16  and  C12_18
REMARK    9  A    between atoms: C18_24  and  O7_25
REMARK   10  A    between atoms: C20_27  and  O8_28
REMARK   11  A    between atoms: O8_28  and  C21_29
REMARK   12  A    between atoms: C21_29  and  C22_31
REMARK   13  A    between atoms: C22_31  and  O10_32
REMARK   14  A    between atoms: C22_31  and  C23_33
REMARK   15  A    between atoms: C23_33  and  N1_34
REMARK   16  A    between atoms: C23_33  and  C29_42
REMARK   17  A    between atoms: C24_35  and  O12_37
REMARK   18  A    between atoms: O12_37  and  C25_38
REMARK   19  A    between atoms: C25_38  and  C26_39
REMARK   20  A    between atoms: C25_38  and  C27_40
REMARK   21  A    between atoms: C25_38  and  C28_41
REMARK   22  A    between atoms: C35_48  and  C45_60
REMARK   23  A    between atoms: C37_50  and  O13_51
REMARK   24  A    between atoms: O13_51  and  C38_52
REMARK   25  A    between atoms: C40_55  and  C41_56
REMARK   26  A    between atoms: C42_57  and  C43_58
REMARK   27  A    between atoms: C42_57  and  C44_59
REMARK                            x       y       z     vdW  Elec       q    Type
REMARK                         _______ _______ _______ _____ _____    ______ ____
ROOT
ATOM      1  C2  UNL     1      74.694  58.799 103.525  0.00  0.00    +0.000 C 
ATOM      2  C3  UNL     1      76.197  58.434 103.273  0.00  0.00    +0.000 C 
ATOM      3  C4  UNL     1      77.162  59.564 102.825  0.00  0.00    +0.000 C 
ATOM      4  O2  UNL     1      78.361  59.478 103.566  0.00  0.00    +0.000 OA
ATOM      5  C5  UNL     1      78.115  60.721 104.187  0.00  0.00    +0.000 C 
ATOM      6  C6  UNL     1      76.873  60.968 103.343  0.00  0.00    +0.000 C 
ATOM      7  C9  UNL     1      75.523  61.114 104.090  0.00  0.00    +0.000 C 
ATOM      8  C10 UNL     1      75.472  62.561 104.815  0.00  0.00    +0.000 C 
ATOM      9  C18 UNL     1      74.049  62.885 105.325  0.00  0.00    +0.000 C 
ATOM     10  C19 UNL     1      73.686  63.671 106.605  0.00  0.00    +0.000 C 
ATOM     11  C20 UNL     1      72.100  63.507 106.787  0.00  0.00    +0.000 C 
ATOM     12  C35 UNL     1      71.310  62.980 105.515  0.00  0.00    +0.000 C 
ATOM     13  C36 UNL     1      71.920  62.908 104.264  0.00  0.00    +0.000 C 
ATOM     14  C37 UNL     1      71.753  61.680 103.317  0.00  0.00    +0.000 C 
ATOM     15  C39 UNL     1      72.758  60.497 103.588  0.00  0.00    +0.000 C 
ATOM     16  O14 UNL     1      72.186  59.512 104.051  0.00  0.00    +0.000 OA
ATOM     17  C40 UNL     1      74.333  60.323 103.234  0.00  0.00    +0.000 C 
ATOM     18  C41 UNL     1      74.462  60.442 101.659  0.00  0.00    +0.000 C 
ATOM     19  C42 UNL     1      73.214  63.645 104.167  0.00  0.00    +0.000 C 
ATOM     20  C43 UNL     1      72.948  65.193 104.360  0.00  0.00    +0.000 C 
ATOM     21  C44 UNL     1      73.825  63.687 102.733  0.00  0.00    +0.000 C 
ATOM     22  C45 UNL     1      70.001  62.279 105.771  0.00  0.00    +0.000 C 
ENDROOT
BRANCH   1  24
ATOM     23  C1  UNL     1      75.237  57.510 105.414  0.00  0.00    +0.000 C 
ATOM     24  O1  UNL     1      74.366  58.490 104.878  0.00  0.00    +0.000 OA
ENDBRANCH   1  24
BRANCH   9  25
ATOM     25  O7  UNL     1      73.560  61.598 105.703  0.00  0.00    +0.000 OA
ATOM     26  H20 UNL     1      72.673  61.684 106.147  0.00  0.00    +0.000 HD
ENDBRANCH   9  25
BRANCH  14  27
ATOM     27  O13 UNL     1      71.773  62.028 101.944  0.00  0.00    +0.000 OA
ATOM     28  C38 UNL     1      70.529  62.543 101.523  0.00  0.00    +0.000 C 
ENDBRANCH  14  27
BRANCH   6  29
ATOM     29  O3  UNL     1      77.059  62.018 102.375  0.00  0.00    +0.000 OA
BRANCH  29  30
ATOM     30  C7  UNL     1      78.271  62.541 101.896  0.00  0.00    +0.000 C 
ATOM     31  C8  UNL     1      78.829  62.012 100.619  0.00  0.00    +0.000 C 
ATOM     32  O4  UNL     1      78.878  63.466 102.502  0.00  0.00    +0.000 OA
ENDBRANCH  29  30
ENDBRANCH   6  29
BRANCH   8  33
ATOM     33  O5  UNL     1      76.375  62.553 105.926  0.00  0.00    +0.000 OA
BRANCH  33  34
ATOM     34  C11 UNL     1      77.319  63.560 106.171  0.00  0.00    +0.000 C 
ATOM     35  O6  UNL     1      78.442  63.270 106.669  0.00  0.00    +0.000 OA
BRANCH  34  36
ATOM     36  C12 UNL     1      76.977  64.970 105.882  0.00  0.00    +0.000 A 
ATOM     37  C13 UNL     1      76.933  65.442 104.556  0.00  0.00    +0.000 A 
ATOM     38  C14 UNL     1      76.635  66.784 104.289  0.00  0.00    +0.000 A 
ATOM     39  C15 UNL     1      76.369  67.662 105.343  0.00  0.00    +0.000 A 
ATOM     40  C16 UNL     1      76.399  67.200 106.662  0.00  0.00    +0.000 A 
ATOM     41  C17 UNL     1      76.704  65.863 106.933  0.00  0.00    +0.000 A 
ENDBRANCH  34  36
ENDBRANCH  33  34
ENDBRANCH   8  33
BRANCH  11  42
ATOM     42  O8  UNL     1      71.501  64.704 107.285  0.00  0.00    +0.000 OA
BRANCH  42  43
ATOM     43  C21 UNL     1      71.272  64.927 108.654  0.00  0.00    +0.000 C 
ATOM     44  O9  UNL     1      71.464  64.008 109.491  0.00  0.00    +0.000 OA
BRANCH  43  45
ATOM     45  C22 UNL     1      70.892  66.299 109.142  0.00  0.00    +0.000 C 
BRANCH  45  46
ATOM     46  O10 UNL     1      70.512  66.250 110.495  0.00  0.00    +0.000 OA
ATOM     47  H25 UNL     1      70.062  67.113 110.698  0.00  0.00    +0.000 HD
ENDBRANCH  45  46
BRANCH  45  48
ATOM     48  C23 UNL     1      72.032  67.327 108.928  0.00  0.00    +0.000 C 
BRANCH  48  49
ATOM     49  C29 UNL     1      71.888  68.081 107.617  0.00  0.00    +0.000 A 
ATOM     50  C30 UNL     1      72.953  68.145 106.697  0.00  0.00    +0.000 A 
ATOM     51  C31 UNL     1      72.803  68.828 105.486  0.00  0.00    +0.000 A 
ATOM     52  C32 UNL     1      71.587  69.444 105.178  0.00  0.00    +0.000 A 
ATOM     53  C33 UNL     1      70.525  69.381 106.081  0.00  0.00    +0.000 A 
ATOM     54  C34 UNL     1      70.676  68.707 107.296  0.00  0.00    +0.000 A 
ENDBRANCH  48  49
BRANCH  48  55
ATOM     55  N1  UNL     1      73.336  66.651 108.984  0.00  0.00    +0.000 N 
ATOM     56  C24 UNL     1      74.029  66.398 110.211  0.00  0.00    +0.000 C 
ATOM     57  O11 UNL     1      73.477  66.664 111.314  0.00  0.00    +0.000 OA
ATOM     58  H27 UNL     1      73.837  66.430 108.091  0.00  0.00    +0.000 HD
BRANCH  56  59
ATOM     59  O12 UNL     1      75.316  65.841 110.157  0.00  0.00    +0.000 OA
BRANCH  59  60
ATOM     60  C25 UNL     1      75.702  64.538 110.615  0.00  0.00    +0.000 C 
ATOM     61  C26 UNL     1      77.007  64.085 109.934  0.00  0.00    +0.000 C 
ATOM     62  C27 UNL     1      75.859  64.527 112.149  0.00  0.00    +0.000 C 
ATOM     63  C28 UNL     1      74.573  63.574 110.226  0.00  0.00    +0.000 C 
ENDBRANCH  59  60
ENDBRANCH  56  59
ENDBRANCH  48  55
ENDBRANCH  45  48
ENDBRANCH  43  45
ENDBRANCH  42  43
ENDBRANCH  11  42
TORSDOF 17
ENDMDL
MODEL 8
REMARK VINA RESULT:      -7.2      3.648      7.070
REMARK  Name = ./S3022.pdb
REMARK  27 active torsions:
REMARK  status: ('A' for Active; 'I' for Inactive)
REMARK    1  A    between atoms: C1_1  and  O1_2
REMARK    2  A    between atoms: O1_2  and  C2_3
REMARK    3  A    between atoms: C6_8  and  O3_9
REMARK    4  A    between atoms: O3_9  and  C7_10
REMARK    5  A    between atoms: C7_10  and  C8_11
REMARK    6  A    between atoms: C10_14  and  O5_15
REMARK    7  A    between atoms: O5_15  and  C11_16
REMARK    8  A    between atoms: C11_16  and  C12_18
REMARK    9  A    between atoms: C18_24  and  O7_25
REMARK   10  A    between atoms: C20_27  and  O8_28
REMARK   11  A    between atoms: O8_28  and  C21_29
REMARK   12  A    between atoms: C21_29  and  C22_31
REMARK   13  A    between atoms: C22_31  and  O10_32
REMARK   14  A    between atoms: C22_31  and  C23_33
REMARK   15  A    between atoms: C23_33  and  N1_34
REMARK   16  A    between atoms: C23_33  and  C29_42
REMARK   17  A    between atoms: C24_35  and  O12_37
REMARK   18  A    between atoms: O12_37  and  C25_38
REMARK   19  A    between atoms: C25_38  and  C26_39
REMARK   20  A    between atoms: C25_38  and  C27_40
REMARK   21  A    between atoms: C25_38  and  C28_41
REMARK   22  A    between atoms: C35_48  and  C45_60
REMARK   23  A    between atoms: C37_50  and  O13_51
REMARK   24  A    between atoms: O13_51  and  C38_52
REMARK   25  A    between atoms: C40_55  and  C41_56
REMARK   26  A    between atoms: C42_57  and  C43_58
REMARK   27  A    between atoms: C42_57  and  C44_59
REMARK                            x       y       z     vdW  Elec       q    Type
REMARK                         _______ _______ _______ _____ _____    ______ ____
ROOT
ATOM      1  C2  UNL     1      73.166  56.985 104.778  0.00  0.00    +0.000 C 
ATOM      2  C3  UNL     1      72.458  57.146 106.167  0.00  0.00    +0.000 C 
ATOM      3  C4  UNL     1      72.447  58.550 106.827  0.00  0.00    +0.000 C 
ATOM      4  O2  UNL     1      71.153  58.827 107.320  0.00  0.00    +0.000 OA
ATOM      5  C5  UNL     1      70.985  59.888 106.406  0.00  0.00    +0.000 C 
ATOM      6  C6  UNL     1      72.412  59.755 105.893  0.00  0.00    +0.000 C 
ATOM      7  C9  UNL     1      72.599  59.413 104.393  0.00  0.00    +0.000 C 
ATOM      8  C10 UNL     1      72.268  60.726 103.505  0.00  0.00    +0.000 C 
ATOM      9  C18 UNL     1      72.716  60.539 102.037  0.00  0.00    +0.000 C 
ATOM     10  C19 UNL     1      72.012  61.099 100.781  0.00  0.00    +0.000 C 
ATOM     11  C20 UNL     1      72.741  60.414  99.526  0.00  0.00    +0.000 C 
ATOM     12  C35 UNL     1      74.136  59.721  99.831  0.00  0.00    +0.000 C 
ATOM     13  C36 UNL     1      74.788  59.915 101.048  0.00  0.00    +0.000 C 
ATOM     14  C37 UNL     1      75.456  58.748 101.838  0.00  0.00    +0.000 C 
ATOM     15  C39 UNL     1      74.481  57.948 102.783  0.00  0.00    +0.000 C 
ATOM     16  O14 UNL     1      74.279  56.808 102.368  0.00  0.00    +0.000 OA
ATOM     17  C40 UNL     1      73.844  58.319 104.231  0.00  0.00    +0.000 C 
ATOM     18  C41 UNL     1      75.061  58.550 105.218  0.00  0.00    +0.000 C 
ATOM     19  C42 UNL     1      74.245  61.039 101.865  0.00  0.00    +0.000 C 
ATOM     20  C43 UNL     1      74.482  62.403 101.097  0.00  0.00    +0.000 C 
ATOM     21  C44 UNL     1      75.062  61.349 103.156  0.00  0.00    +0.000 C 
ATOM     22  C45 UNL     1      74.564  58.617  98.899  0.00  0.00    +0.000 C 
ENDROOT
BRANCH   1  24
ATOM     23  C1  UNL     1      71.758  55.214 104.138  0.00  0.00    +0.000 C 
ATOM     24  O1  UNL     1      72.211  56.519 103.826  0.00  0.00    +0.000 OA
ENDBRANCH   1  24
BRANCH   9  25
ATOM     25  O7  UNL     1      72.488  59.146 101.823  0.00  0.00    +0.000 OA
ATOM     26  H20 UNL     1      71.774  59.015 101.141  0.00  0.00    +0.000 HD
ENDBRANCH   9  25
BRANCH  14  27
ATOM     27  O13 UNL     1      76.607  59.150 102.558  0.00  0.00    +0.000 OA
ATOM     28  C38 UNL     1      77.524  58.088 102.700  0.00  0.00    +0.000 C 
ENDBRANCH  14  27
BRANCH   6  29
ATOM     29  O3  UNL     1      73.252  60.854 106.295  0.00  0.00    +0.000 OA
BRANCH  29  30
ATOM     30  C7  UNL     1      73.589  61.246 107.600  0.00  0.00    +0.000 C 
ATOM     31  C8  UNL     1      74.976  61.005 108.090  0.00  0.00    +0.000 C 
ATOM     32  O4  UNL     1      72.757  61.824 108.353  0.00  0.00    +0.000 OA
ENDBRANCH  29  30
ENDBRANCH   6  29
BRANCH   8  33
ATOM     33  O5  UNL     1      70.856  60.960 103.535  0.00  0.00    +0.000 OA
BRANCH  33  34
ATOM     34  C11 UNL     1      70.280  62.223 103.731  0.00  0.00    +0.000 C 
ATOM     35  O6  UNL     1      69.317  62.601 103.007  0.00  0.00    +0.000 OA
BRANCH  34  36
ATOM     36  C12 UNL     1      70.833  63.128 104.761  0.00  0.00    +0.000 A 
ATOM     37  C13 UNL     1      70.115  63.397 105.943  0.00  0.00    +0.000 A 
ATOM     38  C14 UNL     1      70.630  64.276 106.903  0.00  0.00    +0.000 A 
ATOM     39  C15 UNL     1      71.871  64.886 106.696  0.00  0.00    +0.000 A 
ATOM     40  C16 UNL     1      72.595  64.616 105.531  0.00  0.00    +0.000 A 
ATOM     41  C17 UNL     1      72.081  63.746 104.567  0.00  0.00    +0.000 A 
ENDBRANCH  34  36
ENDBRANCH  33  34
ENDBRANCH   8  33
BRANCH  11  42
ATOM     42  O8  UNL     1      72.866  61.323  98.430  0.00  0.00    +0.000 OA
BRANCH  42  43
ATOM     43  C21 UNL     1      72.132  61.184  97.239  0.00  0.00    +0.000 C 
ATOM     44  O9  UNL     1      72.447  60.307  96.394  0.00  0.00    +0.000 OA
BRANCH  43  45
ATOM     45  C22 UNL     1      70.898  62.016  97.011  0.00  0.00    +0.000 C 
BRANCH  45  46
ATOM     46  O10 UNL     1      71.128  62.966  96.001  0.00  0.00    +0.000 OA
ATOM     47  H25 UNL     1      72.087  62.892  95.750  0.00  0.00    +0.000 HD
ENDBRANCH  45  46
BRANCH  45  48
ATOM     48  C23 UNL     1      69.664  61.142  96.675  0.00  0.00    +0.000 C 
BRANCH  48  49
ATOM     49  C29 UNL     1      69.181  60.342  97.872  0.00  0.00    +0.000 A 
ATOM     50  C30 UNL     1      68.244  60.883  98.775  0.00  0.00    +0.000 A 
ATOM     51  C31 UNL     1      67.794  60.131  99.865  0.00  0.00    +0.000 A 
ATOM     52  C32 UNL     1      68.266  58.830 100.057  0.00  0.00    +0.000 A 
ATOM     53  C33 UNL     1      69.189  58.284  99.165  0.00  0.00    +0.000 A 
ATOM     54  C34 UNL     1      69.648  59.037  98.081  0.00  0.00    +0.000 A 
ENDBRANCH  48  49
BRANCH  48  55
ATOM     55  N1  UNL     1      69.976  60.241  95.556  0.00  0.00    +0.000 N 
ATOM     56  C24 UNL     1      68.984  59.771  94.637  0.00  0.00    +0.000 C 
ATOM     57  O11 UNL     1      67.803  60.210  94.703  0.00  0.00    +0.000 OA
ATOM     58  H27 UNL     1      70.939  59.838  95.476  0.00  0.00    +0.000 HD
BRANCH  56  59
ATOM     59  O12 UNL     1      69.358  58.831  93.663  0.00  0.00    +0.000 OA
BRANCH  59  60
ATOM     60  C25 UNL     1      69.076  57.425  93.680  0.00  0.00    +0.000 C 
ATOM     61  C26 UNL     1      70.179  56.639  92.947  0.00  0.00    +0.000 C 
ATOM     62  C27 UNL     1      68.923  56.922  95.129  0.00  0.00    +0.000 C 
ATOM     63  C28 UNL     1      67.745  57.227  92.944  0.00  0.00    +0.000 C 
ENDBRANCH  59  60
ENDBRANCH  56  59
ENDBRANCH  48  55
ENDBRANCH  45  48
ENDBRANCH  43  45
ENDBRANCH  42  43
ENDBRANCH  11  42
TORSDOF 17
ENDMDL
MODEL 9
REMARK VINA RESULT:      -7.2      3.798      9.948
REMARK  Name = ./S3022.pdb
REMARK  27 active torsions:
REMARK  status: ('A' for Active; 'I' for Inactive)
REMARK    1  A    between atoms: C1_1  and  O1_2
REMARK    2  A    between atoms: O1_2  and  C2_3
REMARK    3  A    between atoms: C6_8  and  O3_9
REMARK    4  A    between atoms: O3_9  and  C7_10
REMARK    5  A    between atoms: C7_10  and  C8_11
REMARK    6  A    between atoms: C10_14  and  O5_15
REMARK    7  A    between atoms: O5_15  and  C11_16
REMARK    8  A    between atoms: C11_16  and  C12_18
REMARK    9  A    between atoms: C18_24  and  O7_25
REMARK   10  A    between atoms: C20_27  and  O8_28
REMARK   11  A    between atoms: O8_28  and  C21_29
REMARK   12  A    between atoms: C21_29  and  C22_31
REMARK   13  A    between atoms: C22_31  and  O10_32
REMARK   14  A    between atoms: C22_31  and  C23_33
REMARK   15  A    between atoms: C23_33  and  N1_34
REMARK   16  A    between atoms: C23_33  and  C29_42
REMARK   17  A    between atoms: C24_35  and  O12_37
REMARK   18  A    between atoms: O12_37  and  C25_38
REMARK   19  A    between atoms: C25_38  and  C26_39
REMARK   20  A    between atoms: C25_38  and  C27_40
REMARK   21  A    between atoms: C25_38  and  C28_41
REMARK   22  A    between atoms: C35_48  and  C45_60
REMARK   23  A    between atoms: C37_50  and  O13_51
REMARK   24  A    between atoms: O13_51  and  C38_52
REMARK   25  A    between atoms: C40_55  and  C41_56
REMARK   26  A    between atoms: C42_57  and  C43_58
REMARK   27  A    between atoms: C42_57  and  C44_59
REMARK                            x       y       z     vdW  Elec       q    Type
REMARK                         _______ _______ _______ _____ _____    ______ ____
ROOT
ATOM      1  C2  UNL     1      72.352  59.265 107.234  0.00  0.00    +0.000 C 
ATOM      2  C3  UNL     1      72.423  57.774 106.760  0.00  0.00    +0.000 C 
ATOM      3  C4  UNL     1      72.796  57.490 105.281  0.00  0.00    +0.000 C 
ATOM      4  O2  UNL     1      73.748  56.448 105.229  0.00  0.00    +0.000 OA
ATOM      5  C5  UNL     1      74.732  57.316 104.710  0.00  0.00    +0.000 C 
ATOM      6  C6  UNL     1      73.747  58.471 104.606  0.00  0.00    +0.000 C 
ATOM      7  C9  UNL     1      74.054  59.745 105.434  0.00  0.00    +0.000 C 
ATOM      8  C10 UNL     1      75.269  60.553 104.734  0.00  0.00    +0.000 C 
ATOM      9  C18 UNL     1      75.426  61.968 105.337  0.00  0.00    +0.000 C 
ATOM     10  C19 UNL     1      76.749  62.738 105.547  0.00  0.00    +0.000 C 
ATOM     11  C20 UNL     1      76.371  64.031 106.419  0.00  0.00    +0.000 C 
ATOM     12  C35 UNL     1      74.826  64.386 106.494  0.00  0.00    +0.000 C 
ATOM     13  C36 UNL     1      73.900  63.765 105.657  0.00  0.00    +0.000 C 
ATOM     14  C37 UNL     1      72.522  63.245 106.169  0.00  0.00    +0.000 C 
ATOM     15  C39 UNL     1      72.552  61.794 106.785  0.00  0.00    +0.000 C 
ATOM     16  O14 UNL     1      72.368  61.812 108.001  0.00  0.00    +0.000 OA
ATOM     17  C40 UNL     1      72.637  60.331 106.085  0.00  0.00    +0.000 C 
ATOM     18  C41 UNL     1      71.373  60.205 105.139  0.00  0.00    +0.000 C 
ATOM     19  C42 UNL     1      74.507  63.016 104.518  0.00  0.00    +0.000 C 
ATOM     20  C43 UNL     1      75.245  64.036 103.559  0.00  0.00    +0.000 C 
ATOM     21  C44 UNL     1      73.472  62.442 103.502  0.00  0.00    +0.000 C 
ATOM     22  C45 UNL     1      74.367  65.174 107.694  0.00  0.00    +0.000 C 
ENDROOT
BRANCH   1  24
ATOM     23  C1  UNL     1      73.014  58.603 109.391  0.00  0.00    +0.000 C 
ATOM     24  O1  UNL     1      73.288  59.457 108.294  0.00  0.00    +0.000 OA
ENDBRANCH   1  24
BRANCH   9  25
ATOM     25  O7  UNL     1      75.066  61.758 106.703  0.00  0.00    +0.000 OA
ATOM     26  H20 UNL     1      74.100  61.526 106.772  0.00  0.00    +0.000 HD
ENDBRANCH   9  25
BRANCH  14  27
ATOM     27  O13 UNL     1      71.496  63.337 105.198  0.00  0.00    +0.000 OA
ATOM     28  C38 UNL     1      70.239  63.568 105.796  0.00  0.00    +0.000 C 
ENDBRANCH  14  27
BRANCH   6  29
ATOM     29  O3  UNL     1      73.411  58.795 103.242  0.00  0.00    +0.000 OA
BRANCH  29  30
ATOM     30  C7  UNL     1      73.525  57.972 102.110  0.00  0.00    +0.000 C 
ATOM     31  C8  UNL     1      74.705  58.138 101.215  0.00  0.00    +0.000 C 
ATOM     32  O4  UNL     1      72.673  57.078 101.854  0.00  0.00    +0.000 OA
ENDBRANCH  29  30
ENDBRANCH   6  29
BRANCH   8  33
ATOM     33  O5  UNL     1      76.485  59.824 104.934  0.00  0.00    +0.000 OA
BRANCH  33  34
ATOM     34  C11 UNL     1      77.350  59.451 103.896  0.00  0.00    +0.000 C 
ATOM     35  O6  UNL     1      77.774  58.264 103.819  0.00  0.00    +0.000 OA
BRANCH  34  36
ATOM     36  C12 UNL     1      77.798  60.464 102.916  0.00  0.00    +0.000 A 
ATOM     37  C13 UNL     1      77.050  60.715 101.748  0.00  0.00    +0.000 A 
ATOM     38  C14 UNL     1      77.492  61.655 100.810  0.00  0.00    +0.000 A 
ATOM     39  C15 UNL     1      78.678  62.361 101.035  0.00  0.00    +0.000 A 
ATOM     40  C16 UNL     1      79.420  62.126 102.196  0.00  0.00    +0.000 A 
ATOM     41  C17 UNL     1      78.987  61.182 103.131  0.00  0.00    +0.000 A 
ENDBRANCH  34  36
ENDBRANCH  33  34
ENDBRANCH   8  33
BRANCH  11  42
ATOM     42  O8  UNL     1      77.126  65.176 106.017  0.00  0.00    +0.000 OA
BRANCH  42  43
ATOM     43  C21 UNL     1      78.181  65.698 106.786  0.00  0.00    +0.000 C 
ATOM     44  O9  UNL     1      77.944  66.358 107.830  0.00  0.00    +0.000 OA
BRANCH  43  45
ATOM     45  C22 UNL     1      79.608  65.386 106.422  0.00  0.00    +0.000 C 
BRANCH  45  46
ATOM     46  O10 UNL     1      80.396  66.548 106.487  0.00  0.00    +0.000 OA
ATOM     47  H25 UNL     1      80.963  66.465 107.299  0.00  0.00    +0.000 HD
ENDBRANCH  45  46
BRANCH  45  48
ATOM     48  C23 UNL     1      80.202  64.267 107.313  0.00  0.00    +0.000 C 
BRANCH  48  49
ATOM     49  C29 UNL     1      81.052  63.288 106.520  0.00  0.00    +0.000 A 
ATOM     50  C30 UNL     1      81.359  63.527 105.166  0.00  0.00    +0.000 A 
ATOM     51  C31 UNL     1      82.156  62.627 104.452  0.00  0.00    +0.000 A 
ATOM     52  C32 UNL     1      82.662  61.488 105.084  0.00  0.00    +0.000 A 
ATOM     53  C33 UNL     1      82.367  61.247 106.426  0.00  0.00    +0.000 A 
ATOM     54  C34 UNL     1      81.563  62.139 107.140  0.00  0.00    +0.000 A 
ENDBRANCH  48  49
BRANCH  48  55
ATOM     55  N1  UNL     1      79.123  63.552 108.011  0.00  0.00    +0.000 N 
ATOM     56  C24 UNL     1      79.165  63.255 109.410  0.00  0.00    +0.000 C 
ATOM     57  O11 UNL     1      80.107  63.700 110.122  0.00  0.00    +0.000 OA
ATOM     58  H27 UNL     1      78.332  63.150 107.454  0.00  0.00    +0.000 HD
BRANCH  56  59
ATOM     59  O12 UNL     1      78.136  62.478 109.966  0.00  0.00    +0.000 OA
BRANCH  59  60
ATOM     60  C25 UNL     1      77.026  62.956 110.738  0.00  0.00    +0.000 C 
ATOM     61  C26 UNL     1      76.640  64.385 110.311  0.00  0.00    +0.000 C 
ATOM     62  C27 UNL     1      75.821  62.004 110.599  0.00  0.00    +0.000 C 
ATOM     63  C28 UNL     1      77.476  62.975 112.205  0.00  0.00    +0.000 C 
ENDBRANCH  59  60
ENDBRANCH  56  59
ENDBRANCH  48  55
ENDBRANCH  45  48
ENDBRANCH  43  45
ENDBRANCH  42  43
ENDBRANCH  11  42
TORSDOF 17
ENDMDL
MODEL 10
REMARK VINA RESULT:      -7.1      2.872     10.179
REMARK  Name = ./S3022.pdb
REMARK  27 active torsions:
REMARK  status: ('A' for Active; 'I' for Inactive)
REMARK    1  A    between atoms: C1_1  and  O1_2
REMARK    2  A    between atoms: O1_2  and  C2_3
REMARK    3  A    between atoms: C6_8  and  O3_9
REMARK    4  A    between atoms: O3_9  and  C7_10
REMARK    5  A    between atoms: C7_10  and  C8_11
REMARK    6  A    between atoms: C10_14  and  O5_15
REMARK    7  A    between atoms: O5_15  and  C11_16
REMARK    8  A    between atoms: C11_16  and  C12_18
REMARK    9  A    between atoms: C18_24  and  O7_25
REMARK   10  A    between atoms: C20_27  and  O8_28
REMARK   11  A    between atoms: O8_28  and  C21_29
REMARK   12  A    between atoms: C21_29  and  C22_31
REMARK   13  A    between atoms: C22_31  and  O10_32
REMARK   14  A    between atoms: C22_31  and  C23_33
REMARK   15  A    between atoms: C23_33  and  N1_34
REMARK   16  A    between atoms: C23_33  and  C29_42
REMARK   17  A    between atoms: C24_35  and  O12_37
REMARK   18  A    between atoms: O12_37  and  C25_38
REMARK   19  A    between atoms: C25_38  and  C26_39
REMARK   20  A    between atoms: C25_38  and  C27_40
REMARK   21  A    between atoms: C25_38  and  C28_41
REMARK   22  A    between atoms: C35_48  and  C45_60
REMARK   23  A    between atoms: C37_50  and  O13_51
REMARK   24  A    between atoms: O13_51  and  C38_52
REMARK   25  A    between atoms: C40_55  and  C41_56
REMARK   26  A    between atoms: C42_57  and  C43_58
REMARK   27  A    between atoms: C42_57  and  C44_59
REMARK                            x       y       z     vdW  Elec       q    Type
REMARK                         _______ _______ _______ _____ _____    ______ ____
ROOT
ATOM      1  C2  UNL     1      74.464  59.921  99.000  0.00  0.00    +0.000 C 
ATOM      2  C3  UNL     1      74.413  58.432  98.516  0.00  0.00    +0.000 C 
ATOM      3  C4  UNL     1      75.093  57.350  99.396  0.00  0.00    +0.000 C 
ATOM      4  O2  UNL     1      74.234  56.235  99.515  0.00  0.00    +0.000 OA
ATOM      5  C5  UNL     1      74.083  56.446 100.902  0.00  0.00    +0.000 C 
ATOM      6  C6  UNL     1      75.095  57.583 100.902  0.00  0.00    +0.000 C 
ATOM      7  C9  UNL     1      74.593  58.982 101.339  0.00  0.00    +0.000 C 
ATOM      8  C10 UNL     1      74.389  58.996 102.945  0.00  0.00    +0.000 C 
ATOM      9  C18 UNL     1      74.176  60.432 103.473  0.00  0.00    +0.000 C 
ATOM     10  C19 UNL     1      73.270  60.855 104.652  0.00  0.00    +0.000 C 
ATOM     11  C20 UNL     1      73.224  62.460 104.617  0.00  0.00    +0.000 C 
ATOM     12  C35 UNL     1      74.335  63.163 103.730  0.00  0.00    +0.000 C 
ATOM     13  C36 UNL     1      75.418  62.446 103.225  0.00  0.00    +0.000 C 
ATOM     14  C37 UNL     1      75.927  62.613 101.760  0.00  0.00    +0.000 C 
ATOM     15  C39 UNL     1      75.175  61.726 100.696  0.00  0.00    +0.000 C 
ATOM     16  O14 UNL     1      74.483  62.409  99.942  0.00  0.00    +0.000 OA
ATOM     17  C40 UNL     1      75.274  60.141 100.355  0.00  0.00    +0.000 C 
ATOM     18  C41 UNL     1      76.776  59.858  99.941  0.00  0.00    +0.000 C 
ATOM     19  C42 UNL     1      75.604  61.098 103.838  0.00  0.00    +0.000 C 
ATOM     20  C43 UNL     1      75.956  61.268 105.372  0.00  0.00    +0.000 C 
ATOM     21  C44 UNL     1      76.895  60.355 103.380  0.00  0.00    +0.000 C 
ATOM     22  C45 UNL     1      74.014  64.539 103.204  0.00  0.00    +0.000 C 
ENDROOT
BRANCH   1  24
ATOM     23  C1  UNL     1      72.428  60.429  97.939  0.00  0.00    +0.000 C 
ATOM     24  O1  UNL     1      73.130  60.396  99.170  0.00  0.00    +0.000 OA
ENDBRANCH   1  24
BRANCH   9  25
ATOM     25  O7  UNL     1      73.457  61.047 102.404  0.00  0.00    +0.000 OA
ATOM     26  H20 UNL     1      72.782  61.685 102.764  0.00  0.00    +0.000 HD
ENDBRANCH   9  25
BRANCH  14  27
ATOM     27  O13 UNL     1      77.326  62.439 101.632  0.00  0.00    +0.000 OA
ATOM     28  C38 UNL     1      78.027  63.608 101.995  0.00  0.00    +0.000 C 
ENDBRANCH  14  27
BRANCH   6  29
ATOM     29  O3  UNL     1      76.326  57.231 101.565  0.00  0.00    +0.000 OA
BRANCH  29  30
ATOM     30  C7  UNL     1      76.534  56.210 102.506  0.00  0.00    +0.000 C 
ATOM     31  C8  UNL     1      76.800  56.581 103.924  0.00  0.00    +0.000 C 
ATOM     32  O4  UNL     1      76.469  54.991 102.185  0.00  0.00    +0.000 OA
ENDBRANCH  29  30
ENDBRANCH   6  29
BRANCH   8  33
ATOM     33  O5  UNL     1      73.242  58.204 103.272  0.00  0.00    +0.000 OA
BRANCH  33  34
ATOM     34  C11 UNL     1      73.206  57.282 104.327  0.00  0.00    +0.000 C 
ATOM     35  O6  UNL     1      73.308  56.045 104.093  0.00  0.00    +0.000 OA
BRANCH  34  36
ATOM     36  C12 UNL     1      73.004  57.761 105.711  0.00  0.00    +0.000 A 
ATOM     37  C13 UNL     1      71.710  58.037 106.194  0.00  0.00    +0.000 A 
ATOM     38  C14 UNL     1      71.525  58.516 107.497  0.00  0.00    +0.000 A 
ATOM     39  C15 UNL     1      72.629  58.713 108.331  0.00  0.00    +0.000 A 
ATOM     40  C16 UNL     1      73.916  58.431 107.863  0.00  0.00    +0.000 A 
ATOM     41  C17 UNL     1      74.105  57.961 106.561  0.00  0.00    +0.000 A 
ENDBRANCH  34  36
ENDBRANCH  33  34
ENDBRANCH   8  33
BRANCH  11  42
ATOM     42  O8  UNL     1      73.213  63.014 105.934  0.00  0.00    +0.000 OA
BRANCH  42  43
ATOM     43  C21 UNL     1      72.072  62.999 106.756  0.00  0.00    +0.000 C 
ATOM     44  O9  UNL     1      71.936  62.119 107.643  0.00  0.00    +0.000 OA
BRANCH  43  45
ATOM     45  C22 UNL     1      71.050  64.099 106.648  0.00  0.00    +0.000 C 
BRANCH  45  46
ATOM     46  O10 UNL     1      69.768  63.559 106.451  0.00  0.00    +0.000 OA
ATOM     47  H25 UNL     1      69.151  64.327 106.316  0.00  0.00    +0.000 HD
ENDBRANCH  45  46
BRANCH  45  48
ATOM     48  C23 UNL     1      71.071  65.032 107.885  0.00  0.00    +0.000 C 
BRANCH  48  49
ATOM     49  C29 UNL     1      71.077  66.501 107.498  0.00  0.00    +0.000 A 
ATOM     50  C30 UNL     1      70.448  67.467 108.309  0.00  0.00    +0.000 A 
ATOM     51  C31 UNL     1      70.476  68.819 107.951  0.00  0.00    +0.000 A 
ATOM     52  C32 UNL     1      71.138  69.219 106.788  0.00  0.00    +0.000 A 
ATOM     53  C33 UNL     1      71.769  68.271 105.983  0.00  0.00    +0.000 A 
ATOM     54  C34 UNL     1      71.735  66.919 106.333  0.00  0.00    +0.000 A 
ENDBRANCH  48  49
BRANCH  48  55
ATOM     55  N1  UNL     1      72.235  64.725 108.728  0.00  0.00    +0.000 N 
ATOM     56  C24 UNL     1      72.135  64.488 110.136  0.00  0.00    +0.000 C 
ATOM     57  O11 UNL     1      71.002  64.434 110.688  0.00  0.00    +0.000 OA
ATOM     58  H27 UNL     1      73.196  64.777 108.314  0.00  0.00    +0.000 HD
BRANCH  56  59
ATOM     59  O12 UNL     1      73.314  64.305 110.876  0.00  0.00    +0.000 OA
BRANCH  59  60
ATOM     60  C25 UNL     1      74.171  65.335 111.387  0.00  0.00    +0.000 C 
ATOM     61  C26 UNL     1      73.477  66.708 111.313  0.00  0.00    +0.000 C 
ATOM     62  C27 UNL     1      74.594  65.018 112.836  0.00  0.00    +0.000 C 
ATOM     63  C28 UNL     1      75.423  65.357 110.499  0.00  0.00    +0.000 C 
ENDBRANCH  59  60
ENDBRANCH  56  59
ENDBRANCH  48  55
ENDBRANCH  45  48
ENDBRANCH  43  45
ENDBRANCH  42  43
ENDBRANCH  11  42
TORSDOF 17
ENDMDL
MODEL 11
REMARK VINA RESULT:      -7.1      2.794      8.676
REMARK  Name = ./S3022.pdb
REMARK  27 active torsions:
REMARK  status: ('A' for Active; 'I' for Inactive)
REMARK    1  A    between atoms: C1_1  and  O1_2
REMARK    2  A    between atoms: O1_2  and  C2_3
REMARK    3  A    between atoms: C6_8  and  O3_9
REMARK    4  A    between atoms: O3_9  and  C7_10
REMARK    5  A    between atoms: C7_10  and  C8_11
REMARK    6  A    between atoms: C10_14  and  O5_15
REMARK    7  A    between atoms: O5_15  and  C11_16
REMARK    8  A    between atoms: C11_16  and  C12_18
REMARK    9  A    between atoms: C18_24  and  O7_25
REMARK   10  A    between atoms: C20_27  and  O8_28
REMARK   11  A    between atoms: O8_28  and  C21_29
REMARK   12  A    between atoms: C21_29  and  C22_31
REMARK   13  A    between atoms: C22_31  and  O10_32
REMARK   14  A    between atoms: C22_31  and  C23_33
REMARK   15  A    between atoms: C23_33  and  N1_34
REMARK   16  A    between atoms: C23_33  and  C29_42
REMARK   17  A    between atoms: C24_35  and  O12_37
REMARK   18  A    between atoms: O12_37  and  C25_38
REMARK   19  A    between atoms: C25_38  and  C26_39
REMARK   20  A    between atoms: C25_38  and  C27_40
REMARK   21  A    between atoms: C25_38  and  C28_41
REMARK   22  A    between atoms: C35_48  and  C45_60
REMARK   23  A    between atoms: C37_50  and  O13_51
REMARK   24  A    between atoms: O13_51  and  C38_52
REMARK   25  A    between atoms: C40_55  and  C41_56
REMARK   26  A    between atoms: C42_57  and  C43_58
REMARK   27  A    between atoms: C42_57  and  C44_59
REMARK                            x       y       z     vdW  Elec       q    Type
REMARK                         _______ _______ _______ _____ _____    ______ ____
ROOT
ATOM      1  C2  UNL     1      76.111  58.085 103.613  0.00  0.00    +0.000 C 
ATOM      2  C3  UNL     1      76.672  58.355 102.175  0.00  0.00    +0.000 C 
ATOM      3  C4  UNL     1      75.847  59.260 101.223  0.00  0.00    +0.000 C 
ATOM      4  O2  UNL     1      76.709  60.180 100.586  0.00  0.00    +0.000 OA
ATOM      5  C5  UNL     1      76.088  61.272 101.229  0.00  0.00    +0.000 C 
ATOM      6  C6  UNL     1      75.032  60.378 101.863  0.00  0.00    +0.000 C 
ATOM      7  C9  UNL     1      74.976  60.330 103.411  0.00  0.00    +0.000 C 
ATOM      8  C10 UNL     1      74.323  61.705 103.961  0.00  0.00    +0.000 C 
ATOM      9  C18 UNL     1      73.972  61.600 105.463  0.00  0.00    +0.000 C 
ATOM     10  C19 UNL     1      74.052  62.734 106.510  0.00  0.00    +0.000 C 
ATOM     11  C20 UNL     1      73.817  62.034 107.935  0.00  0.00    +0.000 C 
ATOM     12  C35 UNL     1      73.211  60.568 107.893  0.00  0.00    +0.000 C 
ATOM     13  C36 UNL     1      72.690  60.035 106.715  0.00  0.00    +0.000 C 
ATOM     14  C37 UNL     1      72.982  58.574 106.253  0.00  0.00    +0.000 C 
ATOM     15  C39 UNL     1      74.319  58.396 105.438  0.00  0.00    +0.000 C 
ATOM     16  O14 UNL     1      75.162  57.769 106.078  0.00  0.00    +0.000 OA
ATOM     17  C40 UNL     1      74.698  58.762 103.902  0.00  0.00    +0.000 C 
ATOM     18  C41 UNL     1      73.700  57.948 102.980  0.00  0.00    +0.000 C 
ATOM     19  C42 UNL     1      72.465  61.037 105.633  0.00  0.00    +0.000 C 
ATOM     20  C43 UNL     1      71.353  62.064 106.097  0.00  0.00    +0.000 C 
ATOM     21  C44 UNL     1      71.750  60.469 104.369  0.00  0.00    +0.000 C 
ATOM     22  C45 UNL     1      73.501  59.679 109.075  0.00  0.00    +0.000 C 
ENDROOT
BRANCH   1  24
ATOM     23  C1  UNL     1      78.345  58.711 103.998  0.00  0.00    +0.000 C 
ATOM     24  O1  UNL     1      77.059  58.552 104.571  0.00  0.00    +0.000 OA
ENDBRANCH   1  24
BRANCH   9  25
ATOM     25  O7  UNL     1      75.011  60.757 105.961  0.00  0.00    +0.000 OA
ATOM     26  H20 UNL     1      75.883  61.005 105.547  0.00  0.00    +0.000 HD
ENDBRANCH   9  25
BRANCH  14  27
ATOM     27  O13 UNL     1      71.904  57.986 105.548  0.00  0.00    +0.000 OA
ATOM     28  C38 UNL     1      71.323  56.930 106.282  0.00  0.00    +0.000 C 
ENDBRANCH  14  27
BRANCH   6  29
ATOM     29  O3  UNL     1      73.723  60.573 101.292  0.00  0.00    +0.000 OA
BRANCH  29  30
ATOM     30  C7  UNL     1      73.399  61.211 100.084  0.00  0.00    +0.000 C 
ATOM     31  C8  UNL     1      73.550  60.457  98.807  0.00  0.00    +0.000 C 
ATOM     32  O4  UNL     1      72.955  62.392 100.058  0.00  0.00    +0.000 OA
ENDBRANCH  29  30
ENDBRANCH   6  29
BRANCH   8  33
ATOM     33  O5  UNL     1      75.263  62.769 103.777  0.00  0.00    +0.000 OA
BRANCH  33  34
ATOM     34  C11 UNL     1      74.953  63.983 103.148  0.00  0.00    +0.000 C 
ATOM     35  O6  UNL     1      74.885  64.046 101.888  0.00  0.00    +0.000 OA
BRANCH  34  36
ATOM     36  C12 UNL     1      74.747  65.199 103.964  0.00  0.00    +0.000 A 
ATOM     37  C13 UNL     1      73.448  65.632 104.295  0.00  0.00    +0.000 A 
ATOM     38  C14 UNL     1      73.256  66.798 105.045  0.00  0.00    +0.000 A 
ATOM     39  C15 UNL     1      74.361  67.537 105.479  0.00  0.00    +0.000 A 
ATOM     40  C16 UNL     1      75.654  67.109 105.164  0.00  0.00    +0.000 A 
ATOM     41  C17 UNL     1      75.849  65.950 104.409  0.00  0.00    +0.000 A 
ENDBRANCH  34  36
ENDBRANCH  33  34
ENDBRANCH   8  33
BRANCH  11  42
ATOM     42  O8  UNL     1      73.052  62.865 108.809  0.00  0.00    +0.000 OA
BRANCH  42  43
ATOM     43  C21 UNL     1      73.584  63.427 109.983  0.00  0.00    +0.000 C 
ATOM     44  O9  UNL     1      74.526  62.858 110.592  0.00  0.00    +0.000 OA
BRANCH  43  45
ATOM     45  C22 UNL     1      73.099  64.768 110.465  0.00  0.00    +0.000 C 
BRANCH  45  46
ATOM     46  O10 UNL     1      73.421  64.946 111.822  0.00  0.00    +0.000 OA
ATOM     47  H25 UNL     1      74.407  65.065 111.871  0.00  0.00    +0.000 HD
ENDBRANCH  45  46
BRANCH  45  48
ATOM     48  C23 UNL     1      73.663  65.930 109.609  0.00  0.00    +0.000 C 
BRANCH  48  49
ATOM     49  C29 UNL     1      72.581  66.629 108.804  0.00  0.00    +0.000 A 
ATOM     50  C30 UNL     1      71.538  65.898 108.201  0.00  0.00    +0.000 A 
ATOM     51  C31 UNL     1      70.538  66.555 107.477  0.00  0.00    +0.000 A 
ATOM     52  C32 UNL     1      70.564  67.947 107.358  0.00  0.00    +0.000 A 
ATOM     53  C33 UNL     1      71.588  68.680 107.957  0.00  0.00    +0.000 A 
ATOM     54  C34 UNL     1      72.594  68.025 108.673  0.00  0.00    +0.000 A 
ENDBRANCH  48  49
BRANCH  48  55
ATOM     55  N1  UNL     1      74.717  65.431 108.715  0.00  0.00    +0.000 N 
ATOM     56  C24 UNL     1      76.049  65.955 108.713  0.00  0.00    +0.000 C 
ATOM     57  O11 UNL     1      76.390  66.812 109.574  0.00  0.00    +0.000 OA
ATOM     58  H27 UNL     1      74.471  64.733 107.973  0.00  0.00    +0.000 HD
BRANCH  56  59
ATOM     59  O12 UNL     1      76.958  65.487 107.752  0.00  0.00    +0.000 OA
BRANCH  59  60
ATOM     60  C25 UNL     1      77.767  64.306 107.845  0.00  0.00    +0.000 C 
ATOM     61  C26 UNL     1      77.512  63.574 109.176  0.00  0.00    +0.000 C 
ATOM     62  C27 UNL     1      77.496  63.370 106.650  0.00  0.00    +0.000 C 
ATOM     63  C28 UNL     1      79.231  64.762 107.795  0.00  0.00    +0.000 C 
ENDBRANCH  59  60
ENDBRANCH  56  59
ENDBRANCH  48  55
ENDBRANCH  45  48
ENDBRANCH  43  45
ENDBRANCH  42  43
ENDBRANCH  11  42
TORSDOF 17
ENDMDL
MODEL 12
REMARK VINA RESULT:      -7.1      2.582      8.513
REMARK  Name = ./S3022.pdb
REMARK  27 active torsions:
REMARK  status: ('A' for Active; 'I' for Inactive)
REMARK    1  A    between atoms: C1_1  and  O1_2
REMARK    2  A    between atoms: O1_2  and  C2_3
REMARK    3  A    between atoms: C6_8  and  O3_9
REMARK    4  A    between atoms: O3_9  and  C7_10
REMARK    5  A    between atoms: C7_10  and  C8_11
REMARK    6  A    between atoms: C10_14  and  O5_15
REMARK    7  A    between atoms: O5_15  and  C11_16
REMARK    8  A    between atoms: C11_16  and  C12_18
REMARK    9  A    between atoms: C18_24  and  O7_25
REMARK   10  A    between atoms: C20_27  and  O8_28
REMARK   11  A    between atoms: O8_28  and  C21_29
REMARK   12  A    between atoms: C21_29  and  C22_31
REMARK   13  A    between atoms: C22_31  and  O10_32
REMARK   14  A    between atoms: C22_31  and  C23_33
REMARK   15  A    between atoms: C23_33  and  N1_34
REMARK   16  A    between atoms: C23_33  and  C29_42
REMARK   17  A    between atoms: C24_35  and  O12_37
REMARK   18  A    between atoms: O12_37  and  C25_38
REMARK   19  A    between atoms: C25_38  and  C26_39
REMARK   20  A    between atoms: C25_38  and  C27_40
REMARK   21  A    between atoms: C25_38  and  C28_41
REMARK   22  A    between atoms: C35_48  and  C45_60
REMARK   23  A    between atoms: C37_50  and  O13_51
REMARK   24  A    between atoms: O13_51  and  C38_52
REMARK   25  A    between atoms: C40_55  and  C41_56
REMARK   26  A    between atoms: C42_57  and  C43_58
REMARK   27  A    between atoms: C42_57  and  C44_59
REMARK                            x       y       z     vdW  Elec       q    Type
REMARK                         _______ _______ _______ _____ _____    ______ ____
ROOT
ATOM      1  C2  UNL     1      74.619  58.921 103.166  0.00  0.00    +0.000 C 
ATOM      2  C3  UNL     1      76.097  58.401 103.150  0.00  0.00    +0.000 C 
ATOM      3  C4  UNL     1      77.238  59.437 102.964  0.00  0.00    +0.000 C 
ATOM      4  O2  UNL     1      78.268  59.172 103.893  0.00  0.00    +0.000 OA
ATOM      5  C5  UNL     1      78.044  60.397 104.556  0.00  0.00    +0.000 C 
ATOM      6  C6  UNL     1      77.006  60.832 103.531  0.00  0.00    +0.000 C 
ATOM      7  C9  UNL     1      75.566  61.090 104.043  0.00  0.00    +0.000 C 
ATOM      8  C10 UNL     1      75.534  62.488 104.857  0.00  0.00    +0.000 C 
ATOM      9  C18 UNL     1      74.083  62.944 105.136  0.00  0.00    +0.000 C 
ATOM     10  C19 UNL     1      73.578  63.691 106.391  0.00  0.00    +0.000 C 
ATOM     11  C20 UNL     1      71.977  63.700 106.283  0.00  0.00    +0.000 C 
ATOM     12  C35 UNL     1      71.379  63.341 104.857  0.00  0.00    +0.000 C 
ATOM     13  C36 UNL     1      72.194  63.272 103.729  0.00  0.00    +0.000 C 
ATOM     14  C37 UNL     1      72.075  62.128 102.675  0.00  0.00    +0.000 C 
ATOM     15  C39 UNL     1      72.888  60.824 103.024  0.00  0.00    +0.000 C 
ATOM     16  O14 UNL     1      72.144  59.885 103.304  0.00  0.00    +0.000 OA
ATOM     17  C40 UNL     1      74.475  60.491 102.935  0.00  0.00    +0.000 C 
ATOM     18  C41 UNL     1      74.897  60.684 101.421  0.00  0.00    +0.000 C 
ATOM     19  C42 UNL     1      73.553  63.860 103.914  0.00  0.00    +0.000 C 
ATOM     20  C43 UNL     1      73.416  65.415 104.176  0.00  0.00    +0.000 C 
ATOM     21  C44 UNL     1      74.413  63.914 102.615  0.00  0.00    +0.000 C 
ATOM     22  C45 UNL     1      69.980  62.781 104.829  0.00  0.00    +0.000 C 
ENDROOT
BRANCH   1  24
ATOM     23  C1  UNL     1      74.775  57.585 105.095  0.00  0.00    +0.000 C 
ATOM     24  O1  UNL     1      74.023  58.574 104.415  0.00  0.00    +0.000 OA
ENDBRANCH   1  24
BRANCH   9  25
ATOM     25  O7  UNL     1      73.405  61.702 105.324  0.00  0.00    +0.000 OA
ATOM     26  H20 UNL     1      74.064  60.963 105.436  0.00  0.00    +0.000 HD
ENDBRANCH   9  25
BRANCH  14  27
ATOM     27  O13 UNL     1      72.378  62.549 101.358  0.00  0.00    +0.000 OA
ATOM     28  C38 UNL     1      71.415  62.090 100.435  0.00  0.00    +0.000 C 
ENDBRANCH  14  27
BRANCH   6  29
ATOM     29  O3  UNL     1      77.470  61.909 102.693  0.00  0.00    +0.000 OA
BRANCH  29  30
ATOM     30  C7  UNL     1      78.563  61.901 101.811  0.00  0.00    +0.000 C 
ATOM     31  C8  UNL     1      78.306  61.781 100.348  0.00  0.00    +0.000 C 
ATOM     32  O4  UNL     1      79.748  62.026 102.225  0.00  0.00    +0.000 OA
ENDBRANCH  29  30
ENDBRANCH   6  29
BRANCH   8  33
ATOM     33  O5  UNL     1      76.216  62.314 106.104  0.00  0.00    +0.000 OA
BRANCH  33  34
ATOM     34  C11 UNL     1      77.067  63.274 106.667  0.00  0.00    +0.000 C 
ATOM     35  O6  UNL     1      76.816  63.753 107.809  0.00  0.00    +0.000 OA
BRANCH  34  36
ATOM     36  C12 UNL     1      78.236  63.756 105.901  0.00  0.00    +0.000 A 
ATOM     37  C13 UNL     1      79.544  63.393 106.280  0.00  0.00    +0.000 A 
ATOM     38  C14 UNL     1      80.649  63.873 105.569  0.00  0.00    +0.000 A 
ATOM     39  C15 UNL     1      80.458  64.712 104.467  0.00  0.00    +0.000 A 
ATOM     40  C16 UNL     1      79.164  65.070 104.078  0.00  0.00    +0.000 A 
ATOM     41  C17 UNL     1      78.059  64.599 104.790  0.00  0.00    +0.000 A 
ENDBRANCH  34  36
ENDBRANCH  33  34
ENDBRANCH   8  33
BRANCH  11  42
ATOM     42  O8  UNL     1      71.424  64.928 106.761  0.00  0.00    +0.000 OA
BRANCH  42  43
ATOM     43  C21 UNL     1      71.168  65.167 108.122  0.00  0.00    +0.000 C 
ATOM     44  O9  UNL     1      71.472  64.308 108.989  0.00  0.00    +0.000 OA
BRANCH  43  45
ATOM     45  C22 UNL     1      70.619  66.497 108.565  0.00  0.00    +0.000 C 
BRANCH  45  46
ATOM     46  O10 UNL     1      70.290  66.462 109.931  0.00  0.00    +0.000 OA
ATOM     47  H25 UNL     1      69.361  66.113 109.994  0.00  0.00    +0.000 HD
ENDBRANCH  45  46
BRANCH  45  48
ATOM     48  C23 UNL     1      71.601  67.658 108.265  0.00  0.00    +0.000 C 
BRANCH  48  49
ATOM     49  C29 UNL     1      71.134  68.523 107.107  0.00  0.00    +0.000 A 
ATOM     50  C30 UNL     1      71.878  68.599 105.912  0.00  0.00    +0.000 A 
ATOM     51  C31 UNL     1      71.428  69.385 104.847  0.00  0.00    +0.000 A 
ATOM     52  C32 UNL     1      70.229  70.094 104.960  0.00  0.00    +0.000 A 
ATOM     53  C33 UNL     1      69.483  70.020 106.136  0.00  0.00    +0.000 A 
ATOM     54  C34 UNL     1      69.935  69.242 107.206  0.00  0.00    +0.000 A 
ENDBRANCH  48  49
BRANCH  48  55
ATOM     55  N1  UNL     1      72.943  67.123 107.990  0.00  0.00    +0.000 N 
ATOM     56  C24 UNL     1      74.046  67.293 108.886  0.00  0.00    +0.000 C 
ATOM     57  O11 UNL     1      73.866  67.830 110.014  0.00  0.00    +0.000 OA
ATOM     58  H27 UNL     1      73.139  66.687 107.058  0.00  0.00    +0.000 HD
BRANCH  56  59
ATOM     59  O12 UNL     1      75.314  66.837 108.491  0.00  0.00    +0.000 OA
BRANCH  59  60
ATOM     60  C25 UNL     1      76.181  67.455 107.530  0.00  0.00    +0.000 C 
ATOM     61  C26 UNL     1      75.827  66.999 106.103  0.00  0.00    +0.000 C 
ATOM     62  C27 UNL     1      76.108  68.991 107.643  0.00  0.00    +0.000 C 
ATOM     63  C28 UNL     1      77.609  67.001 107.862  0.00  0.00    +0.000 C 
ENDBRANCH  59  60
ENDBRANCH  56  59
ENDBRANCH  48  55
ENDBRANCH  45  48
ENDBRANCH  43  45
ENDBRANCH  42  43
ENDBRANCH  11  42
TORSDOF 17
ENDMDL
MODEL 13
REMARK VINA RESULT:      -7.1      2.596      9.049
REMARK  Name = ./S3022.pdb
REMARK  27 active torsions:
REMARK  status: ('A' for Active; 'I' for Inactive)
REMARK    1  A    between atoms: C1_1  and  O1_2
REMARK    2  A    between atoms: O1_2  and  C2_3
REMARK    3  A    between atoms: C6_8  and  O3_9
REMARK    4  A    between atoms: O3_9  and  C7_10
REMARK    5  A    between atoms: C7_10  and  C8_11
REMARK    6  A    between atoms: C10_14  and  O5_15
REMARK    7  A    between atoms: O5_15  and  C11_16
REMARK    8  A    between atoms: C11_16  and  C12_18
REMARK    9  A    between atoms: C18_24  and  O7_25
REMARK   10  A    between atoms: C20_27  and  O8_28
REMARK   11  A    between atoms: O8_28  and  C21_29
REMARK   12  A    between atoms: C21_29  and  C22_31
REMARK   13  A    between atoms: C22_31  and  O10_32
REMARK   14  A    between atoms: C22_31  and  C23_33
REMARK   15  A    between atoms: C23_33  and  N1_34
REMARK   16  A    between atoms: C23_33  and  C29_42
REMARK   17  A    between atoms: C24_35  and  O12_37
REMARK   18  A    between atoms: O12_37  and  C25_38
REMARK   19  A    between atoms: C25_38  and  C26_39
REMARK   20  A    between atoms: C25_38  and  C27_40
REMARK   21  A    between atoms: C25_38  and  C28_41
REMARK   22  A    between atoms: C35_48  and  C45_60
REMARK   23  A    between atoms: C37_50  and  O13_51
REMARK   24  A    between atoms: O13_51  and  C38_52
REMARK   25  A    between atoms: C40_55  and  C41_56
REMARK   26  A    between atoms: C42_57  and  C43_58
REMARK   27  A    between atoms: C42_57  and  C44_59
REMARK                            x       y       z     vdW  Elec       q    Type
REMARK                         _______ _______ _______ _____ _____    ______ ____
ROOT
ATOM      1  C2  UNL     1      74.040  59.170 102.833  0.00  0.00    +0.000 C 
ATOM      2  C3  UNL     1      75.402  58.582 102.328  0.00  0.00    +0.000 C 
ATOM      3  C4  UNL     1      76.510  59.572 101.882  0.00  0.00    +0.000 C 
ATOM      4  O2  UNL     1      77.748  59.169 102.430  0.00  0.00    +0.000 OA
ATOM      5  C5  UNL     1      77.826  60.334 103.221  0.00  0.00    +0.000 C 
ATOM      6  C6  UNL     1      76.566  60.917 102.597  0.00  0.00    +0.000 C 
ATOM      7  C9  UNL     1      75.369  61.195 103.541  0.00  0.00    +0.000 C 
ATOM      8  C10 UNL     1      75.688  62.510 104.430  0.00  0.00    +0.000 C 
ATOM      9  C18 UNL     1      74.427  63.008 105.172  0.00  0.00    +0.000 C 
ATOM     10  C19 UNL     1      74.379  63.657 106.574  0.00  0.00    +0.000 C 
ATOM     11  C20 UNL     1      72.824  63.755 106.960  0.00  0.00    +0.000 C 
ATOM     12  C35 UNL     1      71.802  63.564 105.761  0.00  0.00    +0.000 C 
ATOM     13  C36 UNL     1      72.234  63.563 104.436  0.00  0.00    +0.000 C 
ATOM     14  C37 UNL     1      71.718  62.532 103.386  0.00  0.00    +0.000 C 
ATOM     15  C39 UNL     1      72.496  61.162 103.370  0.00  0.00    +0.000 C 
ATOM     16  O14 UNL     1      71.801  60.239 103.792  0.00  0.00    +0.000 OA
ATOM     17  C40 UNL     1      73.954  60.760 102.777  0.00  0.00    +0.000 C 
ATOM     18  C41 UNL     1      73.917  61.076 101.225  0.00  0.00    +0.000 C 
ATOM     19  C42 UNL     1      73.627  64.062 104.243  0.00  0.00    +0.000 C 
ATOM     20  C43 UNL     1      73.694  65.590 104.652  0.00  0.00    +0.000 C 
ATOM     21  C44 UNL     1      74.060  64.197 102.752  0.00  0.00    +0.000 C 
ATOM     22  C45 UNL     1      70.420  63.080 106.118  0.00  0.00    +0.000 C 
ENDROOT
BRANCH   1  24
ATOM     23  C1  UNL     1      74.667  57.653 104.516  0.00  0.00    +0.000 C 
ATOM     24  O1  UNL     1      73.820  58.736 104.174  0.00  0.00    +0.000 OA
ENDBRANCH   1  24
BRANCH   9  25
ATOM     25  O7  UNL     1      73.743  61.789 105.463  0.00  0.00    +0.000 OA
ATOM     26  H20 UNL     1      73.259  61.865 106.330  0.00  0.00    +0.000 HD
ENDBRANCH   9  25
BRANCH  14  27
ATOM     27  O13 UNL     1      71.645  63.061 102.074  0.00  0.00    +0.000 OA
ATOM     28  C38 UNL     1      70.418  62.741 101.457  0.00  0.00    +0.000 C 
ENDBRANCH  14  27
BRANCH   6  29
ATOM     29  O3  UNL     1      76.839  62.044 101.742  0.00  0.00    +0.000 OA
BRANCH  29  30
ATOM     30  C7  UNL     1      78.091  62.569 101.386  0.00  0.00    +0.000 C 
ATOM     31  C8  UNL     1      78.602  63.767 102.111  0.00  0.00    +0.000 C 
ATOM     32  O4  UNL     1      78.803  62.034 100.493  0.00  0.00    +0.000 OA
ENDBRANCH  29  30
ENDBRANCH   6  29
BRANCH   8  33
ATOM     33  O5  UNL     1      76.697  62.183 105.393  0.00  0.00    +0.000 OA
BRANCH  33  34
ATOM     34  C11 UNL     1      77.840  62.962 105.619  0.00  0.00    +0.000 C 
ATOM     35  O6  UNL     1      78.988  62.481 105.408  0.00  0.00    +0.000 OA
BRANCH  34  36
ATOM     36  C12 UNL     1      77.697  64.336 106.148  0.00  0.00    +0.000 A 
ATOM     37  C13 UNL     1      77.796  64.588 107.531  0.00  0.00    +0.000 A 
ATOM     38  C14 UNL     1      77.634  65.885 108.031  0.00  0.00    +0.000 A 
ATOM     39  C15 UNL     1      77.380  66.944 107.153  0.00  0.00    +0.000 A 
ATOM     40  C16 UNL     1      77.290  66.704 105.779  0.00  0.00    +0.000 A 
ATOM     41  C17 UNL     1      77.444  65.409 105.277  0.00  0.00    +0.000 A 
ENDBRANCH  34  36
ENDBRANCH  33  34
ENDBRANCH   8  33
BRANCH  11  42
ATOM     42  O8  UNL     1      72.535  64.958 107.675  0.00  0.00    +0.000 OA
BRANCH  42  43
ATOM     43  C21 UNL     1      72.282  64.977 109.058  0.00  0.00    +0.000 C 
ATOM     44  O9  UNL     1      72.055  63.908 109.681  0.00  0.00    +0.000 OA
BRANCH  43  45
ATOM     45  C22 UNL     1      72.382  66.269 109.826  0.00  0.00    +0.000 C 
BRANCH  45  46
ATOM     46  O10 UNL     1      71.548  66.232 110.957  0.00  0.00    +0.000 OA
ATOM     47  H25 UNL     1      71.484  65.280 111.236  0.00  0.00    +0.000 HD
ENDBRANCH  45  46
BRANCH  45  48
ATOM     48  C23 UNL     1      73.843  66.591 110.229  0.00  0.00    +0.000 C 
BRANCH  48  49
ATOM     49  C29 UNL     1      74.407  67.770 109.454  0.00  0.00    +0.000 A 
ATOM     50  C30 UNL     1      73.905  68.109 108.182  0.00  0.00    +0.000 A 
ATOM     51  C31 UNL     1      74.421  69.206 107.486  0.00  0.00    +0.000 A 
ATOM     52  C32 UNL     1      75.435  69.980 108.057  0.00  0.00    +0.000 A 
ATOM     53  C33 UNL     1      75.934  69.656 109.318  0.00  0.00    +0.000 A 
ATOM     54  C34 UNL     1      75.426  68.554 110.012  0.00  0.00    +0.000 A 
ENDBRANCH  48  49
BRANCH  48  55
ATOM     55  N1  UNL     1      74.691  65.406 110.039  0.00  0.00    +0.000 N 
ATOM     56  C24 UNL     1      75.612  64.942 111.031  0.00  0.00    +0.000 C 
ATOM     57  O11 UNL     1      75.648  65.493 112.166  0.00  0.00    +0.000 OA
ATOM     58  H27 UNL     1      74.706  64.931 109.106  0.00  0.00    +0.000 HD
BRANCH  56  59
ATOM     59  O12 UNL     1      76.455  63.864 110.719  0.00  0.00    +0.000 OA
BRANCH  59  60
ATOM     60  C25 UNL     1      76.152  62.471 110.876  0.00  0.00    +0.000 C 
ATOM     61  C26 UNL     1      75.196  62.250 112.062  0.00  0.00    +0.000 C 
ATOM     62  C27 UNL     1      75.547  61.899 109.577  0.00  0.00    +0.000 C 
ATOM     63  C28 UNL     1      77.479  61.754 111.161  0.00  0.00    +0.000 C 
ENDBRANCH  59  60
ENDBRANCH  56  59
ENDBRANCH  48  55
ENDBRANCH  45  48
ENDBRANCH  43  45
ENDBRANCH  42  43
ENDBRANCH  11  42
TORSDOF 17
ENDMDL
MODEL 14
REMARK VINA RESULT:      -7.1      3.265      9.695
REMARK  Name = ./S3022.pdb
REMARK  27 active torsions:
REMARK  status: ('A' for Active; 'I' for Inactive)
REMARK    1  A    between atoms: C1_1  and  O1_2
REMARK    2  A    between atoms: O1_2  and  C2_3
REMARK    3  A    between atoms: C6_8  and  O3_9
REMARK    4  A    between atoms: O3_9  and  C7_10
REMARK    5  A    between atoms: C7_10  and  C8_11
REMARK    6  A    between atoms: C10_14  and  O5_15
REMARK    7  A    between atoms: O5_15  and  C11_16
REMARK    8  A    between atoms: C11_16  and  C12_18
REMARK    9  A    between atoms: C18_24  and  O7_25
REMARK   10  A    between atoms: C20_27  and  O8_28
REMARK   11  A    between atoms: O8_28  and  C21_29
REMARK   12  A    between atoms: C21_29  and  C22_31
REMARK   13  A    between atoms: C22_31  and  O10_32
REMARK   14  A    between atoms: C22_31  and  C23_33
REMARK   15  A    between atoms: C23_33  and  N1_34
REMARK   16  A    between atoms: C23_33  and  C29_42
REMARK   17  A    between atoms: C24_35  and  O12_37
REMARK   18  A    between atoms: O12_37  and  C25_38
REMARK   19  A    between atoms: C25_38  and  C26_39
REMARK   20  A    between atoms: C25_38  and  C27_40
REMARK   21  A    between atoms: C25_38  and  C28_41
REMARK   22  A    between atoms: C35_48  and  C45_60
REMARK   23  A    between atoms: C37_50  and  O13_51
REMARK   24  A    between atoms: O13_51  and  C38_52
REMARK   25  A    between atoms: C40_55  and  C41_56
REMARK   26  A    between atoms: C42_57  and  C43_58
REMARK   27  A    between atoms: C42_57  and  C44_59
REMARK                            x       y       z     vdW  Elec       q    Type
REMARK                         _______ _______ _______ _____ _____    ______ ____
ROOT
ATOM      1  C2  UNL     1      76.040  57.473 103.931  0.00  0.00    +0.000 C 
ATOM      2  C3  UNL     1      76.709  57.719 102.536  0.00  0.00    +0.000 C 
ATOM      3  C4  UNL     1      76.071  58.771 101.590  0.00  0.00    +0.000 C 
ATOM      4  O2  UNL     1      77.086  59.584 101.040  0.00  0.00    +0.000 OA
ATOM      5  C5  UNL     1      76.590  60.726 101.704  0.00  0.00    +0.000 C 
ATOM      6  C6  UNL     1      75.387  59.966 102.244  0.00  0.00    +0.000 C 
ATOM      7  C9  UNL     1      75.242  59.863 103.783  0.00  0.00    +0.000 C 
ATOM      8  C10 UNL     1      74.760  61.294 104.368  0.00  0.00    +0.000 C 
ATOM      9  C18 UNL     1      74.317  61.178 105.844  0.00  0.00    +0.000 C 
ATOM     10  C19 UNL     1      74.499  62.246 106.947  0.00  0.00    +0.000 C 
ATOM     11  C20 UNL     1      74.093  61.528 108.324  0.00  0.00    +0.000 C 
ATOM     12  C35 UNL     1      73.290  60.166 108.183  0.00  0.00    +0.000 C 
ATOM     13  C36 UNL     1      72.764  59.761 106.958  0.00  0.00    +0.000 C 
ATOM     14  C37 UNL     1      72.873  58.294 106.441  0.00  0.00    +0.000 C 
ATOM     15  C39 UNL     1      74.214  57.961 105.682  0.00  0.00    +0.000 C 
ATOM     16  O14 UNL     1      74.925  57.195 106.330  0.00  0.00    +0.000 OA
ATOM     17  C40 UNL     1      74.722  58.332 104.185  0.00  0.00    +0.000 C 
ATOM     18  C41 UNL     1      73.671  57.706 103.179  0.00  0.00    +0.000 C 
ATOM     19  C42 UNL     1      72.739  60.829 105.916  0.00  0.00    +0.000 C 
ATOM     20  C43 UNL     1      71.759  61.983 106.375  0.00  0.00    +0.000 C 
ATOM     21  C44 UNL     1      72.021  60.420 104.594  0.00  0.00    +0.000 C 
ATOM     22  C45 UNL     1      73.390  59.198 109.334  0.00  0.00    +0.000 C 
ENDROOT
BRANCH   1  24
ATOM     23  C1  UNL     1      78.284  57.981 104.417  0.00  0.00    +0.000 C 
ATOM     24  O1  UNL     1      76.991  57.761 104.954  0.00  0.00    +0.000 OA
ENDBRANCH   1  24
BRANCH   9  25
ATOM     25  O7  UNL     1      75.200  60.177 106.350  0.00  0.00    +0.000 OA
ATOM     26  H20 UNL     1      76.001  60.097 105.763  0.00  0.00    +0.000 HD
ENDBRANCH   9  25
BRANCH  14  27
ATOM     27  O13 UNL     1      71.763  57.894 105.659  0.00  0.00    +0.000 OA
ATOM     28  C38 UNL     1      71.243  56.657 106.095  0.00  0.00    +0.000 C 
ENDBRANCH  14  27
BRANCH   6  29
ATOM     29  O3  UNL     1      74.151  60.368 101.622  0.00  0.00    +0.000 OA
BRANCH  29  30
ATOM     30  C7  UNL     1      73.932  61.468 100.777  0.00  0.00    +0.000 C 
ATOM     31  C8  UNL     1      74.092  61.289  99.306  0.00  0.00    +0.000 C 
ATOM     32  O4  UNL     1      73.573  62.589 101.230  0.00  0.00    +0.000 OA
ENDBRANCH  29  30
ENDBRANCH   6  29
BRANCH   8  33
ATOM     33  O5  UNL     1      75.848  62.220 104.279  0.00  0.00    +0.000 OA
BRANCH  33  34
ATOM     34  C11 UNL     1      75.746  63.487 103.688  0.00  0.00    +0.000 C 
ATOM     35  O6  UNL     1      76.267  63.705 102.559  0.00  0.00    +0.000 OA
BRANCH  34  36
ATOM     36  C12 UNL     1      75.063  64.580 104.413  0.00  0.00    +0.000 A 
ATOM     37  C13 UNL     1      75.787  65.447 105.255  0.00  0.00    +0.000 A 
ATOM     38  C14 UNL     1      75.133  66.464 105.960  0.00  0.00    +0.000 A 
ATOM     39  C15 UNL     1      73.751  66.630 105.824  0.00  0.00    +0.000 A 
ATOM     40  C16 UNL     1      73.026  65.781 104.983  0.00  0.00    +0.000 A 
ATOM     41  C17 UNL     1      73.675  64.760 104.283  0.00  0.00    +0.000 A 
ENDBRANCH  34  36
ENDBRANCH  33  34
ENDBRANCH   8  33
BRANCH  11  42
ATOM     42  O8  UNL     1      73.406  62.424 109.200  0.00  0.00    +0.000 OA
BRANCH  42  43
ATOM     43  C21 UNL     1      74.055  63.128 110.230  0.00  0.00    +0.000 C 
ATOM     44  O9  UNL     1      74.751  62.516 111.080  0.00  0.00    +0.000 OA
BRANCH  43  45
ATOM     45  C22 UNL     1      74.005  64.632 110.263  0.00  0.00    +0.000 C 
BRANCH  45  46
ATOM     46  O10 UNL     1      74.362  65.162 109.011  0.00  0.00    +0.000 OA
ATOM     47  H25 UNL     1      73.829  65.993 108.889  0.00  0.00    +0.000 HD
ENDBRANCH  45  46
BRANCH  45  48
ATOM     48  C23 UNL     1      72.617  65.156 110.708  0.00  0.00    +0.000 C 
BRANCH  48  49
ATOM     49  C29 UNL     1      71.874  65.850 109.579  0.00  0.00    +0.000 A 
ATOM     50  C30 UNL     1      71.886  67.253 109.457  0.00  0.00    +0.000 A 
ATOM     51  C31 UNL     1      71.213  67.879 108.403  0.00  0.00    +0.000 A 
ATOM     52  C32 UNL     1      70.531  67.110 107.456  0.00  0.00    +0.000 A 
ATOM     53  C33 UNL     1      70.519  65.719 107.565  0.00  0.00    +0.000 A 
ATOM     54  C34 UNL     1      71.183  65.092 108.623  0.00  0.00    +0.000 A 
ENDBRANCH  48  49
BRANCH  48  55
ATOM     55  N1  UNL     1      72.765  66.067 111.852  0.00  0.00    +0.000 N 
ATOM     56  C24 UNL     1      72.824  65.611 113.207  0.00  0.00    +0.000 C 
ATOM     57  O11 UNL     1      72.855  64.374 113.456  0.00  0.00    +0.000 OA
ATOM     58  H27 UNL     1      72.726  67.102 111.691  0.00  0.00    +0.000 HD
BRANCH  56  59
ATOM     59  O12 UNL     1      72.862  66.562 114.239  0.00  0.00    +0.000 OA
BRANCH  59  60
ATOM     60  C25 UNL     1      73.998  66.902 115.045  0.00  0.00    +0.000 C 
ATOM     61  C26 UNL     1      74.447  65.698 115.893  0.00  0.00    +0.000 C 
ATOM     62  C27 UNL     1      75.157  67.406 114.161  0.00  0.00    +0.000 C 
ATOM     63  C28 UNL     1      73.559  68.038 115.980  0.00  0.00    +0.000 C 
ENDBRANCH  59  60
ENDBRANCH  56  59
ENDBRANCH  48  55
ENDBRANCH  45  48
ENDBRANCH  43  45
ENDBRANCH  42  43
ENDBRANCH  11  42
TORSDOF 17
ENDMDL
MODEL 15
REMARK VINA RESULT:      -7.1      2.164      5.203
REMARK  Name = ./S3022.pdb
REMARK  27 active torsions:
REMARK  status: ('A' for Active; 'I' for Inactive)
REMARK    1  A    between atoms: C1_1  and  O1_2
REMARK    2  A    between atoms: O1_2  and  C2_3
REMARK    3  A    between atoms: C6_8  and  O3_9
REMARK    4  A    between atoms: O3_9  and  C7_10
REMARK    5  A    between atoms: C7_10  and  C8_11
REMARK    6  A    between atoms: C10_14  and  O5_15
REMARK    7  A    between atoms: O5_15  and  C11_16
REMARK    8  A    between atoms: C11_16  and  C12_18
REMARK    9  A    between atoms: C18_24  and  O7_25
REMARK   10  A    between atoms: C20_27  and  O8_28
REMARK   11  A    between atoms: O8_28  and  C21_29
REMARK   12  A    between atoms: C21_29  and  C22_31
REMARK   13  A    between atoms: C22_31  and  O10_32
REMARK   14  A    between atoms: C22_31  and  C23_33
REMARK   15  A    between atoms: C23_33  and  N1_34
REMARK   16  A    between atoms: C23_33  and  C29_42
REMARK   17  A    between atoms: C24_35  and  O12_37
REMARK   18  A    between atoms: O12_37  and  C25_38
REMARK   19  A    between atoms: C25_38  and  C26_39
REMARK   20  A    between atoms: C25_38  and  C27_40
REMARK   21  A    between atoms: C25_38  and  C28_41
REMARK   22  A    between atoms: C35_48  and  C45_60
REMARK   23  A    between atoms: C37_50  and  O13_51
REMARK   24  A    between atoms: O13_51  and  C38_52
REMARK   25  A    between atoms: C40_55  and  C41_56
REMARK   26  A    between atoms: C42_57  and  C43_58
REMARK   27  A    between atoms: C42_57  and  C44_59
REMARK                            x       y       z     vdW  Elec       q    Type
REMARK                         _______ _______ _______ _____ _____    ______ ____
ROOT
ATOM      1  C2  UNL     1      77.742  64.499 108.397  0.00  0.00    +0.000 C 
ATOM      2  C3  UNL     1      78.404  63.738 109.596  0.00  0.00    +0.000 C 
ATOM      3  C4  UNL     1      77.480  63.176 110.709  0.00  0.00    +0.000 C 
ATOM      4  O2  UNL     1      77.876  61.858 111.027  0.00  0.00    +0.000 OA
ATOM      5  C5  UNL     1      76.658  61.331 110.548  0.00  0.00    +0.000 C 
ATOM      6  C6  UNL     1      76.088  62.718 110.288  0.00  0.00    +0.000 C 
ATOM      7  C9  UNL     1      75.708  63.069 108.827  0.00  0.00    +0.000 C 
ATOM      8  C10 UNL     1      74.342  62.295 108.434  0.00  0.00    +0.000 C 
ATOM      9  C18 UNL     1      73.756  62.828 107.106  0.00  0.00    +0.000 C 
ATOM     10  C19 UNL     1      73.005  62.005 106.035  0.00  0.00    +0.000 C 
ATOM     11  C20 UNL     1      72.836  62.979 104.770  0.00  0.00    +0.000 C 
ATOM     12  C35 UNL     1      73.085  64.522 105.049  0.00  0.00    +0.000 C 
ATOM     13  C36 UNL     1      73.196  65.013 106.349  0.00  0.00    +0.000 C 
ATOM     14  C37 UNL     1      74.286  66.047 106.767  0.00  0.00    +0.000 C 
ATOM     15  C39 UNL     1      75.675  65.416 107.163  0.00  0.00    +0.000 C 
ATOM     16  O14 UNL     1      76.545  65.673 106.332  0.00  0.00    +0.000 OA
ATOM     17  C40 UNL     1      76.159  64.640 108.505  0.00  0.00    +0.000 C 
ATOM     18  C41 UNL     1      75.956  65.646 109.711  0.00  0.00    +0.000 C 
ATOM     19  C42 UNL     1      72.751  64.059 107.407  0.00  0.00    +0.000 C 
ATOM     20  C43 UNL     1      71.200  63.788 107.245  0.00  0.00    +0.000 C 
ATOM     21  C44 UNL     1      72.738  64.656 108.847  0.00  0.00    +0.000 C 
ATOM     22  C45 UNL     1      73.504  65.365 103.872  0.00  0.00    +0.000 C 
ENDROOT
BRANCH   1  24
ATOM     23  C1  UNL     1      79.472  63.763 106.985  0.00  0.00    +0.000 C 
ATOM     24  O1  UNL     1      78.071  63.822 107.185  0.00  0.00    +0.000 OA
ENDBRANCH   1  24
BRANCH   9  25
ATOM     25  O7  UNL     1      74.931  63.150 106.362  0.00  0.00    +0.000 OA
ATOM     26  H20 UNL     1      75.525  63.744 106.897  0.00  0.00    +0.000 HD
ENDBRANCH   9  25
BRANCH  14  27
ATOM     27  O13 UNL     1      73.852  66.936 107.779  0.00  0.00    +0.000 OA
ATOM     28  C38 UNL     1      73.033  67.957 107.253  0.00  0.00    +0.000 C 
ENDBRANCH  14  27
BRANCH   6  29
ATOM     29  O3  UNL     1      75.035  63.067 111.207  0.00  0.00    +0.000 OA
BRANCH  29  30
ATOM     30  C7  UNL     1      74.963  62.782 112.580  0.00  0.00    +0.000 C 
ATOM     31  C8  UNL     1      75.503  63.777 113.551  0.00  0.00    +0.000 C 
ATOM     32  O4  UNL     1      74.426  61.725 113.010  0.00  0.00    +0.000 OA
ENDBRANCH  29  30
ENDBRANCH   6  29
BRANCH   8  33
ATOM     33  O5  UNL     1      74.625  60.899 108.291  0.00  0.00    +0.000 OA
BRANCH  33  34
ATOM     34  C11 UNL     1      73.760  59.881 108.716  0.00  0.00    +0.000 C 
ATOM     35  O6  UNL     1      73.562  59.690 109.949  0.00  0.00    +0.000 OA
BRANCH  34  36
ATOM     36  C12 UNL     1      73.114  59.004 107.716  0.00  0.00    +0.000 A 
ATOM     37  C13 UNL     1      71.711  58.890 107.660  0.00  0.00    +0.000 A 
ATOM     38  C14 UNL     1      71.104  58.038 106.729  0.00  0.00    +0.000 A 
ATOM     39  C15 UNL     1      71.893  57.300 105.841  0.00  0.00    +0.000 A 
ATOM     40  C16 UNL     1      73.285  57.415 105.884  0.00  0.00    +0.000 A 
ATOM     41  C17 UNL     1      73.895  58.258 106.816  0.00  0.00    +0.000 A 
ENDBRANCH  34  36
ENDBRANCH  33  34
ENDBRANCH   8  33
BRANCH  11  42
ATOM     42  O8  UNL     1      71.577  62.787 104.123  0.00  0.00    +0.000 OA
BRANCH  42  43
ATOM     43  C21 UNL     1      71.349  61.757 103.193  0.00  0.00    +0.000 C 
ATOM     44  O9  UNL     1      71.551  60.557 103.509  0.00  0.00    +0.000 OA
BRANCH  43  45
ATOM     45  C22 UNL     1      70.764  62.075 101.844  0.00  0.00    +0.000 C 
BRANCH  45  46
ATOM     46  O10 UNL     1      69.961  63.227 101.916  0.00  0.00    +0.000 OA
ATOM     47  H25 UNL     1      70.579  64.004 101.969  0.00  0.00    +0.000 HD
ENDBRANCH  45  46
BRANCH  45  48
ATOM     48  C23 UNL     1      71.859  62.234 100.760  0.00  0.00    +0.000 C 
BRANCH  48  49
ATOM     49  C29 UNL     1      71.354  61.874  99.373  0.00  0.00    +0.000 A 
ATOM     50  C30 UNL     1      70.080  61.301  99.192  0.00  0.00    +0.000 A 
ATOM     51  C31 UNL     1      69.619  60.990  97.908  0.00  0.00    +0.000 A 
ATOM     52  C32 UNL     1      70.420  61.257  96.796  0.00  0.00    +0.000 A 
ATOM     53  C33 UNL     1      71.681  61.830  96.965  0.00  0.00    +0.000 A 
ATOM     54  C34 UNL     1      72.148  62.133  98.246  0.00  0.00    +0.000 A 
ENDBRANCH  48  49
BRANCH  48  55
ATOM     55  N1  UNL     1      73.029  61.413 101.102  0.00  0.00    +0.000 N 
ATOM     56  C24 UNL     1      74.343  61.960 101.263  0.00  0.00    +0.000 C 
ATOM     57  O11 UNL     1      74.517  63.208 101.215  0.00  0.00    +0.000 OA
ATOM     58  H27 UNL     1      72.932  60.371 101.133  0.00  0.00    +0.000 HD
BRANCH  56  59
ATOM     59  O12 UNL     1      75.416  61.083 101.488  0.00  0.00    +0.000 OA
BRANCH  59  60
ATOM     60  C25 UNL     1      76.025  60.785 102.751  0.00  0.00    +0.000 C 
ATOM     61  C26 UNL     1      76.470  62.076 103.461  0.00  0.00    +0.000 C 
ATOM     62  C27 UNL     1      75.056  59.982 103.642  0.00  0.00    +0.000 C 
ATOM     63  C28 UNL     1      77.260  59.921 102.459  0.00  0.00    +0.000 C 
ENDBRANCH  59  60
ENDBRANCH  56  59
ENDBRANCH  48  55
ENDBRANCH  45  48
ENDBRANCH  43  45
ENDBRANCH  42  43
ENDBRANCH  11  42
TORSDOF 17
ENDMDL
MODEL 16
REMARK VINA RESULT:      -7.0      3.799      7.699
REMARK  Name = ./S3022.pdb
REMARK  27 active torsions:
REMARK  status: ('A' for Active; 'I' for Inactive)
REMARK    1  A    between atoms: C1_1  and  O1_2
REMARK    2  A    between atoms: O1_2  and  C2_3
REMARK    3  A    between atoms: C6_8  and  O3_9
REMARK    4  A    between atoms: O3_9  and  C7_10
REMARK    5  A    between atoms: C7_10  and  C8_11
REMARK    6  A    between atoms: C10_14  and  O5_15
REMARK    7  A    between atoms: O5_15  and  C11_16
REMARK    8  A    between atoms: C11_16  and  C12_18
REMARK    9  A    between atoms: C18_24  and  O7_25
REMARK   10  A    between atoms: C20_27  and  O8_28
REMARK   11  A    between atoms: O8_28  and  C21_29
REMARK   12  A    between atoms: C21_29  and  C22_31
REMARK   13  A    between atoms: C22_31  and  O10_32
REMARK   14  A    between atoms: C22_31  and  C23_33
REMARK   15  A    between atoms: C23_33  and  N1_34
REMARK   16  A    between atoms: C23_33  and  C29_42
REMARK   17  A    between atoms: C24_35  and  O12_37
REMARK   18  A    between atoms: O12_37  and  C25_38
REMARK   19  A    between atoms: C25_38  and  C26_39
REMARK   20  A    between atoms: C25_38  and  C27_40
REMARK   21  A    between atoms: C25_38  and  C28_41
REMARK   22  A    between atoms: C35_48  and  C45_60
REMARK   23  A    between atoms: C37_50  and  O13_51
REMARK   24  A    between atoms: O13_51  and  C38_52
REMARK   25  A    between atoms: C40_55  and  C41_56
REMARK   26  A    between atoms: C42_57  and  C43_58
REMARK   27  A    between atoms: C42_57  and  C44_59
REMARK                            x       y       z     vdW  Elec       q    Type
REMARK                         _______ _______ _______ _____ _____    ______ ____
ROOT
ATOM      1  C2  UNL     1      72.940  59.154 105.671  0.00  0.00    +0.000 C 
ATOM      2  C3  UNL     1      71.628  59.742 106.293  0.00  0.00    +0.000 C 
ATOM      3  C4  UNL     1      71.231  61.197 105.929  0.00  0.00    +0.000 C 
ATOM      4  O2  UNL     1      69.852  61.244 105.623  0.00  0.00    +0.000 OA
ATOM      5  C5  UNL     1      70.119  61.593 104.282  0.00  0.00    +0.000 C 
ATOM      6  C6  UNL     1      71.615  61.694 104.541  0.00  0.00    +0.000 C 
ATOM      7  C9  UNL     1      72.541  60.737 103.747  0.00  0.00    +0.000 C 
ATOM      8  C10 UNL     1      72.643  61.248 102.214  0.00  0.00    +0.000 C 
ATOM      9  C18 UNL     1      73.771  60.517 101.452  0.00  0.00    +0.000 C 
ATOM     10  C19 UNL     1      73.765  60.118  99.959  0.00  0.00    +0.000 C 
ATOM     11  C20 UNL     1      75.052  59.181  99.749  0.00  0.00    +0.000 C 
ATOM     12  C35 UNL     1      76.135  59.225 100.908  0.00  0.00    +0.000 C 
ATOM     13  C36 UNL     1      76.084  60.195 101.908  0.00  0.00    +0.000 C 
ATOM     14  C37 UNL     1      76.317  59.862 103.414  0.00  0.00    +0.000 C 
ATOM     15  C39 UNL     1      75.034  59.369 104.185  0.00  0.00    +0.000 C 
ATOM     16  O14 UNL     1      75.114  58.180 104.486  0.00  0.00    +0.000 OA
ATOM     17  C40 UNL     1      73.745  60.178 104.753  0.00  0.00    +0.000 C 
ATOM     18  C41 UNL     1      74.296  61.248 105.783  0.00  0.00    +0.000 C 
ATOM     19  C42 UNL     1      75.160  61.330 101.618  0.00  0.00    +0.000 C 
ATOM     20  C43 UNL     1      75.691  62.126 100.357  0.00  0.00    +0.000 C 
ATOM     21  C44 UNL     1      75.209  62.484 102.665  0.00  0.00    +0.000 C 
ATOM     22  C45 UNL     1      77.017  58.013 101.059  0.00  0.00    +0.000 C 
ENDROOT
BRANCH   1  24
ATOM     23  C1  UNL     1      71.933  57.029 105.687  0.00  0.00    +0.000 C 
ATOM     24  O1  UNL     1      72.609  57.998 104.904  0.00  0.00    +0.000 OA
ENDBRANCH   1  24
BRANCH   9  25
ATOM     25  O7  UNL     1      73.739  59.214 102.035  0.00  0.00    +0.000 OA
ATOM     26  H20 UNL     1      72.812  58.989 102.322  0.00  0.00    +0.000 HD
ENDBRANCH   9  25
BRANCH  14  27
ATOM     27  O13 UNL     1      76.937  60.916 104.128  0.00  0.00    +0.000 OA
ATOM     28  C38 UNL     1      78.331  60.934 103.915  0.00  0.00    +0.000 C 
ENDBRANCH  14  27
BRANCH   6  29
ATOM     29  O3  UNL     1      72.097  63.052 104.498  0.00  0.00    +0.000 OA
BRANCH  29  30
ATOM     30  C7  UNL     1      72.023  64.021 105.511  0.00  0.00    +0.000 C 
ATOM     31  C8  UNL     1      73.286  64.622 106.026  0.00  0.00    +0.000 C 
ATOM     32  O4  UNL     1      70.916  64.417 105.969  0.00  0.00    +0.000 OA
ENDBRANCH  29  30
ENDBRANCH   6  29
BRANCH   8  33
ATOM     33  O5  UNL     1      71.396  60.994 101.558  0.00  0.00    +0.000 OA
BRANCH  33  34
ATOM     34  C11 UNL     1      70.770  61.905 100.697  0.00  0.00    +0.000 C 
ATOM     35  O6  UNL     1      70.968  63.145 100.831  0.00  0.00    +0.000 OA
BRANCH  34  36
ATOM     36  C12 UNL     1      69.841  61.411  99.658  0.00  0.00    +0.000 A 
ATOM     37  C13 UNL     1      70.214  61.415  98.299  0.00  0.00    +0.000 A 
ATOM     38  C14 UNL     1      69.322  60.971  97.316  0.00  0.00    +0.000 A 
ATOM     39  C15 UNL     1      68.053  60.510  97.682  0.00  0.00    +0.000 A 
ATOM     40  C16 UNL     1      67.679  60.493  99.029  0.00  0.00    +0.000 A 
ATOM     41  C17 UNL     1      68.564  60.942 100.012  0.00  0.00    +0.000 A 
ENDBRANCH  34  36
ENDBRANCH  33  34
ENDBRANCH   8  33
BRANCH  11  42
ATOM     42  O8  UNL     1      75.669  59.412  98.481  0.00  0.00    +0.000 OA
BRANCH  42  43
ATOM     43  C21 UNL     1      75.886  58.387  97.543  0.00  0.00    +0.000 C 
ATOM     44  O9  UNL     1      77.043  57.932  97.352  0.00  0.00    +0.000 OA
BRANCH  43  45
ATOM     45  C22 UNL     1      74.720  57.755  96.832  0.00  0.00    +0.000 C 
BRANCH  45  46
ATOM     46  O10 UNL     1      75.084  57.383  95.527  0.00  0.00    +0.000 OA
ATOM     47  H25 UNL     1      74.792  56.441  95.404  0.00  0.00    +0.000 HD
ENDBRANCH  45  46
BRANCH  45  48
ATOM     48  C23 UNL     1      74.154  56.541  97.613  0.00  0.00    +0.000 C 
BRANCH  48  49
ATOM     49  C29 UNL     1      72.791  56.830  98.217  0.00  0.00    +0.000 A 
ATOM     50  C30 UNL     1      71.771  57.429  97.451  0.00  0.00    +0.000 A 
ATOM     51  C31 UNL     1      70.514  57.674  98.014  0.00  0.00    +0.000 A 
ATOM     52  C32 UNL     1      70.261  57.314  99.340  0.00  0.00    +0.000 A 
ATOM     53  C33 UNL     1      71.263  56.715 100.104  0.00  0.00    +0.000 A 
ATOM     54  C34 UNL     1      72.522  56.477  99.547  0.00  0.00    +0.000 A 
ENDBRANCH  48  49
BRANCH  48  55
ATOM     55  N1  UNL     1      75.099  56.134  98.663  0.00  0.00    +0.000 N 
ATOM     56  C24 UNL     1      75.748  54.859  98.672  0.00  0.00    +0.000 C 
ATOM     57  O11 UNL     1      75.603  54.069  97.699  0.00  0.00    +0.000 OA
ATOM     58  H27 UNL     1      75.234  56.752  99.498  0.00  0.00    +0.000 HD
BRANCH  56  59
ATOM     59  O12 UNL     1      76.553  54.519  99.771  0.00  0.00    +0.000 OA
BRANCH  59  60
ATOM     60  C25 UNL     1      77.980  54.375  99.773  0.00  0.00    +0.000 C 
ATOM     61  C26 UNL     1      78.626  55.326  98.748  0.00  0.00    +0.000 C 
ATOM     62  C27 UNL     1      78.548  54.631 101.183  0.00  0.00    +0.000 C 
ATOM     63  C28 UNL     1      78.284  52.925  99.372  0.00  0.00    +0.000 C 
ENDBRANCH  59  60
ENDBRANCH  56  59
ENDBRANCH  48  55
ENDBRANCH  45  48
ENDBRANCH  43  45
ENDBRANCH  42  43
ENDBRANCH  11  42
TORSDOF 17
ENDMDL
MODEL 17
REMARK VINA RESULT:      -7.0      4.204      8.028
REMARK  Name = ./S3022.pdb
REMARK  27 active torsions:
REMARK  status: ('A' for Active; 'I' for Inactive)
REMARK    1  A    between atoms: C1_1  and  O1_2
REMARK    2  A    between atoms: O1_2  and  C2_3
REMARK    3  A    between atoms: C6_8  and  O3_9
REMARK    4  A    between atoms: O3_9  and  C7_10
REMARK    5  A    between atoms: C7_10  and  C8_11
REMARK    6  A    between atoms: C10_14  and  O5_15
REMARK    7  A    between atoms: O5_15  and  C11_16
REMARK    8  A    between atoms: C11_16  and  C12_18
REMARK    9  A    between atoms: C18_24  and  O7_25
REMARK   10  A    between atoms: C20_27  and  O8_28
REMARK   11  A    between atoms: O8_28  and  C21_29
REMARK   12  A    between atoms: C21_29  and  C22_31
REMARK   13  A    between atoms: C22_31  and  O10_32
REMARK   14  A    between atoms: C22_31  and  C23_33
REMARK   15  A    between atoms: C23_33  and  N1_34
REMARK   16  A    between atoms: C23_33  and  C29_42
REMARK   17  A    between atoms: C24_35  and  O12_37
REMARK   18  A    between atoms: O12_37  and  C25_38
REMARK   19  A    between atoms: C25_38  and  C26_39
REMARK   20  A    between atoms: C25_38  and  C27_40
REMARK   21  A    between atoms: C25_38  and  C28_41
REMARK   22  A    between atoms: C35_48  and  C45_60
REMARK   23  A    between atoms: C37_50  and  O13_51
REMARK   24  A    between atoms: O13_51  and  C38_52
REMARK   25  A    between atoms: C40_55  and  C41_56
REMARK   26  A    between atoms: C42_57  and  C43_58
REMARK   27  A    between atoms: C42_57  and  C44_59
REMARK                            x       y       z     vdW  Elec       q    Type
REMARK                         _______ _______ _______ _____ _____    ______ ____
ROOT
ATOM      1  C2  UNL     1      72.723  58.601 106.048  0.00  0.00    +0.000 C 
ATOM      2  C3  UNL     1      71.864  59.704 106.756  0.00  0.00    +0.000 C 
ATOM      3  C4  UNL     1      71.999  61.169 106.264  0.00  0.00    +0.000 C 
ATOM      4  O2  UNL     1      70.715  61.742 106.137  0.00  0.00    +0.000 OA
ATOM      5  C5  UNL     1      70.862  61.866 104.739  0.00  0.00    +0.000 C 
ATOM      6  C6  UNL     1      72.302  61.379 104.785  0.00  0.00    +0.000 C 
ATOM      7  C9  UNL     1      72.639  60.081 104.006  0.00  0.00    +0.000 C 
ATOM      8  C10 UNL     1      72.667  60.407 102.420  0.00  0.00    +0.000 C 
ATOM      9  C18 UNL     1      73.280  59.237 101.617  0.00  0.00    +0.000 C 
ATOM     10  C19 UNL     1      72.866  58.776 100.201  0.00  0.00    +0.000 C 
ATOM     11  C20 UNL     1      73.639  57.392  99.946  0.00  0.00    +0.000 C 
ATOM     12  C35 UNL     1      74.837  57.077 100.939  0.00  0.00    +0.000 C 
ATOM     13  C36 UNL     1      75.333  58.051 101.804  0.00  0.00    +0.000 C 
ATOM     14  C37 UNL     1      75.674  57.753 103.296  0.00  0.00    +0.000 C 
ATOM     15  C39 UNL     1      74.453  57.865 104.286  0.00  0.00    +0.000 C 
ATOM     16  O14 UNL     1      74.119  56.765 104.724  0.00  0.00    +0.000 OA
ATOM     17  C40 UNL     1      73.689  59.156 104.909  0.00  0.00    +0.000 C 
ATOM     18  C41 UNL     1      74.776  59.983 105.713  0.00  0.00    +0.000 C 
ATOM     19  C42 UNL     1      74.880  59.438 101.494  0.00  0.00    +0.000 C 
ATOM     20  C43 UNL     1      75.453  59.871 100.084  0.00  0.00    +0.000 C 
ATOM     21  C44 UNL     1      75.547  60.543 102.369  0.00  0.00    +0.000 C 
ATOM     22  C45 UNL     1      75.198  55.626 101.127  0.00  0.00    +0.000 C 
ENDROOT
BRANCH   1  24
ATOM     23  C1  UNL     1      71.150  56.911 106.490  0.00  0.00    +0.000 C 
ATOM     24  O1  UNL     1      71.848  57.626 105.485  0.00  0.00    +0.000 OA
ENDBRANCH   1  24
BRANCH   9  25
ATOM     25  O7  UNL     1      72.850  58.097 102.361  0.00  0.00    +0.000 OA
ATOM     26  H20 UNL     1      72.812  58.315 103.332  0.00  0.00    +0.000 HD
ENDBRANCH   9  25
BRANCH  14  27
ATOM     27  O13 UNL     1      76.763  58.516 103.783  0.00  0.00    +0.000 OA
ATOM     28  C38 UNL     1      77.822  57.690 104.212  0.00  0.00    +0.000 C 
ENDBRANCH  14  27
BRANCH   6  29
ATOM     29  O3  UNL     1      73.253  62.425 104.506  0.00  0.00    +0.000 OA
BRANCH  29  30
ATOM     30  C7  UNL     1      72.995  63.794 104.325  0.00  0.00    +0.000 C 
ATOM     31  C8  UNL     1      72.893  64.673 105.524  0.00  0.00    +0.000 C 
ATOM     32  O4  UNL     1      72.882  64.298 103.174  0.00  0.00    +0.000 OA
ENDBRANCH  29  30
ENDBRANCH   6  29
BRANCH   8  33
ATOM     33  O5  UNL     1      71.326  60.629 101.971  0.00  0.00    +0.000 OA
BRANCH  33  34
ATOM     34  C11 UNL     1      70.978  61.571 100.993  0.00  0.00    +0.000 C 
ATOM     35  O6  UNL     1      71.564  62.689 100.952  0.00  0.00    +0.000 OA
BRANCH  34  36
ATOM     36  C12 UNL     1      69.890  61.268 100.038  0.00  0.00    +0.000 A 
ATOM     37  C13 UNL     1      68.617  60.878 100.498  0.00  0.00    +0.000 A 
ATOM     38  C14 UNL     1      67.598  60.566  99.590  0.00  0.00    +0.000 A 
ATOM     39  C15 UNL     1      67.839  60.651  98.215  0.00  0.00    +0.000 A 
ATOM     40  C16 UNL     1      69.096  61.047  97.750  0.00  0.00    +0.000 A 
ATOM     41  C17 UNL     1      70.118  61.352  98.653  0.00  0.00    +0.000 A 
ENDBRANCH  34  36
ENDBRANCH  33  34
ENDBRANCH   8  33
BRANCH  11  42
ATOM     42  O8  UNL     1      74.071  57.274  98.589  0.00  0.00    +0.000 OA
BRANCH  42  43
ATOM     43  C21 UNL     1      73.393  57.882  97.519  0.00  0.00    +0.000 C 
ATOM     44  O9  UNL     1      73.734  59.023  97.113  0.00  0.00    +0.000 OA
BRANCH  43  45
ATOM     45  C22 UNL     1      72.316  57.131  96.783  0.00  0.00    +0.000 C 
BRANCH  45  46
ATOM     46  O10 UNL     1      71.979  55.955  97.474  0.00  0.00    +0.000 OA
ATOM     47  H25 UNL     1      72.643  55.265  97.209  0.00  0.00    +0.000 HD
ENDBRANCH  45  46
BRANCH  45  48
ATOM     48  C23 UNL     1      71.061  58.006  96.540  0.00  0.00    +0.000 C 
BRANCH  48  49
ATOM     49  C29 UNL     1      69.885  57.579  97.402  0.00  0.00    +0.000 A 
ATOM     50  C30 UNL     1      69.972  57.598  98.808  0.00  0.00    +0.000 A 
ATOM     51  C31 UNL     1      68.877  57.218  99.591  0.00  0.00    +0.000 A 
ATOM     52  C32 UNL     1      67.684  56.827  98.978  0.00  0.00    +0.000 A 
ATOM     53  C33 UNL     1      67.587  56.811  97.587  0.00  0.00    +0.000 A 
ATOM     54  C34 UNL     1      68.682  57.181  96.802  0.00  0.00    +0.000 A 
ENDBRANCH  48  49
BRANCH  48  55
ATOM     55  N1  UNL     1      70.688  57.969  95.119  0.00  0.00    +0.000 N 
ATOM     56  C24 UNL     1      70.549  59.148  94.319  0.00  0.00    +0.000 C 
ATOM     57  O11 UNL     1      70.850  60.275  94.800  0.00  0.00    +0.000 OA
ATOM     58  H27 UNL     1      70.412  57.055  94.686  0.00  0.00    +0.000 HD
BRANCH  56  59
ATOM     59  O12 UNL     1      70.088  59.019  93.000  0.00  0.00    +0.000 OA
BRANCH  59  60
ATOM     60  C25 UNL     1      68.758  58.673  92.589  0.00  0.00    +0.000 C 
ATOM     61  C26 UNL     1      68.585  57.145  92.531  0.00  0.00    +0.000 C 
ATOM     62  C27 UNL     1      67.718  59.302  93.538  0.00  0.00    +0.000 C 
ATOM     63  C28 UNL     1      68.560  59.255  91.183  0.00  0.00    +0.000 C 
ENDBRANCH  59  60
ENDBRANCH  56  59
ENDBRANCH  48  55
ENDBRANCH  45  48
ENDBRANCH  43  45
ENDBRANCH  42  43
ENDBRANCH  11  42
TORSDOF 17
ENDMDL
MODEL 18
REMARK VINA RESULT:      -7.0      2.683      9.486
REMARK  Name = ./S3022.pdb
REMARK  27 active torsions:
REMARK  status: ('A' for Active; 'I' for Inactive)
REMARK    1  A    between atoms: C1_1  and  O1_2
REMARK    2  A    between atoms: O1_2  and  C2_3
REMARK    3  A    between atoms: C6_8  and  O3_9
REMARK    4  A    between atoms: O3_9  and  C7_10
REMARK    5  A    between atoms: C7_10  and  C8_11
REMARK    6  A    between atoms: C10_14  and  O5_15
REMARK    7  A    between atoms: O5_15  and  C11_16
REMARK    8  A    between atoms: C11_16  and  C12_18
REMARK    9  A    between atoms: C18_24  and  O7_25
REMARK   10  A    between atoms: C20_27  and  O8_28
REMARK   11  A    between atoms: O8_28  and  C21_29
REMARK   12  A    between atoms: C21_29  and  C22_31
REMARK   13  A    between atoms: C22_31  and  O10_32
REMARK   14  A    between atoms: C22_31  and  C23_33
REMARK   15  A    between atoms: C23_33  and  N1_34
REMARK   16  A    between atoms: C23_33  and  C29_42
REMARK   17  A    between atoms: C24_35  and  O12_37
REMARK   18  A    between atoms: O12_37  and  C25_38
REMARK   19  A    between atoms: C25_38  and  C26_39
REMARK   20  A    between atoms: C25_38  and  C27_40
REMARK   21  A    between atoms: C25_38  and  C28_41
REMARK   22  A    between atoms: C35_48  and  C45_60
REMARK   23  A    between atoms: C37_50  and  O13_51
REMARK   24  A    between atoms: O13_51  and  C38_52
REMARK   25  A    between atoms: C40_55  and  C41_56
REMARK   26  A    between atoms: C42_57  and  C43_58
REMARK   27  A    between atoms: C42_57  and  C44_59
REMARK                            x       y       z     vdW  Elec       q    Type
REMARK                         _______ _______ _______ _____ _____    ______ ____
ROOT
ATOM      1  C2  UNL     1      75.120  61.604 100.032  0.00  0.00    +0.000 C 
ATOM      2  C3  UNL     1      74.824  60.134  99.578  0.00  0.00    +0.000 C 
ATOM      3  C4  UNL     1      74.895  59.008 100.642  0.00  0.00    +0.000 C 
ATOM      4  O2  UNL     1      73.777  58.157 100.502  0.00  0.00    +0.000 OA
ATOM      5  C5  UNL     1      73.278  58.533 101.767  0.00  0.00    +0.000 C 
ATOM      6  C6  UNL     1      74.507  59.378 102.069  0.00  0.00    +0.000 C 
ATOM      7  C9  UNL     1      74.288  60.894 102.306  0.00  0.00    +0.000 C 
ATOM      8  C10 UNL     1      73.622  61.112 103.765  0.00  0.00    +0.000 C 
ATOM      9  C18 UNL     1      73.650  62.602 104.178  0.00  0.00    +0.000 C 
ATOM     10  C19 UNL     1      72.578  63.348 105.006  0.00  0.00    +0.000 C 
ATOM     11  C20 UNL     1      72.972  64.902 104.935  0.00  0.00    +0.000 C 
ATOM     12  C35 UNL     1      74.444  65.220 104.432  0.00  0.00    +0.000 C 
ATOM     13  C36 UNL     1      75.397  64.211 104.305  0.00  0.00    +0.000 C 
ATOM     14  C37 UNL     1      76.347  64.104 103.072  0.00  0.00    +0.000 C 
ATOM     15  C39 UNL     1      75.741  63.333 101.839  0.00  0.00    +0.000 C 
ATOM     16  O14 UNL     1      75.516  64.089 100.895  0.00  0.00    +0.000 OA
ATOM     17  C40 UNL     1      75.514  61.747 101.569  0.00  0.00    +0.000 C 
ATOM     18  C41 UNL     1      76.940  61.062 101.653  0.00  0.00    +0.000 C 
ATOM     19  C42 UNL     1      75.025  62.925 104.965  0.00  0.00    +0.000 C 
ATOM     20  C43 UNL     1      74.933  63.151 106.529  0.00  0.00    +0.000 C 
ATOM     21  C44 UNL     1      76.148  61.845 104.947  0.00  0.00    +0.000 C 
ATOM     22  C45 UNL     1      74.672  66.574 103.812  0.00  0.00    +0.000 C 
ENDROOT
BRANCH   1  24
ATOM     23  C1  UNL     1      73.049  61.737  98.926  0.00  0.00    +0.000 C 
ATOM     24  O1  UNL     1      73.972  62.409  99.765  0.00  0.00    +0.000 OA
ENDBRANCH   1  24
BRANCH   9  25
ATOM     25  O7  UNL     1      73.475  63.268 102.928  0.00  0.00    +0.000 OA
ATOM     26  H20 UNL     1      73.620  64.248 103.037  0.00  0.00    +0.000 HD
ENDBRANCH   9  25
BRANCH  14  27
ATOM     27  O13 UNL     1      77.621  63.577 103.394  0.00  0.00    +0.000 OA
ATOM     28  C38 UNL     1      78.482  64.578 103.892  0.00  0.00    +0.000 C 
ENDBRANCH  14  27
BRANCH   6  29
ATOM     29  O3  UNL     1      75.343  58.799 103.091  0.00  0.00    +0.000 OA
BRANCH  29  30
ATOM     30  C7  UNL     1      74.945  58.001 104.176  0.00  0.00    +0.000 C 
ATOM     31  C8  UNL     1      75.391  58.376 105.547  0.00  0.00    +0.000 C 
ATOM     32  O4  UNL     1      74.196  56.997 104.020  0.00  0.00    +0.000 OA
ENDBRANCH  29  30
ENDBRANCH   6  29
BRANCH   8  33
ATOM     33  O5  UNL     1      72.263  60.665 103.725  0.00  0.00    +0.000 OA
BRANCH  33  34
ATOM     34  C11 UNL     1      71.447  60.548 104.859  0.00  0.00    +0.000 C 
ATOM     35  O6  UNL     1      70.326  61.128 104.897  0.00  0.00    +0.000 OA
BRANCH  34  36
ATOM     36  C12 UNL     1      71.925  59.780 106.029  0.00  0.00    +0.000 A 
ATOM     37  C13 UNL     1      71.740  58.385 106.097  0.00  0.00    +0.000 A 
ATOM     38  C14 UNL     1      72.170  57.665 107.218  0.00  0.00    +0.000 A 
ATOM     39  C15 UNL     1      72.796  58.330 108.276  0.00  0.00    +0.000 A 
ATOM     40  C16 UNL     1      72.993  59.713 108.212  0.00  0.00    +0.000 A 
ATOM     41  C17 UNL     1      72.558  60.436 107.099  0.00  0.00    +0.000 A 
ENDBRANCH  34  36
ENDBRANCH  33  34
ENDBRANCH   8  33
BRANCH  11  42
ATOM     42  O8  UNL     1      72.714  65.567 106.174  0.00  0.00    +0.000 OA
BRANCH  42  43
ATOM     43  C21 UNL     1      71.439  65.605 106.764  0.00  0.00    +0.000 C 
ATOM     44  O9  UNL     1      70.580  64.731 106.484  0.00  0.00    +0.000 OA
BRANCH  43  45
ATOM     45  C22 UNL     1      71.125  66.636 107.816  0.00  0.00    +0.000 C 
BRANCH  45  46
ATOM     46  O10 UNL     1      69.777  66.543 108.205  0.00  0.00    +0.000 OA
ATOM     47  H25 UNL     1      69.625  65.603 108.492  0.00  0.00    +0.000 HD
ENDBRANCH  45  46
BRANCH  45  48
ATOM     48  C23 UNL     1      72.063  66.516 109.043  0.00  0.00    +0.000 C 
BRANCH  48  49
ATOM     49  C29 UNL     1      72.990  67.711 109.178  0.00  0.00    +0.000 A 
ATOM     50  C30 UNL     1      73.998  67.740 110.163  0.00  0.00    +0.000 A 
ATOM     51  C31 UNL     1      74.856  68.839 110.266  0.00  0.00    +0.000 A 
ATOM     52  C32 UNL     1      74.724  69.913 109.383  0.00  0.00    +0.000 A 
ATOM     53  C33 UNL     1      73.733  69.891 108.401  0.00  0.00    +0.000 A 
ATOM     54  C34 UNL     1      72.868  68.798 108.302  0.00  0.00    +0.000 A 
ENDBRANCH  48  49
BRANCH  48  55
ATOM     55  N1  UNL     1      72.845  65.274 108.960  0.00  0.00    +0.000 N 
ATOM     56  C24 UNL     1      72.749  64.228 109.932  0.00  0.00    +0.000 C 
ATOM     57  O11 UNL     1      71.893  64.301 110.856  0.00  0.00    +0.000 OA
ATOM     58  H27 UNL     1      73.580  65.180 108.219  0.00  0.00    +0.000 HD
BRANCH  56  59
ATOM     59  O12 UNL     1      73.611  63.125 109.825  0.00  0.00    +0.000 OA
BRANCH  59  60
ATOM     60  C25 UNL     1      74.918  63.003 110.402  0.00  0.00    +0.000 C 
ATOM     61  C26 UNL     1      75.801  64.202 110.012  0.00  0.00    +0.000 C 
ATOM     62  C27 UNL     1      74.822  62.876 111.936  0.00  0.00    +0.000 C 
ATOM     63  C28 UNL     1      75.539  61.718 109.837  0.00  0.00    +0.000 C 
ENDBRANCH  59  60
ENDBRANCH  56  59
ENDBRANCH  48  55
ENDBRANCH  45  48
ENDBRANCH  43  45
ENDBRANCH  42  43
ENDBRANCH  11  42
TORSDOF 17
ENDMDL
MODEL 19
REMARK VINA RESULT:      -6.9      4.629     11.520
REMARK  Name = ./S3022.pdb
REMARK  27 active torsions:
REMARK  status: ('A' for Active; 'I' for Inactive)
REMARK    1  A    between atoms: C1_1  and  O1_2
REMARK    2  A    between atoms: O1_2  and  C2_3
REMARK    3  A    between atoms: C6_8  and  O3_9
REMARK    4  A    between atoms: O3_9  and  C7_10
REMARK    5  A    between atoms: C7_10  and  C8_11
REMARK    6  A    between atoms: C10_14  and  O5_15
REMARK    7  A    between atoms: O5_15  and  C11_16
REMARK    8  A    between atoms: C11_16  and  C12_18
REMARK    9  A    between atoms: C18_24  and  O7_25
REMARK   10  A    between atoms: C20_27  and  O8_28
REMARK   11  A    between atoms: O8_28  and  C21_29
REMARK   12  A    between atoms: C21_29  and  C22_31
REMARK   13  A    between atoms: C22_31  and  O10_32
REMARK   14  A    between atoms: C22_31  and  C23_33
REMARK   15  A    between atoms: C23_33  and  N1_34
REMARK   16  A    between atoms: C23_33  and  C29_42
REMARK   17  A    between atoms: C24_35  and  O12_37
REMARK   18  A    between atoms: O12_37  and  C25_38
REMARK   19  A    between atoms: C25_38  and  C26_39
REMARK   20  A    between atoms: C25_38  and  C27_40
REMARK   21  A    between atoms: C25_38  and  C28_41
REMARK   22  A    between atoms: C35_48  and  C45_60
REMARK   23  A    between atoms: C37_50  and  O13_51
REMARK   24  A    between atoms: O13_51  and  C38_52
REMARK   25  A    between atoms: C40_55  and  C41_56
REMARK   26  A    between atoms: C42_57  and  C43_58
REMARK   27  A    between atoms: C42_57  and  C44_59
REMARK                            x       y       z     vdW  Elec       q    Type
REMARK                         _______ _______ _______ _____ _____    ______ ____
ROOT
ATOM      1  C2  UNL     1      69.526  56.686  98.754  0.00  0.00    +0.000 C 
ATOM      2  C3  UNL     1      70.143  55.357  98.199  0.00  0.00    +0.000 C 
ATOM      3  C4  UNL     1      71.473  55.440  97.405  0.00  0.00    +0.000 C 
ATOM      4  O2  UNL     1      72.348  54.423  97.847  0.00  0.00    +0.000 OA
ATOM      5  C5  UNL     1      73.261  55.371  98.357  0.00  0.00    +0.000 C 
ATOM      6  C6  UNL     1      72.453  56.537  97.807  0.00  0.00    +0.000 C 
ATOM      7  C9  UNL     1      71.892  57.559  98.829  0.00  0.00    +0.000 C 
ATOM      8  C10 UNL     1      73.103  58.488  99.369  0.00  0.00    +0.000 C 
ATOM      9  C18 UNL     1      72.569  59.705 100.158  0.00  0.00    +0.000 C 
ATOM     10  C19 UNL     1      73.233  60.370 101.385  0.00  0.00    +0.000 C 
ATOM     11  C20 UNL     1      72.156  61.415 101.955  0.00  0.00    +0.000 C 
ATOM     12  C35 UNL     1      70.959  61.775 100.977  0.00  0.00    +0.000 C 
ATOM     13  C36 UNL     1      70.984  61.401  99.635  0.00  0.00    +0.000 C 
ATOM     14  C37 UNL     1      69.743  60.801  98.907  0.00  0.00    +0.000 C 
ATOM     15  C39 UNL     1      69.571  59.243  99.071  0.00  0.00    +0.000 C 
ATOM     16  O14 UNL     1      68.598  58.963  99.769  0.00  0.00    +0.000 OA
ATOM     17  C40 UNL     1      70.350  57.997  98.378  0.00  0.00    +0.000 C 
ATOM     18  C41 UNL     1      70.133  58.137  96.815  0.00  0.00    +0.000 C 
ATOM     19  C42 UNL     1      72.319  60.944  99.149  0.00  0.00    +0.000 C 
ATOM     20  C43 UNL     1      73.339  62.153  99.215  0.00  0.00    +0.000 C 
ATOM     21  C44 UNL     1      72.384  60.663  97.617  0.00  0.00    +0.000 C 
ATOM     22  C45 UNL     1      69.680  62.251 101.617  0.00  0.00    +0.000 C 
ENDROOT
BRANCH   1  24
ATOM     23  C1  UNL     1      69.460  55.240 100.606  0.00  0.00    +0.000 C 
ATOM     24  O1  UNL     1      69.423  56.588 100.173  0.00  0.00    +0.000 OA
ENDBRANCH   1  24
BRANCH   9  25
ATOM     25  O7  UNL     1      71.406  59.172 100.791  0.00  0.00    +0.000 OA
ATOM     26  H20 UNL     1      70.630  59.782 100.655  0.00  0.00    +0.000 HD
ENDBRANCH   9  25
BRANCH  14  27
ATOM     27  O13 UNL     1      69.676  61.153  97.537  0.00  0.00    +0.000 OA
ATOM     28  C38 UNL     1      68.347  61.135  97.064  0.00  0.00    +0.000 C 
ENDBRANCH  14  27
BRANCH   6  29
ATOM     29  O3  UNL     1      73.106  57.196  96.704  0.00  0.00    +0.000 OA
BRANCH  29  30
ATOM     30  C7  UNL     1      74.396  56.956  96.202  0.00  0.00    +0.000 C 
ATOM     31  C8  UNL     1      74.568  55.961  95.106  0.00  0.00    +0.000 C 
ATOM     32  O4  UNL     1      75.401  57.584  96.634  0.00  0.00    +0.000 OA
ENDBRANCH  29  30
ENDBRANCH   6  29
BRANCH   8  33
ATOM     33  O5  UNL     1      73.939  57.705 100.228  0.00  0.00    +0.000 OA
BRANCH  33  34
ATOM     34  C11 UNL     1      75.294  57.980 100.460  0.00  0.00    +0.000 C 
ATOM     35  O6  UNL     1      75.977  58.585  99.586  0.00  0.00    +0.000 OA
BRANCH  34  36
ATOM     36  C12 UNL     1      75.931  57.522 101.713  0.00  0.00    +0.000 A 
ATOM     37  C13 UNL     1      77.202  56.914 101.692  0.00  0.00    +0.000 A 
ATOM     38  C14 UNL     1      77.790  56.457 102.877  0.00  0.00    +0.000 A 
ATOM     39  C15 UNL     1      77.118  56.611 104.094  0.00  0.00    +0.000 A 
ATOM     40  C16 UNL     1      75.861  57.222 104.125  0.00  0.00    +0.000 A 
ATOM     41  C17 UNL     1      75.268  57.673 102.943  0.00  0.00    +0.000 A 
ENDBRANCH  34  36
ENDBRANCH  33  34
ENDBRANCH   8  33
BRANCH  11  42
ATOM     42  O8  UNL     1      72.783  62.606 102.435  0.00  0.00    +0.000 OA
BRANCH  42  43
ATOM     43  C21 UNL     1      73.085  62.812 103.793  0.00  0.00    +0.000 C 
ATOM     44  O9  UNL     1      72.184  62.728 104.666  0.00  0.00    +0.000 OA
BRANCH  43  45
ATOM     45  C22 UNL     1      74.510  63.034 104.224  0.00  0.00    +0.000 C 
BRANCH  45  46
ATOM     46  O10 UNL     1      74.570  64.016 105.228  0.00  0.00    +0.000 OA
ATOM     47  H25 UNL     1      75.523  64.289 105.306  0.00  0.00    +0.000 HD
ENDBRANCH  45  46
BRANCH  45  48
ATOM     48  C23 UNL     1      75.183  61.721 104.697  0.00  0.00    +0.000 C 
BRANCH  48  49
ATOM     49  C29 UNL     1      76.278  61.263 103.749  0.00  0.00    +0.000 A 
ATOM     50  C30 UNL     1      76.231  61.582 102.377  0.00  0.00    +0.000 A 
ATOM     51  C31 UNL     1      77.255  61.169 101.518  0.00  0.00    +0.000 A 
ATOM     52  C32 UNL     1      78.337  60.443 102.021  0.00  0.00    +0.000 A 
ATOM     53  C33 UNL     1      78.395  60.127 103.379  0.00  0.00    +0.000 A 
ATOM     54  C34 UNL     1      77.370  60.531 104.238  0.00  0.00    +0.000 A 
ENDBRANCH  48  49
BRANCH  48  55
ATOM     55  N1  UNL     1      74.173  60.665 104.853  0.00  0.00    +0.000 N 
ATOM     56  C24 UNL     1      74.156  59.764 105.965  0.00  0.00    +0.000 C 
ATOM     57  O11 UNL     1      74.969  59.921 106.917  0.00  0.00    +0.000 OA
ATOM     58  H27 UNL     1      73.492  60.489 104.077  0.00  0.00    +0.000 HD
BRANCH  56  59
ATOM     59  O12 UNL     1      73.215  58.722 105.976  0.00  0.00    +0.000 OA
BRANCH  59  60
ATOM     60  C25 UNL     1      71.985  58.690 106.711  0.00  0.00    +0.000 C 
ATOM     61  C26 UNL     1      72.240  58.910 108.213  0.00  0.00    +0.000 C 
ATOM     62  C27 UNL     1      71.002  59.748 106.167  0.00  0.00    +0.000 C 
ATOM     63  C28 UNL     1      71.376  57.297 106.504  0.00  0.00    +0.000 C 
ENDBRANCH  59  60
ENDBRANCH  56  59
ENDBRANCH  48  55
ENDBRANCH  45  48
ENDBRANCH  43  45
ENDBRANCH  42  43
ENDBRANCH  11  42
TORSDOF 17
ENDMDL
MODEL 20
REMARK VINA RESULT:      -6.9      2.734      9.553
REMARK  Name = ./S3022.pdb
REMARK  27 active torsions:
REMARK  status: ('A' for Active; 'I' for Inactive)
REMARK    1  A    between atoms: C1_1  and  O1_2
REMARK    2  A    between atoms: O1_2  and  C2_3
REMARK    3  A    between atoms: C6_8  and  O3_9
REMARK    4  A    between atoms: O3_9  and  C7_10
REMARK    5  A    between atoms: C7_10  and  C8_11
REMARK    6  A    between atoms: C10_14  and  O5_15
REMARK    7  A    between atoms: O5_15  and  C11_16
REMARK    8  A    between atoms: C11_16  and  C12_18
REMARK    9  A    between atoms: C18_24  and  O7_25
REMARK   10  A    between atoms: C20_27  and  O8_28
REMARK   11  A    between atoms: O8_28  and  C21_29
REMARK   12  A    between atoms: C21_29  and  C22_31
REMARK   13  A    between atoms: C22_31  and  O10_32
REMARK   14  A    between atoms: C22_31  and  C23_33
REMARK   15  A    between atoms: C23_33  and  N1_34
REMARK   16  A    between atoms: C23_33  and  C29_42
REMARK   17  A    between atoms: C24_35  and  O12_37
REMARK   18  A    between atoms: O12_37  and  C25_38
REMARK   19  A    between atoms: C25_38  and  C26_39
REMARK   20  A    between atoms: C25_38  and  C27_40
REMARK   21  A    between atoms: C25_38  and  C28_41
REMARK   22  A    between atoms: C35_48  and  C45_60
REMARK   23  A    between atoms: C37_50  and  O13_51
REMARK   24  A    between atoms: O13_51  and  C38_52
REMARK   25  A    between atoms: C40_55  and  C41_56
REMARK   26  A    between atoms: C42_57  and  C43_58
REMARK   27  A    between atoms: C42_57  and  C44_59
REMARK                            x       y       z     vdW  Elec       q    Type
REMARK                         _______ _______ _______ _____ _____    ______ ____
ROOT
ATOM      1  C2  UNL     1      74.406  60.327  99.713  0.00  0.00    +0.000 C 
ATOM      2  C3  UNL     1      74.478  58.843  99.216  0.00  0.00    +0.000 C 
ATOM      3  C4  UNL     1      75.161  57.794 100.132  0.00  0.00    +0.000 C 
ATOM      4  O2  UNL     1      74.365  56.628 100.184  0.00  0.00    +0.000 OA
ATOM      5  C5  UNL     1      74.107  56.814 101.559  0.00  0.00    +0.000 C 
ATOM      6  C6  UNL     1      75.046  58.009 101.637  0.00  0.00    +0.000 C 
ATOM      7  C9  UNL     1      74.432  59.371 102.048  0.00  0.00    +0.000 C 
ATOM      8  C10 UNL     1      74.119  59.354 103.636  0.00  0.00    +0.000 C 
ATOM      9  C18 UNL     1      73.784  60.769 104.159  0.00  0.00    +0.000 C 
ATOM     10  C19 UNL     1      72.776  61.124 105.276  0.00  0.00    +0.000 C 
ATOM     11  C20 UNL     1      72.636  62.723 105.250  0.00  0.00    +0.000 C 
ATOM     12  C35 UNL     1      73.761  63.502 104.446  0.00  0.00    +0.000 C 
ATOM     13  C36 UNL     1      74.917  62.856 104.011  0.00  0.00    +0.000 C 
ATOM     14  C37 UNL     1      75.513  63.069 102.586  0.00  0.00    +0.000 C 
ATOM     15  C39 UNL     1      74.889  62.152 101.467  0.00  0.00    +0.000 C 
ATOM     16  O14 UNL     1      74.211  62.801 100.672  0.00  0.00    +0.000 OA
ATOM     17  C40 UNL     1      75.107  60.579 101.121  0.00  0.00    +0.000 C 
ATOM     18  C41 UNL     1      76.648  60.391 100.809  0.00  0.00    +0.000 C 
ATOM     19  C42 UNL     1      75.141  61.515 104.626  0.00  0.00    +0.000 C 
ATOM     20  C43 UNL     1      75.377  61.688 106.182  0.00  0.00    +0.000 C 
ATOM     21  C44 UNL     1      76.502  60.855 104.252  0.00  0.00    +0.000 C 
ATOM     22  C45 UNL     1      73.393  64.861 103.909  0.00  0.00    +0.000 C 
ENDROOT
BRANCH   1  24
ATOM     23  C1  UNL     1      72.197  59.828  99.082  0.00  0.00    +0.000 C 
ATOM     24  O1  UNL     1      73.037  60.719  99.794  0.00  0.00    +0.000 OA
ENDBRANCH   1  24
BRANCH   9  25
ATOM     25  O7  UNL     1      73.104  61.352 103.047  0.00  0.00    +0.000 OA
ATOM     26  H20 UNL     1      73.229  60.790 102.234  0.00  0.00    +0.000 HD
ENDBRANCH   9  25
BRANCH  14  27
ATOM     27  O13 UNL     1      76.926  62.981 102.553  0.00  0.00    +0.000 OA
ATOM     28  C38 UNL     1      77.528  64.221 102.852  0.00  0.00    +0.000 C 
ENDBRANCH  14  27
BRANCH   6  29
ATOM     29  O3  UNL     1      76.248  57.724 102.380  0.00  0.00    +0.000 OA
BRANCH  29  30
ATOM     30  C7  UNL     1      76.519  56.600 103.177  0.00  0.00    +0.000 C 
ATOM     31  C8  UNL     1      77.239  55.445 102.572  0.00  0.00    +0.000 C 
ATOM     32  O4  UNL     1      76.197  56.561 104.396  0.00  0.00    +0.000 OA
ENDBRANCH  29  30
ENDBRANCH   6  29
BRANCH   8  33
ATOM     33  O5  UNL     1      73.002  58.491 103.878  0.00  0.00    +0.000 OA
BRANCH  33  34
ATOM     34  C11 UNL     1      72.955  57.549 104.914  0.00  0.00    +0.000 C 
ATOM     35  O6  UNL     1      72.842  56.319 104.649  0.00  0.00    +0.000 OA
BRANCH  34  36
ATOM     36  C12 UNL     1      72.994  58.004 106.321  0.00  0.00    +0.000 A 
ATOM     37  C13 UNL     1      74.224  58.250 106.962  0.00  0.00    +0.000 A 
ATOM     38  C14 UNL     1      74.258  58.655 108.302  0.00  0.00    +0.000 A 
ATOM     39  C15 UNL     1      73.064  58.828 109.009  0.00  0.00    +0.000 A 
ATOM     40  C16 UNL     1      71.839  58.596 108.377  0.00  0.00    +0.000 A 
ATOM     41  C17 UNL     1      71.801  58.184 107.042  0.00  0.00    +0.000 A 
ENDBRANCH  34  36
ENDBRANCH  33  34
ENDBRANCH   8  33
BRANCH  11  42
ATOM     42  O8  UNL     1      72.502  63.260 106.567  0.00  0.00    +0.000 OA
BRANCH  42  43
ATOM     43  C21 UNL     1      71.384  64.011 106.972  0.00  0.00    +0.000 C 
ATOM     44  O9  UNL     1      70.329  64.004 106.287  0.00  0.00    +0.000 OA
BRANCH  43  45
ATOM     45  C22 UNL     1      71.405  64.749 108.284  0.00  0.00    +0.000 C 
BRANCH  45  46
ATOM     46  O10 UNL     1      71.707  63.868 109.337  0.00  0.00    +0.000 OA
ATOM     47  H25 UNL     1      71.980  64.429 110.111  0.00  0.00    +0.000 HD
ENDBRANCH  45  46
BRANCH  45  48
ATOM     48  C23 UNL     1      72.394  65.941 108.262  0.00  0.00    +0.000 C 
BRANCH  48  49
ATOM     49  C29 UNL     1      71.892  67.090 107.405  0.00  0.00    +0.000 A 
ATOM     50  C30 UNL     1      70.721  67.794 107.749  0.00  0.00    +0.000 A 
ATOM     51  C31 UNL     1      70.279  68.861 106.961  0.00  0.00    +0.000 A 
ATOM     52  C32 UNL     1      71.005  69.241 105.829  0.00  0.00    +0.000 A 
ATOM     53  C33 UNL     1      72.168  68.554 105.484  0.00  0.00    +0.000 A 
ATOM     54  C34 UNL     1      72.608  67.481 106.264  0.00  0.00    +0.000 A 
ENDBRANCH  48  49
BRANCH  48  55
ATOM     55  N1  UNL     1      73.712  65.494 107.790  0.00  0.00    +0.000 N 
ATOM     56  C24 UNL     1      74.764  65.101 108.677  0.00  0.00    +0.000 C 
ATOM     57  O11 UNL     1      74.549  65.029 109.918  0.00  0.00    +0.000 OA
ATOM     58  H27 UNL     1      73.938  65.556 106.769  0.00  0.00    +0.000 HD
BRANCH  56  59
ATOM     59  O12 UNL     1      76.022  64.788 108.137  0.00  0.00    +0.000 OA
BRANCH  59  60
ATOM     60  C25 UNL     1      76.953  65.708 107.551  0.00  0.00    +0.000 C 
ATOM     61  C26 UNL     1      78.397  65.203 107.717  0.00  0.00    +0.000 C 
ATOM     62  C27 UNL     1      76.625  65.935 106.062  0.00  0.00    +0.000 C 
ATOM     63  C28 UNL     1      76.798  67.039 108.300  0.00  0.00    +0.000 C 
ENDBRANCH  59  60
ENDBRANCH  56  59
ENDBRANCH  48  55
ENDBRANCH  45  48
ENDBRANCH  43  45
ENDBRANCH  42  43
ENDBRANCH  11  42
TORSDOF 17
ENDMDL
