MODEL 1
REMARK VINA RESULT:      -7.2      0.000      0.000
REMARK  Name = ./S3038.pdb
REMARK  12 active torsions:
REMARK  status: ('A' for Active; 'I' for Inactive)
REMARK    1  A    between atoms: C1_1  and  C2_2
REMARK    2  A    between atoms: C2_2  and  O1_3
REMARK    3  A    between atoms: C2_2  and  C16_28
REMARK    4  A    between atoms: O1_3  and  C3_4
REMARK    5  A    between atoms: N1_8  and  C6_9
REMARK    6  A    between atoms: C6_9  and  C7_10
REMARK    7  A    between atoms: N3_12  and  P1_16
REMARK    8  A    between atoms: P1_16  and  O4_17
REMARK    9  A    between atoms: P1_16  and  O5_18
REMARK   10  A    between atoms: C9_20  and  C10_21
REMARK   11  A    between atoms: C18_30  and  C23_38
REMARK   12  A    between atoms: C20_32  and  C22_34
REMARK                            x       y       z     vdW  Elec       q    Type
REMARK                         _______ _______ _______ _____ _____    ______ ____
ROOT
ATOM      1  C3  UNL     1      76.204  65.634  98.637  0.00  0.00    +0.000 C 
ATOM      2  O2  UNL     1      76.010  65.442 100.026  0.00  0.00    +0.000 OA
ATOM      3  C4  UNL     1      77.161  64.880 100.613  0.00  0.00    +0.000 C 
ATOM      4  C5  UNL     1      78.349  65.838 100.493  0.00  0.00    +0.000 C 
ATOM      5  N1  UNL     1      78.633  66.190  99.085  0.00  0.00    +0.000 NA
ATOM      6  C9  UNL     1      77.404  66.600  98.361  0.00  0.00    +0.000 C 
ENDROOT
BRANCH   6   7
ATOM      7  C10 UNL     1      77.125  68.076  98.622  0.00  0.00    +0.000 A 
ATOM      8  C11 UNL     1      77.680  69.031  97.747  0.00  0.00    +0.000 A 
ATOM      9  C12 UNL     1      77.447  70.395  97.941  0.00  0.00    +0.000 A 
ATOM     10  C13 UNL     1      76.676  70.827  99.019  0.00  0.00    +0.000 A 
ATOM     11  F1  UNL     1      76.444  72.150  99.203  0.00  0.00    +0.000 F 
ATOM     12  C14 UNL     1      76.146  69.897  99.914  0.00  0.00    +0.000 A 
ATOM     13  C15 UNL     1      76.374  68.529  99.725  0.00  0.00    +0.000 A 
ENDBRANCH   6   7
BRANCH   1  14
ATOM     14  O1  UNL     1      74.993  66.153  98.108  0.00  0.00    +0.000 OA
BRANCH  14  16
ATOM     15  C1  UNL     1      73.594  65.319  96.348  0.00  0.00    +0.000 C 
ATOM     16  C2  UNL     1      74.903  66.024  96.696  0.00  0.00    +0.000 C 
BRANCH  16  17
ATOM     17  C16 UNL     1      74.934  67.400  96.065  0.00  0.00    +0.000 A 
ATOM     18  C17 UNL     1      74.209  68.459  96.635  0.00  0.00    +0.000 A 
ATOM     19  C18 UNL     1      74.269  69.749  96.085  0.00  0.00    +0.000 A 
ATOM     20  C19 UNL     1      75.029  69.962  94.924  0.00  0.00    +0.000 A 
ATOM     21  C20 UNL     1      75.777  68.920  94.351  0.00  0.00    +0.000 A 
ATOM     22  C21 UNL     1      75.701  67.635  94.914  0.00  0.00    +0.000 A 
BRANCH  21  23
ATOM     23  C22 UNL     1      76.577  69.156  93.097  0.00  0.00    +0.000 C 
ATOM     24  F2  UNL     1      75.894  69.994  92.233  0.00  0.00    +0.000 F 
ATOM     25  F3  UNL     1      77.784  69.739  93.432  0.00  0.00    +0.000 F 
ATOM     26  F4  UNL     1      76.820  67.963  92.438  0.00  0.00    +0.000 F 
ENDBRANCH  21  23
BRANCH  19  27
ATOM     27  C23 UNL     1      73.457  70.874  96.678  0.00  0.00    +0.000 C 
ATOM     28  F5  UNL     1      72.157  70.847  96.205  0.00  0.00    +0.000 F 
ATOM     29  F6  UNL     1      74.035  72.081  96.336  0.00  0.00    +0.000 F 
ATOM     30  F7  UNL     1      73.416  70.768  98.058  0.00  0.00    +0.000 F 
ENDBRANCH  19  27
ENDBRANCH  16  17
ENDBRANCH  14  16
ENDBRANCH   1  14
BRANCH   5  31
ATOM     31  C6  UNL     1      79.380  65.131  98.371  0.00  0.00    +0.000 C 
BRANCH  31  32
ATOM     32  C7  UNL     1      80.215  65.714  97.273  0.00  0.00    +0.000 A 
ATOM     33  N2  UNL     1      79.914  65.600  95.960  0.00  0.00    +0.000 NA
ATOM     34  N3  UNL     1      80.880  66.236  95.318  0.00  0.00    +0.000 N 
ATOM     35  C8  UNL     1      81.753  66.697  96.228  0.00  0.00    +0.000 A 
ATOM     36  O3  UNL     1      82.814  67.319  95.951  0.00  0.00    +0.000 OA
ATOM     37  N4  UNL     1      81.362  66.400  97.477  0.00  0.00    +0.000 N 
ATOM     38  H12 UNL     1      81.837  66.623  98.380  0.00  0.00    +0.000 HD
BRANCH  34  39
ATOM     39  P1  UNL     1      81.033  66.291  93.570  0.00  0.00    +0.000 P 
ATOM     40  O6  UNL     1      81.365  64.914  93.043  0.00  0.00    +0.000 OA
BRANCH  39  41
ATOM     41  O4  UNL     1      82.272  67.363  93.143  0.00  0.00    +0.000 OA
ATOM     42  H13 UNL     1      82.726  66.932  92.376  0.00  0.00    +0.000 HD
ENDBRANCH  39  41
BRANCH  39  43
ATOM     43  O5  UNL     1      79.573  66.814  92.893  0.00  0.00    +0.000 OA
ATOM     44  H14 UNL     1      79.537  67.783  93.092  0.00  0.00    +0.000 HD
ENDBRANCH  39  43
ENDBRANCH  34  39
ENDBRANCH  31  32
ENDBRANCH   5  31
TORSDOF 11
ENDMDL
MODEL 2
REMARK VINA RESULT:      -7.2      0.836      3.024
REMARK  Name = ./S3038.pdb
REMARK  12 active torsions:
REMARK  status: ('A' for Active; 'I' for Inactive)
REMARK    1  A    between atoms: C1_1  and  C2_2
REMARK    2  A    between atoms: C2_2  and  O1_3
REMARK    3  A    between atoms: C2_2  and  C16_28
REMARK    4  A    between atoms: O1_3  and  C3_4
REMARK    5  A    between atoms: N1_8  and  C6_9
REMARK    6  A    between atoms: C6_9  and  C7_10
REMARK    7  A    between atoms: N3_12  and  P1_16
REMARK    8  A    between atoms: P1_16  and  O4_17
REMARK    9  A    between atoms: P1_16  and  O5_18
REMARK   10  A    between atoms: C9_20  and  C10_21
REMARK   11  A    between atoms: C18_30  and  C23_38
REMARK   12  A    between atoms: C20_32  and  C22_34
REMARK                            x       y       z     vdW  Elec       q    Type
REMARK                         _______ _______ _______ _____ _____    ______ ____
ROOT
ATOM      1  C3  UNL     1      76.317  65.585  98.517  0.00  0.00    +0.000 C 
ATOM      2  O2  UNL     1      76.279  65.491  99.928  0.00  0.00    +0.000 OA
ATOM      3  C4  UNL     1      77.477  64.936 100.420  0.00  0.00    +0.000 C 
ATOM      4  C5  UNL     1      78.664  65.849 100.101  0.00  0.00    +0.000 C 
ATOM      5  N1  UNL     1      78.793  66.098  98.649  0.00  0.00    +0.000 NA
ATOM      6  C9  UNL     1      77.499  66.495  98.041  0.00  0.00    +0.000 C 
ENDROOT
BRANCH   6   7
ATOM      7  C10 UNL     1      77.283  67.992  98.229  0.00  0.00    +0.000 A 
ATOM      8  C11 UNL     1      77.927  68.882  97.347  0.00  0.00    +0.000 A 
ATOM      9  C12 UNL     1      77.755  70.262  97.475  0.00  0.00    +0.000 A 
ATOM     10  C13 UNL     1      76.955  70.777  98.495  0.00  0.00    +0.000 A 
ATOM     11  F1  UNL     1      76.782  72.116  98.615  0.00  0.00    +0.000 F 
ATOM     12  C14 UNL     1      76.336  69.911  99.398  0.00  0.00    +0.000 A 
ATOM     13  C15 UNL     1      76.503  68.528  99.275  0.00  0.00    +0.000 A 
ENDBRANCH   6   7
BRANCH   1  14
ATOM     14  O1  UNL     1      75.065  66.102  98.093  0.00  0.00    +0.000 OA
BRANCH  14  16
ATOM     15  C1  UNL     1      73.499  65.353  96.438  0.00  0.00    +0.000 C 
ATOM     16  C2  UNL     1      74.864  65.990  96.690  0.00  0.00    +0.000 C 
BRANCH  16  17
ATOM     17  C16 UNL     1      74.916  67.368  96.065  0.00  0.00    +0.000 A 
ATOM     18  C17 UNL     1      75.703  67.602  94.927  0.00  0.00    +0.000 A 
ATOM     19  C18 UNL     1      75.721  68.864  94.312  0.00  0.00    +0.000 A 
ATOM     20  C19 UNL     1      74.975  69.910  94.879  0.00  0.00    +0.000 A 
ATOM     21  C20 UNL     1      74.166  69.690  96.006  0.00  0.00    +0.000 A 
ATOM     22  C21 UNL     1      74.164  68.420  96.609  0.00  0.00    +0.000 A 
BRANCH  21  23
ATOM     23  C22 UNL     1      73.380  70.822  96.615  0.00  0.00    +0.000 C 
ATOM     24  F2  UNL     1      74.043  72.025  96.438  0.00  0.00    +0.000 F 
ATOM     25  F3  UNL     1      72.143  70.896  96.006  0.00  0.00    +0.000 F 
ATOM     26  F4  UNL     1      73.204  70.622  97.973  0.00  0.00    +0.000 F 
ENDBRANCH  21  23
BRANCH  19  27
ATOM     27  C23 UNL     1      76.599  69.121  93.113  0.00  0.00    +0.000 C 
ATOM     28  F5  UNL     1      75.944  69.904  92.179  0.00  0.00    +0.000 F 
ATOM     29  F6  UNL     1      76.936  67.914  92.531  0.00  0.00    +0.000 F 
ATOM     30  F7  UNL     1      77.757  69.778  93.492  0.00  0.00    +0.000 F 
ENDBRANCH  19  27
ENDBRANCH  16  17
ENDBRANCH  14  16
ENDBRANCH   1  14
BRANCH   5  31
ATOM     31  C6  UNL     1      79.432  64.973  97.931  0.00  0.00    +0.000 C 
BRANCH  31  32
ATOM     32  C7  UNL     1      79.887  65.399  96.569  0.00  0.00    +0.000 A 
ATOM     33  N2  UNL     1      80.641  66.497  96.339  0.00  0.00    +0.000 NA
ATOM     34  N3  UNL     1      80.827  66.532  95.030  0.00  0.00    +0.000 N 
ATOM     35  C8  UNL     1      80.175  65.492  94.488  0.00  0.00    +0.000 A 
ATOM     36  O3  UNL     1      80.115  65.250  93.252  0.00  0.00    +0.000 OA
ATOM     37  N4  UNL     1      79.578  64.742  95.428  0.00  0.00    +0.000 N 
ATOM     38  H12 UNL     1      79.000  63.881  95.307  0.00  0.00    +0.000 HD
BRANCH  34  39
ATOM     39  P1  UNL     1      81.651  67.831  94.185  0.00  0.00    +0.000 P 
ATOM     40  O6  UNL     1      83.065  67.962  94.705  0.00  0.00    +0.000 OA
BRANCH  39  41
ATOM     41  O4  UNL     1      80.828  69.288  94.443  0.00  0.00    +0.000 OA
ATOM     42  H13 UNL     1      80.703  69.337  95.424  0.00  0.00    +0.000 HD
ENDBRANCH  39  41
BRANCH  39  43
ATOM     43  O5  UNL     1      81.692  67.489  92.528  0.00  0.00    +0.000 OA
ATOM     44  H14 UNL     1      81.148  66.669  92.428  0.00  0.00    +0.000 HD
ENDBRANCH  39  43
ENDBRANCH  34  39
ENDBRANCH  31  32
ENDBRANCH   5  31
TORSDOF 11
ENDMDL
MODEL 3
REMARK VINA RESULT:      -6.9     21.284     24.288
REMARK  Name = ./S3038.pdb
REMARK  12 active torsions:
REMARK  status: ('A' for Active; 'I' for Inactive)
REMARK    1  A    between atoms: C1_1  and  C2_2
REMARK    2  A    between atoms: C2_2  and  O1_3
REMARK    3  A    between atoms: C2_2  and  C16_28
REMARK    4  A    between atoms: O1_3  and  C3_4
REMARK    5  A    between atoms: N1_8  and  C6_9
REMARK    6  A    between atoms: C6_9  and  C7_10
REMARK    7  A    between atoms: N3_12  and  P1_16
REMARK    8  A    between atoms: P1_16  and  O4_17
REMARK    9  A    between atoms: P1_16  and  O5_18
REMARK   10  A    between atoms: C9_20  and  C10_21
REMARK   11  A    between atoms: C18_30  and  C23_38
REMARK   12  A    between atoms: C20_32  and  C22_34
REMARK                            x       y       z     vdW  Elec       q    Type
REMARK                         _______ _______ _______ _____ _____    ______ ____
ROOT
ATOM      1  C3  UNL     1      63.366  59.362 111.043  0.00  0.00    +0.000 C 
ATOM      2  O2  UNL     1      64.201  60.145 110.211  0.00  0.00    +0.000 OA
ATOM      3  C4  UNL     1      64.411  59.502 108.975  0.00  0.00    +0.000 C 
ATOM      4  C5  UNL     1      63.091  59.357 108.212  0.00  0.00    +0.000 C 
ATOM      5  N1  UNL     1      62.083  58.610 108.994  0.00  0.00    +0.000 NA
ATOM      6  C9  UNL     1      61.967  59.126 110.380  0.00  0.00    +0.000 C 
ENDROOT
BRANCH   6   7
ATOM      7  C10 UNL     1      61.025  60.324 110.403  0.00  0.00    +0.000 A 
ATOM      8  C11 UNL     1      59.645  60.094 110.572  0.00  0.00    +0.000 A 
ATOM      9  C12 UNL     1      58.744  61.161 110.606  0.00  0.00    +0.000 A 
ATOM     10  C13 UNL     1      59.201  62.469 110.453  0.00  0.00    +0.000 A 
ATOM     11  F1  UNL     1      58.327  63.505 110.493  0.00  0.00    +0.000 F 
ATOM     12  C14 UNL     1      60.561  62.713 110.253  0.00  0.00    +0.000 A 
ATOM     13  C15 UNL     1      61.469  61.650 110.218  0.00  0.00    +0.000 A 
ENDBRANCH   6   7
BRANCH   1  14
ATOM     14  O1  UNL     1      63.240  60.045 112.281  0.00  0.00    +0.000 OA
BRANCH  14  16
ATOM     15  C1  UNL     1      63.735  59.372 114.529  0.00  0.00    +0.000 C 
ATOM     16  C2  UNL     1      62.795  59.205 113.337  0.00  0.00    +0.000 C 
BRANCH  16  17
ATOM     17  C16 UNL     1      61.386  59.598 113.728  0.00  0.00    +0.000 A 
ATOM     18  C17 UNL     1      61.031  60.952 113.834  0.00  0.00    +0.000 A 
ATOM     19  C18 UNL     1      59.715  61.327 114.151  0.00  0.00    +0.000 A 
ATOM     20  C19 UNL     1      58.763  60.327 114.408  0.00  0.00    +0.000 A 
ATOM     21  C20 UNL     1      59.095  58.968 114.286  0.00  0.00    +0.000 A 
ATOM     22  C21 UNL     1      60.418  58.612 113.972  0.00  0.00    +0.000 A 
BRANCH  21  23
ATOM     23  C22 UNL     1      58.070  57.903 114.578  0.00  0.00    +0.000 C 
ATOM     24  F2  UNL     1      57.215  57.743 113.501  0.00  0.00    +0.000 F 
ATOM     25  F3  UNL     1      58.714  56.707 114.825  0.00  0.00    +0.000 F 
ATOM     26  F4  UNL     1      57.311  58.244 115.684  0.00  0.00    +0.000 F 
ENDBRANCH  21  23
BRANCH  19  27
ATOM     27  C23 UNL     1      59.348  62.782 114.303  0.00  0.00    +0.000 C 
ATOM     28  F5  UNL     1      60.339  63.598 113.787  0.00  0.00    +0.000 F 
ATOM     29  F6  UNL     1      59.181  63.071 115.644  0.00  0.00    +0.000 F 
ATOM     30  F7  UNL     1      58.169  63.058 113.631  0.00  0.00    +0.000 F 
ENDBRANCH  19  27
ENDBRANCH  16  17
ENDBRANCH  14  16
ENDBRANCH   1  14
BRANCH   5  31
ATOM     31  C6  UNL     1      62.297  57.146 108.953  0.00  0.00    +0.000 C 
BRANCH  31  32
ATOM     32  C7  UNL     1      61.332  56.491 108.015  0.00  0.00    +0.000 A 
ATOM     33  N2  UNL     1      61.135  56.893 106.739  0.00  0.00    +0.000 NA
ATOM     34  N3  UNL     1      60.217  56.077 106.248  0.00  0.00    +0.000 N 
ATOM     35  C8  UNL     1      59.855  55.223 107.218  0.00  0.00    +0.000 A 
ATOM     36  O3  UNL     1      58.969  54.335 107.095  0.00  0.00    +0.000 OA
ATOM     37  N4  UNL     1      60.546  55.442 108.348  0.00  0.00    +0.000 N 
ATOM     38  H12 UNL     1      60.477  54.943 109.262  0.00  0.00    +0.000 HD
BRANCH  34  39
ATOM     39  P1  UNL     1      59.510  56.237 104.649  0.00  0.00    +0.000 P 
ATOM     40  O6  UNL     1      60.602  56.213 103.604  0.00  0.00    +0.000 OA
BRANCH  39  41
ATOM     41  O4  UNL     1      58.672  57.703 104.543  0.00  0.00    +0.000 OA
ATOM     42  H13 UNL     1      58.924  58.199 105.362  0.00  0.00    +0.000 HD
ENDBRANCH  39  41
BRANCH  39  43
ATOM     43  O5  UNL     1      58.442  54.953 104.374  0.00  0.00    +0.000 OA
ATOM     44  H14 UNL     1      58.346  54.514 105.256  0.00  0.00    +0.000 HD
ENDBRANCH  39  43
ENDBRANCH  34  39
ENDBRANCH  31  32
ENDBRANCH   5  31
TORSDOF 11
ENDMDL
MODEL 4
REMARK VINA RESULT:      -6.9     18.214     21.478
REMARK  Name = ./S3038.pdb
REMARK  12 active torsions:
REMARK  status: ('A' for Active; 'I' for Inactive)
REMARK    1  A    between atoms: C1_1  and  C2_2
REMARK    2  A    between atoms: C2_2  and  O1_3
REMARK    3  A    between atoms: C2_2  and  C16_28
REMARK    4  A    between atoms: O1_3  and  C3_4
REMARK    5  A    between atoms: N1_8  and  C6_9
REMARK    6  A    between atoms: C6_9  and  C7_10
REMARK    7  A    between atoms: N3_12  and  P1_16
REMARK    8  A    between atoms: P1_16  and  O4_17
REMARK    9  A    between atoms: P1_16  and  O5_18
REMARK   10  A    between atoms: C9_20  and  C10_21
REMARK   11  A    between atoms: C18_30  and  C23_38
REMARK   12  A    between atoms: C20_32  and  C22_34
REMARK                            x       y       z     vdW  Elec       q    Type
REMARK                         _______ _______ _______ _____ _____    ______ ____
ROOT
ATOM      1  C3  UNL     1      60.967  54.037 104.056  0.00  0.00    +0.000 C 
ATOM      2  O2  UNL     1      60.011  52.996 103.986  0.00  0.00    +0.000 OA
ATOM      3  C4  UNL     1      59.645  52.573 105.279  0.00  0.00    +0.000 C 
ATOM      4  C5  UNL     1      58.960  53.709 106.044  0.00  0.00    +0.000 C 
ATOM      5  N1  UNL     1      59.823  54.906 106.140  0.00  0.00    +0.000 NA
ATOM      6  C9  UNL     1      60.400  55.277 104.824  0.00  0.00    +0.000 C 
ENDROOT
BRANCH   6   7
ATOM      7  C10 UNL     1      59.397  56.122 104.046  0.00  0.00    +0.000 A 
ATOM      8  C11 UNL     1      59.544  57.524 104.059  0.00  0.00    +0.000 A 
ATOM      9  C12 UNL     1      58.655  58.339 103.355  0.00  0.00    +0.000 A 
ATOM     10  C13 UNL     1      57.596  57.773 102.646  0.00  0.00    +0.000 A 
ATOM     11  F1  UNL     1      56.737  58.565 101.958  0.00  0.00    +0.000 F 
ATOM     12  C14 UNL     1      57.417  56.389 102.650  0.00  0.00    +0.000 A 
ATOM     13  C15 UNL     1      58.304  55.566 103.351  0.00  0.00    +0.000 A 
ENDBRANCH   6   7
BRANCH   1  14
ATOM     14  O1  UNL     1      61.323  54.375 102.724  0.00  0.00    +0.000 OA
BRANCH  14  16
ATOM     15  C1  UNL     1      63.598  54.410 101.963  0.00  0.00    +0.000 C 
ATOM     16  C2  UNL     1      62.482  55.195 102.650  0.00  0.00    +0.000 C 
BRANCH  16  17
ATOM     17  C16 UNL     1      62.161  56.443 101.854  0.00  0.00    +0.000 A 
ATOM     18  C17 UNL     1      62.878  57.629 102.074  0.00  0.00    +0.000 A 
ATOM     19  C18 UNL     1      62.619  58.778 101.308  0.00  0.00    +0.000 A 
ATOM     20  C19 UNL     1      61.599  58.741 100.345  0.00  0.00    +0.000 A 
ATOM     21  C20 UNL     1      60.885  57.557 100.097  0.00  0.00    +0.000 A 
ATOM     22  C21 UNL     1      61.155  56.419 100.875  0.00  0.00    +0.000 A 
BRANCH  21  23
ATOM     23  C22 UNL     1      59.782  57.533  99.070  0.00  0.00    +0.000 C 
ATOM     24  F2  UNL     1      59.663  56.271  98.513  0.00  0.00    +0.000 F 
ATOM     25  F3  UNL     1      58.588  57.873  99.677  0.00  0.00    +0.000 F 
ATOM     26  F4  UNL     1      60.042  58.432  98.051  0.00  0.00    +0.000 F 
ENDBRANCH  21  23
BRANCH  19  27
ATOM     27  C23 UNL     1      63.365  60.062 101.577  0.00  0.00    +0.000 C 
ATOM     28  F5  UNL     1      64.711  59.818 101.782  0.00  0.00    +0.000 F 
ATOM     29  F6  UNL     1      62.839  60.664 102.705  0.00  0.00    +0.000 F 
ATOM     30  F7  UNL     1      63.242  60.928 100.504  0.00  0.00    +0.000 F 
ENDBRANCH  19  27
ENDBRANCH  16  17
ENDBRANCH  14  16
ENDBRANCH   1  14
BRANCH   5  31
ATOM     31  C6  UNL     1      60.855  54.784 107.194  0.00  0.00    +0.000 C 
BRANCH  31  32
ATOM     32  C7  UNL     1      61.133  56.113 107.825  0.00  0.00    +0.000 A 
ATOM     33  N2  UNL     1      61.694  57.153 107.168  0.00  0.00    +0.000 NA
ATOM     34  N3  UNL     1      61.776  58.130 108.056  0.00  0.00    +0.000 N 
ATOM     35  C8  UNL     1      61.298  57.674 109.224  0.00  0.00    +0.000 A 
ATOM     36  O3  UNL     1      61.267  58.341 110.293  0.00  0.00    +0.000 OA
ATOM     37  N4  UNL     1      60.868  56.407 109.118  0.00  0.00    +0.000 N 
ATOM     38  H12 UNL     1      60.455  55.794 109.855  0.00  0.00    +0.000 HD
BRANCH  34  39
ATOM     39  P1  UNL     1      62.542  59.680 107.749  0.00  0.00    +0.000 P 
ATOM     40  O6  UNL     1      64.045  59.520 107.769  0.00  0.00    +0.000 OA
BRANCH  39  41
ATOM     41  O4  UNL     1      62.085  60.785 108.946  0.00  0.00    +0.000 OA
ATOM     42  H13 UNL     1      62.095  60.265 109.788  0.00  0.00    +0.000 HD
ENDBRANCH  39  41
BRANCH  39  43
ATOM     43  O5  UNL     1      62.060  60.256 106.232  0.00  0.00    +0.000 OA
ATOM     44  H14 UNL     1      61.127  60.561 106.364  0.00  0.00    +0.000 HD
ENDBRANCH  39  43
ENDBRANCH  34  39
ENDBRANCH  31  32
ENDBRANCH   5  31
TORSDOF 11
ENDMDL
MODEL 5
REMARK VINA RESULT:      -6.8     18.227     21.439
REMARK  Name = ./S3038.pdb
REMARK  12 active torsions:
REMARK  status: ('A' for Active; 'I' for Inactive)
REMARK    1  A    between atoms: C1_1  and  C2_2
REMARK    2  A    between atoms: C2_2  and  O1_3
REMARK    3  A    between atoms: C2_2  and  C16_28
REMARK    4  A    between atoms: O1_3  and  C3_4
REMARK    5  A    between atoms: N1_8  and  C6_9
REMARK    6  A    between atoms: C6_9  and  C7_10
REMARK    7  A    between atoms: N3_12  and  P1_16
REMARK    8  A    between atoms: P1_16  and  O4_17
REMARK    9  A    between atoms: P1_16  and  O5_18
REMARK   10  A    between atoms: C9_20  and  C10_21
REMARK   11  A    between atoms: C18_30  and  C23_38
REMARK   12  A    between atoms: C20_32  and  C22_34
REMARK                            x       y       z     vdW  Elec       q    Type
REMARK                         _______ _______ _______ _____ _____    ______ ____
ROOT
ATOM      1  C3  UNL     1      60.752  54.000 104.011  0.00  0.00    +0.000 C 
ATOM      2  O2  UNL     1      59.698  53.056 104.048  0.00  0.00    +0.000 OA
ATOM      3  C4  UNL     1      59.360  52.743 105.379  0.00  0.00    +0.000 C 
ATOM      4  C5  UNL     1      58.827  53.982 106.105  0.00  0.00    +0.000 C 
ATOM      5  N1  UNL     1      59.804  55.092 106.089  0.00  0.00    +0.000 NA
ATOM      6  C9  UNL     1      60.346  55.331 104.728  0.00  0.00    +0.000 C 
ENDROOT
BRANCH   6   7
ATOM      7  C10 UNL     1      59.390  56.226 103.947  0.00  0.00    +0.000 A 
ATOM      8  C11 UNL     1      59.632  57.614 103.927  0.00  0.00    +0.000 A 
ATOM      9  C12 UNL     1      58.788  58.474 103.220  0.00  0.00    +0.000 A 
ATOM     10  C13 UNL     1      57.681  57.966 102.540  0.00  0.00    +0.000 A 
ATOM     11  F1  UNL     1      56.867  58.800 101.848  0.00  0.00    +0.000 F 
ATOM     12  C14 UNL     1      57.408  56.598 102.577  0.00  0.00    +0.000 A 
ATOM     13  C15 UNL     1      58.249  55.731 103.282  0.00  0.00    +0.000 A 
ENDBRANCH   6   7
BRANCH   1  14
ATOM     14  O1  UNL     1      61.069  54.227 102.646  0.00  0.00    +0.000 OA
BRANCH  14  16
ATOM     15  C1  UNL     1      63.262  54.089 101.684  0.00  0.00    +0.000 C 
ATOM     16  C2  UNL     1      62.278  54.953 102.470  0.00  0.00    +0.000 C 
BRANCH  16  17
ATOM     17  C16 UNL     1      61.988  56.230 101.711  0.00  0.00    +0.000 A 
ATOM     18  C17 UNL     1      60.993  56.257 100.720  0.00  0.00    +0.000 A 
ATOM     19  C18 UNL     1      60.685  57.448 100.043  0.00  0.00    +0.000 A 
ATOM     20  C19 UNL     1      61.418  58.609 100.335  0.00  0.00    +0.000 A 
ATOM     21  C20 UNL     1      62.403  58.606 101.337  0.00  0.00    +0.000 A 
ATOM     22  C21 UNL     1      62.700  57.404 102.001  0.00  0.00    +0.000 A 
BRANCH  21  23
ATOM     23  C22 UNL     1      63.193  59.855 101.633  0.00  0.00    +0.000 C 
ATOM     24  F2  UNL     1      62.645  60.536 102.706  0.00  0.00    +0.000 F 
ATOM     25  F3  UNL     1      64.496  59.507 101.937  0.00  0.00    +0.000 F 
ATOM     26  F4  UNL     1      63.196  60.703 100.539  0.00  0.00    +0.000 F 
ENDBRANCH  21  23
BRANCH  19  27
ATOM     27  C23 UNL     1      59.643  57.462  98.952  0.00  0.00    +0.000 C 
ATOM     28  F5  UNL     1      58.418  57.876  99.444  0.00  0.00    +0.000 F 
ATOM     29  F6  UNL     1      59.512  56.188  98.433  0.00  0.00    +0.000 F 
ATOM     30  F7  UNL     1      60.015  58.327  97.937  0.00  0.00    +0.000 F 
ENDBRANCH  19  27
ENDBRANCH  16  17
ENDBRANCH  14  16
ENDBRANCH   1  14
BRANCH   5  31
ATOM     31  C6  UNL     1      60.873  54.927 107.100  0.00  0.00    +0.000 C 
BRANCH  31  32
ATOM     32  C7  UNL     1      61.474  56.250 107.462  0.00  0.00    +0.000 A 
ATOM     33  N2  UNL     1      62.516  56.394 108.310  0.00  0.00    +0.000 NA
ATOM     34  N3  UNL     1      62.747  57.695 108.372  0.00  0.00    +0.000 N 
ATOM     35  C8  UNL     1      61.844  58.316 107.597  0.00  0.00    +0.000 A 
ATOM     36  O3  UNL     1      61.758  59.566 107.460  0.00  0.00    +0.000 OA
ATOM     37  N4  UNL     1      61.029  57.437 106.992  0.00  0.00    +0.000 N 
ATOM     38  H12 UNL     1      60.234  57.625 106.341  0.00  0.00    +0.000 HD
BRANCH  34  39
ATOM     39  P1  UNL     1      63.933  58.438 109.431  0.00  0.00    +0.000 P 
ATOM     40  O6  UNL     1      63.322  58.678 110.793  0.00  0.00    +0.000 OA
BRANCH  39  41
ATOM     41  O4  UNL     1      64.431  59.917 108.777  0.00  0.00    +0.000 OA
ATOM     42  H13 UNL     1      63.593  60.426 108.635  0.00  0.00    +0.000 HD
ENDBRANCH  39  41
BRANCH  39  43
ATOM     43  O5  UNL     1      65.269  57.410 109.589  0.00  0.00    +0.000 OA
ATOM     44  H14 UNL     1      65.019  56.595 109.086  0.00  0.00    +0.000 HD
ENDBRANCH  39  43
ENDBRANCH  34  39
ENDBRANCH  31  32
ENDBRANCH   5  31
TORSDOF 11
ENDMDL
MODEL 6
REMARK VINA RESULT:      -6.8     16.856     20.087
REMARK  Name = ./S3038.pdb
REMARK  12 active torsions:
REMARK  status: ('A' for Active; 'I' for Inactive)
REMARK    1  A    between atoms: C1_1  and  C2_2
REMARK    2  A    between atoms: C2_2  and  O1_3
REMARK    3  A    between atoms: C2_2  and  C16_28
REMARK    4  A    between atoms: O1_3  and  C3_4
REMARK    5  A    between atoms: N1_8  and  C6_9
REMARK    6  A    between atoms: C6_9  and  C7_10
REMARK    7  A    between atoms: N3_12  and  P1_16
REMARK    8  A    between atoms: P1_16  and  O4_17
REMARK    9  A    between atoms: P1_16  and  O5_18
REMARK   10  A    between atoms: C9_20  and  C10_21
REMARK   11  A    between atoms: C18_30  and  C23_38
REMARK   12  A    between atoms: C20_32  and  C22_34
REMARK                            x       y       z     vdW  Elec       q    Type
REMARK                         _______ _______ _______ _____ _____    ______ ____
ROOT
ATOM      1  C3  UNL     1      62.282  54.466 104.401  0.00  0.00    +0.000 C 
ATOM      2  O2  UNL     1      61.607  53.278 104.033  0.00  0.00    +0.000 OA
ATOM      3  C4  UNL     1      60.736  52.865 105.061  0.00  0.00    +0.000 C 
ATOM      4  C5  UNL     1      59.638  53.908 105.288  0.00  0.00    +0.000 C 
ATOM      5  N1  UNL     1      60.199  55.236 105.618  0.00  0.00    +0.000 NA
ATOM      6  C9  UNL     1      61.272  55.631 104.672  0.00  0.00    +0.000 C 
ENDROOT
BRANCH   6   7
ATOM      7  C10 UNL     1      60.652  56.257 103.428  0.00  0.00    +0.000 A 
ATOM      8  C11 UNL     1      60.028  57.515 103.546  0.00  0.00    +0.000 A 
ATOM      9  C12 UNL     1      59.452  58.131 102.433  0.00  0.00    +0.000 A 
ATOM     10  C13 UNL     1      59.471  57.496 101.192  0.00  0.00    +0.000 A 
ATOM     11  F1  UNL     1      58.917  58.097 100.110  0.00  0.00    +0.000 F 
ATOM     12  C14 UNL     1      60.055  56.235 101.064  0.00  0.00    +0.000 A 
ATOM     13  C15 UNL     1      60.635  55.612 102.174  0.00  0.00    +0.000 A 
ENDBRANCH   6   7
BRANCH   1  14
ATOM     14  O1  UNL     1      63.173  54.791 103.345  0.00  0.00    +0.000 OA
BRANCH  14  16
ATOM     15  C1  UNL     1      65.521  54.614 103.800  0.00  0.00    +0.000 C 
ATOM     16  C2  UNL     1      64.302  55.536 103.780  0.00  0.00    +0.000 C 
BRANCH  16  17
ATOM     17  C16 UNL     1      64.540  56.687 102.827  0.00  0.00    +0.000 A 
ATOM     18  C17 UNL     1      63.629  57.754 102.760  0.00  0.00    +0.000 A 
ATOM     19  C18 UNL     1      63.865  58.849 101.913  0.00  0.00    +0.000 A 
ATOM     20  C19 UNL     1      65.005  58.845 101.093  0.00  0.00    +0.000 A 
ATOM     21  C20 UNL     1      65.937  57.797 101.161  0.00  0.00    +0.000 A 
ATOM     22  C21 UNL     1      65.683  56.708 102.012  0.00  0.00    +0.000 A 
BRANCH  21  23
ATOM     23  C22 UNL     1      67.150  57.796 100.267  0.00  0.00    +0.000 C 
ATOM     24  F2  UNL     1      68.008  56.766 100.610  0.00  0.00    +0.000 F 
ATOM     25  F3  UNL     1      66.748  57.631  98.956  0.00  0.00    +0.000 F 
ATOM     26  F4  UNL     1      67.842  58.990 100.380  0.00  0.00    +0.000 F 
ENDBRANCH  21  23
BRANCH  19  27
ATOM     27  C23 UNL     1      62.863  59.972 101.816  0.00  0.00    +0.000 C 
ATOM     28  F5  UNL     1      61.958  59.741 100.795  0.00  0.00    +0.000 F 
ATOM     29  F6  UNL     1      63.531  61.156 101.566  0.00  0.00    +0.000 F 
ATOM     30  F7  UNL     1      62.155  60.095 103.000  0.00  0.00    +0.000 F 
ENDBRANCH  19  27
ENDBRANCH  16  17
ENDBRANCH  14  16
ENDBRANCH   1  14
BRANCH   5  31
ATOM     31  C6  UNL     1      60.627  55.340 107.031  0.00  0.00    +0.000 C 
BRANCH  31  32
ATOM     32  C7  UNL     1      61.434  56.582 107.253  0.00  0.00    +0.000 A 
ATOM     33  N2  UNL     1      62.679  56.583 107.781  0.00  0.00    +0.000 NA
ATOM     34  N3  UNL     1      63.047  57.853 107.818  0.00  0.00    +0.000 N 
ATOM     35  C8  UNL     1      62.033  58.596 107.347  0.00  0.00    +0.000 A 
ATOM     36  O3  UNL     1      62.039  59.855 107.281  0.00  0.00    +0.000 OA
ATOM     37  N4  UNL     1      60.999  57.829 106.966  0.00  0.00    +0.000 N 
ATOM     38  H12 UNL     1      60.079  58.124 106.569  0.00  0.00    +0.000 HD
BRANCH  34  39
ATOM     39  P1  UNL     1      64.548  58.425 108.528  0.00  0.00    +0.000 P 
ATOM     40  O6  UNL     1      65.591  58.595 107.447  0.00  0.00    +0.000 OA
BRANCH  39  41
ATOM     41  O4  UNL     1      65.103  57.300 109.663  0.00  0.00    +0.000 OA
ATOM     42  H13 UNL     1      65.975  57.657 109.968  0.00  0.00    +0.000 HD
ENDBRANCH  39  41
BRANCH  39  43
ATOM     43  O5  UNL     1      64.281  59.913 109.289  0.00  0.00    +0.000 OA
ATOM     44  H14 UNL     1      64.136  60.552 108.546  0.00  0.00    +0.000 HD
ENDBRANCH  39  43
ENDBRANCH  34  39
ENDBRANCH  31  32
ENDBRANCH   5  31
TORSDOF 11
ENDMDL
MODEL 7
REMARK VINA RESULT:      -6.8     17.459     20.273
REMARK  Name = ./S3038.pdb
REMARK  12 active torsions:
REMARK  status: ('A' for Active; 'I' for Inactive)
REMARK    1  A    between atoms: C1_1  and  C2_2
REMARK    2  A    between atoms: C2_2  and  O1_3
REMARK    3  A    between atoms: C2_2  and  C16_28
REMARK    4  A    between atoms: O1_3  and  C3_4
REMARK    5  A    between atoms: N1_8  and  C6_9
REMARK    6  A    between atoms: C6_9  and  C7_10
REMARK    7  A    between atoms: N3_12  and  P1_16
REMARK    8  A    between atoms: P1_16  and  O4_17
REMARK    9  A    between atoms: P1_16  and  O5_18
REMARK   10  A    between atoms: C9_20  and  C10_21
REMARK   11  A    between atoms: C18_30  and  C23_38
REMARK   12  A    between atoms: C20_32  and  C22_34
REMARK                            x       y       z     vdW  Elec       q    Type
REMARK                         _______ _______ _______ _____ _____    ______ ____
ROOT
ATOM      1  C3  UNL     1      60.395  55.832 102.472  0.00  0.00    +0.000 C 
ATOM      2  O2  UNL     1      59.178  56.228 101.868  0.00  0.00    +0.000 OA
ATOM      3  C4  UNL     1      58.239  56.606 102.848  0.00  0.00    +0.000 C 
ATOM      4  C5  UNL     1      58.732  57.832 103.622  0.00  0.00    +0.000 C 
ATOM      5  N1  UNL     1      60.044  57.590 104.260  0.00  0.00    +0.000 NA
ATOM      6  C9  UNL     1      61.018  56.999 103.309  0.00  0.00    +0.000 C 
ENDROOT
BRANCH   6   7
ATOM      7  C10 UNL     1      61.674  58.107 102.493  0.00  0.00    +0.000 A 
ATOM      8  C11 UNL     1      62.466  59.059 103.165  0.00  0.00    +0.000 A 
ATOM      9  C12 UNL     1      63.094  60.089 102.460  0.00  0.00    +0.000 A 
ATOM     10  C13 UNL     1      62.925  60.196 101.080  0.00  0.00    +0.000 A 
ATOM     11  F1  UNL     1      63.539  61.192 100.395  0.00  0.00    +0.000 F 
ATOM     12  C14 UNL     1      62.117  59.282 100.403  0.00  0.00    +0.000 A 
ATOM     13  C15 UNL     1      61.487  58.247 101.103  0.00  0.00    +0.000 A 
ENDBRANCH   6   7
BRANCH   1  14
ATOM     14  O1  UNL     1      61.269  55.420 101.432  0.00  0.00    +0.000 OA
BRANCH  14  16
ATOM     15  C1  UNL     1      62.060  53.301 100.633  0.00  0.00    +0.000 C 
ATOM     16  C2  UNL     1      62.068  54.300 101.789  0.00  0.00    +0.000 C 
BRANCH  16  17
ATOM     17  C16 UNL     1      63.482  54.762 102.066  0.00  0.00    +0.000 A 
ATOM     18  C17 UNL     1      64.045  55.810 101.320  0.00  0.00    +0.000 A 
ATOM     19  C18 UNL     1      65.340  56.277 101.601  0.00  0.00    +0.000 A 
ATOM     20  C19 UNL     1      66.088  55.650 102.610  0.00  0.00    +0.000 A 
ATOM     21  C20 UNL     1      65.534  54.614 103.379  0.00  0.00    +0.000 A 
ATOM     22  C21 UNL     1      64.239  54.158 103.082  0.00  0.00    +0.000 A 
BRANCH  21  23
ATOM     23  C22 UNL     1      66.351  53.939 104.451  0.00  0.00    +0.000 C 
ATOM     24  F2  UNL     1      67.658  53.765 104.029  0.00  0.00    +0.000 F 
ATOM     25  F3  UNL     1      66.344  54.723 105.589  0.00  0.00    +0.000 F 
ATOM     26  F4  UNL     1      65.827  52.695 104.756  0.00  0.00    +0.000 F 
ENDBRANCH  21  23
BRANCH  19  27
ATOM     27  C23 UNL     1      65.955  57.376 100.770  0.00  0.00    +0.000 C 
ATOM     28  F5  UNL     1      67.313  57.170 100.605  0.00  0.00    +0.000 F 
ATOM     29  F6  UNL     1      65.757  58.588 101.404  0.00  0.00    +0.000 F 
ATOM     30  F7  UNL     1      65.370  57.422  99.516  0.00  0.00    +0.000 F 
ENDBRANCH  19  27
ENDBRANCH  16  17
ENDBRANCH  14  16
ENDBRANCH   1  14
BRANCH   5  31
ATOM     31  C6  UNL     1      59.935  56.811 105.513  0.00  0.00    +0.000 C 
BRANCH  31  32
ATOM     32  C7  UNL     1      61.009  57.202 106.480  0.00  0.00    +0.000 A 
ATOM     33  N2  UNL     1      61.476  58.464 106.613  0.00  0.00    +0.000 NA
ATOM     34  N3  UNL     1      62.407  58.401 107.551  0.00  0.00    +0.000 N 
ATOM     35  C8  UNL     1      62.511  57.124 107.950  0.00  0.00    +0.000 A 
ATOM     36  O3  UNL     1      63.334  56.708 108.809  0.00  0.00    +0.000 OA
ATOM     37  N4  UNL     1      61.635  56.336 107.307  0.00  0.00    +0.000 N 
ATOM     38  H12 UNL     1      61.490  55.306 107.405  0.00  0.00    +0.000 HD
BRANCH  34  39
ATOM     39  P1  UNL     1      63.416  59.754 108.031  0.00  0.00    +0.000 P 
ATOM     40  O6  UNL     1      63.871  60.512 106.805  0.00  0.00    +0.000 OA
BRANCH  39  41
ATOM     41  O4  UNL     1      64.773  59.182 108.865  0.00  0.00    +0.000 OA
ATOM     42  H13 UNL     1      64.836  58.225 108.619  0.00  0.00    +0.000 HD
ENDBRANCH  39  41
BRANCH  39  43
ATOM     43  O5  UNL     1      62.530  60.790 109.034  0.00  0.00    +0.000 OA
ATOM     44  H14 UNL     1      61.701  60.981 108.528  0.00  0.00    +0.000 HD
ENDBRANCH  39  43
ENDBRANCH  34  39
ENDBRANCH  31  32
ENDBRANCH   5  31
TORSDOF 11
ENDMDL
MODEL 8
REMARK VINA RESULT:      -6.8     17.525     20.280
REMARK  Name = ./S3038.pdb
REMARK  12 active torsions:
REMARK  status: ('A' for Active; 'I' for Inactive)
REMARK    1  A    between atoms: C1_1  and  C2_2
REMARK    2  A    between atoms: C2_2  and  O1_3
REMARK    3  A    between atoms: C2_2  and  C16_28
REMARK    4  A    between atoms: O1_3  and  C3_4
REMARK    5  A    between atoms: N1_8  and  C6_9
REMARK    6  A    between atoms: C6_9  and  C7_10
REMARK    7  A    between atoms: N3_12  and  P1_16
REMARK    8  A    between atoms: P1_16  and  O4_17
REMARK    9  A    between atoms: P1_16  and  O5_18
REMARK   10  A    between atoms: C9_20  and  C10_21
REMARK   11  A    between atoms: C18_30  and  C23_38
REMARK   12  A    between atoms: C20_32  and  C22_34
REMARK                            x       y       z     vdW  Elec       q    Type
REMARK                         _______ _______ _______ _____ _____    ______ ____
ROOT
ATOM      1  C3  UNL     1      60.328  55.742 102.542  0.00  0.00    +0.000 C 
ATOM      2  O2  UNL     1      59.112  56.123 101.927  0.00  0.00    +0.000 OA
ATOM      3  C4  UNL     1      58.174  56.530 102.896  0.00  0.00    +0.000 C 
ATOM      4  C5  UNL     1      58.669  57.776 103.636  0.00  0.00    +0.000 C 
ATOM      5  N1  UNL     1      59.980  57.550 104.280  0.00  0.00    +0.000 NA
ATOM      6  C9  UNL     1      60.954  56.930 103.347  0.00  0.00    +0.000 C 
ENDROOT
BRANCH   6   7
ATOM      7  C10 UNL     1      61.612  58.014 102.501  0.00  0.00    +0.000 A 
ATOM      8  C11 UNL     1      62.470  58.935 103.134  0.00  0.00    +0.000 A 
ATOM      9  C12 UNL     1      63.101  59.942 102.400  0.00  0.00    +0.000 A 
ATOM     10  C13 UNL     1      62.872  60.058 101.029  0.00  0.00    +0.000 A 
ATOM     11  F1  UNL     1      63.491  61.031 100.316  0.00  0.00    +0.000 F 
ATOM     12  C14 UNL     1      62.000  59.175 100.392  0.00  0.00    +0.000 A 
ATOM     13  C15 UNL     1      61.365  58.164 101.121  0.00  0.00    +0.000 A 
ENDBRANCH   6   7
BRANCH   1  14
ATOM     14  O1  UNL     1      61.202  55.300 101.514  0.00  0.00    +0.000 OA
BRANCH  14  16
ATOM     15  C1  UNL     1      62.019  53.161 100.798  0.00  0.00    +0.000 C 
ATOM     16  C2  UNL     1      62.020  54.207 101.912  0.00  0.00    +0.000 C 
BRANCH  16  17
ATOM     17  C16 UNL     1      63.429  54.701 102.157  0.00  0.00    +0.000 A 
ATOM     18  C17 UNL     1      64.224  54.114 103.155  0.00  0.00    +0.000 A 
ATOM     19  C18 UNL     1      65.548  54.534 103.359  0.00  0.00    +0.000 A 
ATOM     20  C19 UNL     1      66.059  55.585 102.581  0.00  0.00    +0.000 A 
ATOM     21  C20 UNL     1      65.286  56.170 101.564  0.00  0.00    +0.000 A 
ATOM     22  C21 UNL     1      63.962  55.740 101.378  0.00  0.00    +0.000 A 
BRANCH  21  23
ATOM     23  C22 UNL     1      65.839  57.307 100.745  0.00  0.00    +0.000 C 
ATOM     24  F2  UNL     1      65.069  57.512  99.613  0.00  0.00    +0.000 F 
ATOM     25  F3  UNL     1      65.838  58.460 101.506  0.00  0.00    +0.000 F 
ATOM     26  F4  UNL     1      67.135  57.034 100.340  0.00  0.00    +0.000 F 
ENDBRANCH  21  23
BRANCH  19  27
ATOM     27  C23 UNL     1      66.384  53.927 104.459  0.00  0.00    +0.000 C 
ATOM     28  F5  UNL     1      65.928  52.662 104.785  0.00  0.00    +0.000 F 
ATOM     29  F6  UNL     1      66.313  54.733 105.579  0.00  0.00    +0.000 F 
ATOM     30  F7  UNL     1      67.705  53.821 104.061  0.00  0.00    +0.000 F 
ENDBRANCH  19  27
ENDBRANCH  16  17
ENDBRANCH  14  16
ENDBRANCH   1  14
BRANCH   5  31
ATOM     31  C6  UNL     1      59.870  56.805 105.555  0.00  0.00    +0.000 C 
BRANCH  31  32
ATOM     32  C7  UNL     1      60.966  57.194 106.497  0.00  0.00    +0.000 A 
ATOM     33  N2  UNL     1      61.478  58.444 106.578  0.00  0.00    +0.000 NA
ATOM     34  N3  UNL     1      62.415  58.383 107.510  0.00  0.00    +0.000 N 
ATOM     35  C8  UNL     1      62.479  57.119 107.956  0.00  0.00    +0.000 A 
ATOM     36  O3  UNL     1      63.296  56.707 108.823  0.00  0.00    +0.000 OA
ATOM     37  N4  UNL     1      61.570  56.338 107.351  0.00  0.00    +0.000 N 
ATOM     38  H12 UNL     1      61.391  55.318 107.488  0.00  0.00    +0.000 HD
BRANCH  34  39
ATOM     39  P1  UNL     1      63.475  59.717 107.931  0.00  0.00    +0.000 P 
ATOM     40  O6  UNL     1      63.832  60.497 106.686  0.00  0.00    +0.000 OA
BRANCH  39  41
ATOM     41  O4  UNL     1      64.892  59.116 108.635  0.00  0.00    +0.000 OA
ATOM     42  H13 UNL     1      64.601  58.731 109.499  0.00  0.00    +0.000 HD
ENDBRANCH  39  41
BRANCH  39  43
ATOM     43  O5  UNL     1      62.687  60.739 109.026  0.00  0.00    +0.000 OA
ATOM     44  H14 UNL     1      62.822  60.312 109.909  0.00  0.00    +0.000 HD
ENDBRANCH  39  43
ENDBRANCH  34  39
ENDBRANCH  31  32
ENDBRANCH   5  31
TORSDOF 11
ENDMDL
MODEL 9
REMARK VINA RESULT:      -6.8     21.316     24.331
REMARK  Name = ./S3038.pdb
REMARK  12 active torsions:
REMARK  status: ('A' for Active; 'I' for Inactive)
REMARK    1  A    between atoms: C1_1  and  C2_2
REMARK    2  A    between atoms: C2_2  and  O1_3
REMARK    3  A    between atoms: C2_2  and  C16_28
REMARK    4  A    between atoms: O1_3  and  C3_4
REMARK    5  A    between atoms: N1_8  and  C6_9
REMARK    6  A    between atoms: C6_9  and  C7_10
REMARK    7  A    between atoms: N3_12  and  P1_16
REMARK    8  A    between atoms: P1_16  and  O4_17
REMARK    9  A    between atoms: P1_16  and  O5_18
REMARK   10  A    between atoms: C9_20  and  C10_21
REMARK   11  A    between atoms: C18_30  and  C23_38
REMARK   12  A    between atoms: C20_32  and  C22_34
REMARK                            x       y       z     vdW  Elec       q    Type
REMARK                         _______ _______ _______ _____ _____    ______ ____
ROOT
ATOM      1  C3  UNL     1      63.323  59.354 111.077  0.00  0.00    +0.000 C 
ATOM      2  O2  UNL     1      64.169  60.127 110.246  0.00  0.00    +0.000 OA
ATOM      3  C4  UNL     1      64.383  59.476 109.015  0.00  0.00    +0.000 C 
ATOM      4  C5  UNL     1      63.067  59.335 108.244  0.00  0.00    +0.000 C 
ATOM      5  N1  UNL     1      62.049  58.599 109.024  0.00  0.00    +0.000 NA
ATOM      6  C9  UNL     1      61.928  59.122 110.407  0.00  0.00    +0.000 C 
ENDROOT
BRANCH   6   7
ATOM      7  C10 UNL     1      60.993  60.327 110.417  0.00  0.00    +0.000 A 
ATOM      8  C11 UNL     1      59.619  60.112 110.645  0.00  0.00    +0.000 A 
ATOM      9  C12 UNL     1      58.725  61.185 110.671  0.00  0.00    +0.000 A 
ATOM     10  C13 UNL     1      59.183  62.484 110.451  0.00  0.00    +0.000 A 
ATOM     11  F1  UNL     1      58.315  63.525 110.483  0.00  0.00    +0.000 F 
ATOM     12  C14 UNL     1      60.535  62.711 110.191  0.00  0.00    +0.000 A 
ATOM     13  C15 UNL     1      61.436  61.641 110.165  0.00  0.00    +0.000 A 
ENDBRANCH   6   7
BRANCH   1  14
ATOM     14  O1  UNL     1      63.195  60.044 112.310  0.00  0.00    +0.000 OA
BRANCH  14  16
ATOM     15  C1  UNL     1      63.725  59.316 114.533  0.00  0.00    +0.000 C 
ATOM     16  C2  UNL     1      62.742  59.211 113.369  0.00  0.00    +0.000 C 
BRANCH  16  17
ATOM     17  C16 UNL     1      61.367  59.665 113.809  0.00  0.00    +0.000 A 
ATOM     18  C17 UNL     1      60.419  58.729 114.254  0.00  0.00    +0.000 A 
ATOM     19  C18 UNL     1      59.157  59.146 114.709  0.00  0.00    +0.000 A 
ATOM     20  C19 UNL     1      58.834  60.511 114.671  0.00  0.00    +0.000 A 
ATOM     21  C20 UNL     1      59.776  61.463 114.249  0.00  0.00    +0.000 A 
ATOM     22  C21 UNL     1      61.032  61.028 113.794  0.00  0.00    +0.000 A 
BRANCH  21  23
ATOM     23  C22 UNL     1      59.414  62.925 114.199  0.00  0.00    +0.000 C 
ATOM     24  F2  UNL     1      58.172  63.099 113.613  0.00  0.00    +0.000 F 
ATOM     25  F3  UNL     1      59.381  63.429 115.485  0.00  0.00    +0.000 F 
ATOM     26  F4  UNL     1      60.343  63.635 113.459  0.00  0.00    +0.000 F 
ENDBRANCH  21  23
BRANCH  19  27
ATOM     27  C23 UNL     1      58.128  58.133 115.148  0.00  0.00    +0.000 C 
ATOM     28  F5  UNL     1      58.426  56.878 114.649  0.00  0.00    +0.000 F 
ATOM     29  F6  UNL     1      56.885  58.518 114.683  0.00  0.00    +0.000 F 
ATOM     30  F7  UNL     1      58.087  58.050 116.529  0.00  0.00    +0.000 F 
ENDBRANCH  19  27
ENDBRANCH  16  17
ENDBRANCH  14  16
ENDBRANCH   1  14
BRANCH   5  31
ATOM     31  C6  UNL     1      62.255  57.133 108.992  0.00  0.00    +0.000 C 
BRANCH  31  32
ATOM     32  C7  UNL     1      61.305  56.482 108.035  0.00  0.00    +0.000 A 
ATOM     33  N2  UNL     1      61.113  56.903 106.764  0.00  0.00    +0.000 NA
ATOM     34  N3  UNL     1      60.210  56.084 106.252  0.00  0.00    +0.000 N 
ATOM     35  C8  UNL     1      59.851  55.209 107.205  0.00  0.00    +0.000 A 
ATOM     36  O3  UNL     1      58.977  54.312 107.060  0.00  0.00    +0.000 OA
ATOM     37  N4  UNL     1      60.530  55.418 108.344  0.00  0.00    +0.000 N 
ATOM     38  H12 UNL     1      60.460  54.902 109.249  0.00  0.00    +0.000 HD
BRANCH  34  39
ATOM     39  P1  UNL     1      59.514  56.261 104.650  0.00  0.00    +0.000 P 
ATOM     40  O6  UNL     1      60.612  56.249 103.612  0.00  0.00    +0.000 OA
BRANCH  39  41
ATOM     41  O4  UNL     1      58.675  57.728 104.555  0.00  0.00    +0.000 OA
ATOM     42  H13 UNL     1      58.062  57.720 105.333  0.00  0.00    +0.000 HD
ENDBRANCH  39  41
BRANCH  39  43
ATOM     43  O5  UNL     1      58.449  54.979 104.354  0.00  0.00    +0.000 OA
ATOM     44  H14 UNL     1      59.001  54.295 103.899  0.00  0.00    +0.000 HD
ENDBRANCH  39  43
ENDBRANCH  34  39
ENDBRANCH  31  32
ENDBRANCH   5  31
TORSDOF 11
ENDMDL
MODEL 10
REMARK VINA RESULT:      -6.7     21.054     23.290
REMARK  Name = ./S3038.pdb
REMARK  12 active torsions:
REMARK  status: ('A' for Active; 'I' for Inactive)
REMARK    1  A    between atoms: C1_1  and  C2_2
REMARK    2  A    between atoms: C2_2  and  O1_3
REMARK    3  A    between atoms: C2_2  and  C16_28
REMARK    4  A    between atoms: O1_3  and  C3_4
REMARK    5  A    between atoms: N1_8  and  C6_9
REMARK    6  A    between atoms: C6_9  and  C7_10
REMARK    7  A    between atoms: N3_12  and  P1_16
REMARK    8  A    between atoms: P1_16  and  O4_17
REMARK    9  A    between atoms: P1_16  and  O5_18
REMARK   10  A    between atoms: C9_20  and  C10_21
REMARK   11  A    between atoms: C18_30  and  C23_38
REMARK   12  A    between atoms: C20_32  and  C22_34
REMARK                            x       y       z     vdW  Elec       q    Type
REMARK                         _______ _______ _______ _____ _____    ______ ____
ROOT
ATOM      1  C3  UNL     1      60.792  60.108 114.170  0.00  0.00    +0.000 C 
ATOM      2  O2  UNL     1      60.520  59.084 115.108  0.00  0.00    +0.000 OA
ATOM      3  C4  UNL     1      60.106  57.908 114.452  0.00  0.00    +0.000 C 
ATOM      4  C5  UNL     1      61.229  57.364 113.564  0.00  0.00    +0.000 C 
ATOM      5  N1  UNL     1      61.672  58.359 112.565  0.00  0.00    +0.000 NA
ATOM      6  C9  UNL     1      61.930  59.684 113.182  0.00  0.00    +0.000 C 
ENDROOT
BRANCH   6   7
ATOM      7  C10 UNL     1      63.339  59.712 113.763  0.00  0.00    +0.000 A 
ATOM      8  C11 UNL     1      64.424  59.927 112.889  0.00  0.00    +0.000 A 
ATOM      9  C12 UNL     1      65.732  59.968 113.375  0.00  0.00    +0.000 A 
ATOM     10  C13 UNL     1      65.982  59.776 114.734  0.00  0.00    +0.000 A 
ATOM     11  F1  UNL     1      67.252  59.822 115.206  0.00  0.00    +0.000 F 
ATOM     12  C14 UNL     1      64.923  59.529 115.608  0.00  0.00    +0.000 A 
ATOM     13  C15 UNL     1      63.609  59.487 115.129  0.00  0.00    +0.000 A 
ENDBRANCH   6   7
BRANCH   1  14
ATOM     14  O1  UNL     1      61.152  61.269 114.902  0.00  0.00    +0.000 OA
BRANCH  14  16
ATOM     15  C1  UNL     1      60.168  62.632 116.613  0.00  0.00    +0.000 C 
ATOM     16  C2  UNL     1      60.045  62.116 115.181  0.00  0.00    +0.000 C 
BRANCH  16  17
ATOM     17  C16 UNL     1      60.046  63.277 114.210  0.00  0.00    +0.000 A 
ATOM     18  C17 UNL     1      59.896  64.593 114.676  0.00  0.00    +0.000 A 
ATOM     19  C18 UNL     1      59.943  65.680 113.789  0.00  0.00    +0.000 A 
ATOM     20  C19 UNL     1      60.097  65.434 112.415  0.00  0.00    +0.000 A 
ATOM     21  C20 UNL     1      60.270  64.126 111.932  0.00  0.00    +0.000 A 
ATOM     22  C21 UNL     1      60.216  63.051 112.835  0.00  0.00    +0.000 A 
BRANCH  21  23
ATOM     23  C22 UNL     1      60.421  63.872 110.455  0.00  0.00    +0.000 C 
ATOM     24  F2  UNL     1      59.199  63.553 109.888  0.00  0.00    +0.000 F 
ATOM     25  F3  UNL     1      60.918  65.008 109.847  0.00  0.00    +0.000 F 
ATOM     26  F4  UNL     1      61.290  62.820 110.225  0.00  0.00    +0.000 F 
ENDBRANCH  21  23
BRANCH  19  27
ATOM     27  C23 UNL     1      59.740  67.088 114.290  0.00  0.00    +0.000 C 
ATOM     28  F5  UNL     1      58.739  67.134 115.244  0.00  0.00    +0.000 F 
ATOM     29  F6  UNL     1      59.389  67.901 113.229  0.00  0.00    +0.000 F 
ATOM     30  F7  UNL     1      60.904  67.571 114.863  0.00  0.00    +0.000 F 
ENDBRANCH  19  27
ENDBRANCH  16  17
ENDBRANCH  14  16
ENDBRANCH   1  14
BRANCH   5  31
ATOM     31  C6  UNL     1      60.760  58.447 111.403  0.00  0.00    +0.000 C 
BRANCH  31  32
ATOM     32  C7  UNL     1      61.512  58.273 110.119  0.00  0.00    +0.000 A 
ATOM     33  N2  UNL     1      61.913  59.302 109.339  0.00  0.00    +0.000 NA
ATOM     34  N3  UNL     1      62.532  58.746 108.311  0.00  0.00    +0.000 N 
ATOM     35  C8  UNL     1      62.479  57.413 108.461  0.00  0.00    +0.000 A 
ATOM     36  O3  UNL     1      62.942  56.580 107.636  0.00  0.00    +0.000 OA
ATOM     37  N4  UNL     1      61.854  57.073 109.600  0.00  0.00    +0.000 N 
ATOM     38  H12 UNL     1      61.659  56.118 109.977  0.00  0.00    +0.000 HD
BRANCH  34  39
ATOM     39  P1  UNL     1      63.151  59.639 106.932  0.00  0.00    +0.000 P 
ATOM     40  O6  UNL     1      62.019  60.370 106.248  0.00  0.00    +0.000 OA
BRANCH  39  41
ATOM     41  O4  UNL     1      63.862  58.565 105.833  0.00  0.00    +0.000 OA
ATOM     42  H13 UNL     1      63.154  58.380 105.167  0.00  0.00    +0.000 HD
ENDBRANCH  39  41
BRANCH  39  43
ATOM     43  O5  UNL     1      64.306  60.759 107.458  0.00  0.00    +0.000 OA
ATOM     44  H14 UNL     1      64.574  61.245 106.639  0.00  0.00    +0.000 HD
ENDBRANCH  39  43
ENDBRANCH  34  39
ENDBRANCH  31  32
ENDBRANCH   5  31
TORSDOF 11
ENDMDL
MODEL 11
REMARK VINA RESULT:      -6.7     15.769     19.371
REMARK  Name = ./S3038.pdb
REMARK  12 active torsions:
REMARK  status: ('A' for Active; 'I' for Inactive)
REMARK    1  A    between atoms: C1_1  and  C2_2
REMARK    2  A    between atoms: C2_2  and  O1_3
REMARK    3  A    between atoms: C2_2  and  C16_28
REMARK    4  A    between atoms: O1_3  and  C3_4
REMARK    5  A    between atoms: N1_8  and  C6_9
REMARK    6  A    between atoms: C6_9  and  C7_10
REMARK    7  A    between atoms: N3_12  and  P1_16
REMARK    8  A    between atoms: P1_16  and  O4_17
REMARK    9  A    between atoms: P1_16  and  O5_18
REMARK   10  A    between atoms: C9_20  and  C10_21
REMARK   11  A    between atoms: C18_30  and  C23_38
REMARK   12  A    between atoms: C20_32  and  C22_34
REMARK                            x       y       z     vdW  Elec       q    Type
REMARK                         _______ _______ _______ _____ _____    ______ ____
ROOT
ATOM      1  C3  UNL     1      75.649  65.592 116.543  0.00  0.00    +0.000 C 
ATOM      2  O2  UNL     1      75.036  66.415 117.517  0.00  0.00    +0.000 OA
ATOM      3  C4  UNL     1      74.592  67.621 116.939  0.00  0.00    +0.000 C 
ATOM      4  C5  UNL     1      73.509  67.348 115.891  0.00  0.00    +0.000 C 
ATOM      5  N1  UNL     1      73.986  66.436 114.830  0.00  0.00    +0.000 NA
ATOM      6  C9  UNL     1      74.648  65.233 115.393  0.00  0.00    +0.000 C 
ENDROOT
BRANCH   6   7
ATOM      7  C10 UNL     1      73.596  64.190 115.749  0.00  0.00    +0.000 A 
ATOM      8  C11 UNL     1      73.333  63.156 114.828  0.00  0.00    +0.000 A 
ATOM      9  C12 UNL     1      72.383  62.173 115.112  0.00  0.00    +0.000 A 
ATOM     10  C13 UNL     1      71.666  62.216 116.308  0.00  0.00    +0.000 A 
ATOM     11  F1  UNL     1      70.748  61.258 116.586  0.00  0.00    +0.000 F 
ATOM     12  C14 UNL     1      71.890  63.251 117.217  0.00  0.00    +0.000 A 
ATOM     13  C15 UNL     1      72.841  64.239 116.939  0.00  0.00    +0.000 A 
ENDBRANCH   6   7
BRANCH   1  14
ATOM     14  O1  UNL     1      76.113  64.425 117.205  0.00  0.00    +0.000 OA
BRANCH  14  16
ATOM     15  C1  UNL     1      78.241  63.514 117.833  0.00  0.00    +0.000 C 
ATOM     16  C2  UNL     1      77.337  63.936 116.675  0.00  0.00    +0.000 C 
BRANCH  16  17
ATOM     17  C16 UNL     1      77.056  62.748 115.779  0.00  0.00    +0.000 A 
ATOM     18  C17 UNL     1      76.311  61.659 116.257  0.00  0.00    +0.000 A 
ATOM     19  C18 UNL     1      76.005  60.574 115.419  0.00  0.00    +0.000 A 
ATOM     20  C19 UNL     1      76.493  60.569 114.103  0.00  0.00    +0.000 A 
ATOM     21  C20 UNL     1      77.223  61.659 113.601  0.00  0.00    +0.000 A 
ATOM     22  C21 UNL     1      77.522  62.734 114.455  0.00  0.00    +0.000 A 
BRANCH  21  23
ATOM     23  C22 UNL     1      77.755  61.637 112.192  0.00  0.00    +0.000 C 
ATOM     24  F2  UNL     1      76.716  61.558 111.280  0.00  0.00    +0.000 F 
ATOM     25  F3  UNL     1      78.473  62.793 111.958  0.00  0.00    +0.000 F 
ATOM     26  F4  UNL     1      78.582  60.544 111.997  0.00  0.00    +0.000 F 
ENDBRANCH  21  23
BRANCH  19  27
ATOM     27  C23 UNL     1      75.238  59.388 115.950  0.00  0.00    +0.000 C 
ATOM     28  F5  UNL     1      76.010  58.658 116.836  0.00  0.00    +0.000 F 
ATOM     29  F6  UNL     1      74.874  58.574 114.894  0.00  0.00    +0.000 F 
ATOM     30  F7  UNL     1      74.097  59.805 116.614  0.00  0.00    +0.000 F 
ENDBRANCH  19  27
ENDBRANCH  16  17
ENDBRANCH  14  16
ENDBRANCH   1  14
BRANCH   5  31
ATOM     31  C6  UNL     1      74.826  67.121 113.822  0.00  0.00    +0.000 C 
BRANCH  31  32
ATOM     32  C7  UNL     1      74.188  67.064 112.468  0.00  0.00    +0.000 A 
ATOM     33  N2  UNL     1      73.100  66.314 112.182  0.00  0.00    +0.000 NA
ATOM     34  N3  UNL     1      72.849  66.528 110.901  0.00  0.00    +0.000 N 
ATOM     35  C8  UNL     1      73.782  67.368 110.427  0.00  0.00    +0.000 A 
ATOM     36  O3  UNL     1      73.858  67.751 109.229  0.00  0.00    +0.000 OA
ATOM     37  N4  UNL     1      74.641  67.742 111.390  0.00  0.00    +0.000 N 
ATOM     38  H12 UNL     1      75.466  68.378 111.317  0.00  0.00    +0.000 HD
BRANCH  34  39
ATOM     39  P1  UNL     1      71.598  65.700 109.990  0.00  0.00    +0.000 P 
ATOM     40  O6  UNL     1      71.290  64.370 110.638  0.00  0.00    +0.000 OA
BRANCH  39  41
ATOM     41  O4  UNL     1      72.131  65.436 108.405  0.00  0.00    +0.000 OA
ATOM     42  H13 UNL     1      72.431  66.324 108.088  0.00  0.00    +0.000 HD
ENDBRANCH  39  41
BRANCH  39  43
ATOM     43  O5  UNL     1      70.197  66.649 109.965  0.00  0.00    +0.000 OA
ATOM     44  H14 UNL     1      69.490  66.063 110.335  0.00  0.00    +0.000 HD
ENDBRANCH  39  43
ENDBRANCH  34  39
ENDBRANCH  31  32
ENDBRANCH   5  31
TORSDOF 11
ENDMDL
MODEL 12
REMARK VINA RESULT:      -6.7     21.102     23.468
REMARK  Name = ./S3038.pdb
REMARK  12 active torsions:
REMARK  status: ('A' for Active; 'I' for Inactive)
REMARK    1  A    between atoms: C1_1  and  C2_2
REMARK    2  A    between atoms: C2_2  and  O1_3
REMARK    3  A    between atoms: C2_2  and  C16_28
REMARK    4  A    between atoms: O1_3  and  C3_4
REMARK    5  A    between atoms: N1_8  and  C6_9
REMARK    6  A    between atoms: C6_9  and  C7_10
REMARK    7  A    between atoms: N3_12  and  P1_16
REMARK    8  A    between atoms: P1_16  and  O4_17
REMARK    9  A    between atoms: P1_16  and  O5_18
REMARK   10  A    between atoms: C9_20  and  C10_21
REMARK   11  A    between atoms: C18_30  and  C23_38
REMARK   12  A    between atoms: C20_32  and  C22_34
REMARK                            x       y       z     vdW  Elec       q    Type
REMARK                         _______ _______ _______ _____ _____    ______ ____
ROOT
ATOM      1  C3  UNL     1      60.737  60.177 114.259  0.00  0.00    +0.000 C 
ATOM      2  O2  UNL     1      60.493  59.149 115.200  0.00  0.00    +0.000 OA
ATOM      3  C4  UNL     1      60.094  57.965 114.549  0.00  0.00    +0.000 C 
ATOM      4  C5  UNL     1      61.218  57.441 113.650  0.00  0.00    +0.000 C 
ATOM      5  N1  UNL     1      61.633  58.444 112.645  0.00  0.00    +0.000 NA
ATOM      6  C9  UNL     1      61.873  59.773 113.260  0.00  0.00    +0.000 C 
ENDROOT
BRANCH   6   7
ATOM      7  C10 UNL     1      63.287  59.827 113.827  0.00  0.00    +0.000 A 
ATOM      8  C11 UNL     1      64.371  59.885 112.928  0.00  0.00    +0.000 A 
ATOM      9  C12 UNL     1      65.684  59.943 113.400  0.00  0.00    +0.000 A 
ATOM     10  C13 UNL     1      65.938  59.924 114.771  0.00  0.00    +0.000 A 
ATOM     11  F1  UNL     1      67.213  59.987 115.228  0.00  0.00    +0.000 F 
ATOM     12  C14 UNL     1      64.878  59.833 115.674  0.00  0.00    +0.000 A 
ATOM     13  C15 UNL     1      63.560  59.776 115.209  0.00  0.00    +0.000 A 
ENDBRANCH   6   7
BRANCH   1  14
ATOM     14  O1  UNL     1      61.083  61.345 114.987  0.00  0.00    +0.000 OA
BRANCH  14  16
ATOM     15  C1  UNL     1      60.057  62.729 116.656  0.00  0.00    +0.000 C 
ATOM     16  C2  UNL     1      59.973  62.201 115.225  0.00  0.00    +0.000 C 
BRANCH  16  17
ATOM     17  C16 UNL     1      60.011  63.353 114.244  0.00  0.00    +0.000 A 
ATOM     18  C17 UNL     1      60.225  63.116 112.877  0.00  0.00    +0.000 A 
ATOM     19  C18 UNL     1      60.215  64.174 111.954  0.00  0.00    +0.000 A 
ATOM     20  C19 UNL     1      60.033  65.486 112.420  0.00  0.00    +0.000 A 
ATOM     21  C20 UNL     1      59.797  65.740 113.781  0.00  0.00    +0.000 A 
ATOM     22  C21 UNL     1      59.814  64.669 114.691  0.00  0.00    +0.000 A 
BRANCH  21  23
ATOM     23  C22 UNL     1      59.617  67.153 114.272  0.00  0.00    +0.000 C 
ATOM     24  F2  UNL     1      60.760  67.594 114.917  0.00  0.00    +0.000 F 
ATOM     25  F3  UNL     1      59.359  67.979 113.196  0.00  0.00    +0.000 F 
ATOM     26  F4  UNL     1      58.561  67.231 115.164  0.00  0.00    +0.000 F 
ENDBRANCH  21  23
BRANCH  19  27
ATOM     27  C23 UNL     1      60.486  63.918 110.492  0.00  0.00    +0.000 C 
ATOM     28  F5  UNL     1      59.319  63.596 109.822  0.00  0.00    +0.000 F 
ATOM     29  F6  UNL     1      61.377  62.868 110.373  0.00  0.00    +0.000 F 
ATOM     30  F7  UNL     1      61.031  65.042 109.895  0.00  0.00    +0.000 F 
ENDBRANCH  19  27
ENDBRANCH  16  17
ENDBRANCH  14  16
ENDBRANCH   1  14
BRANCH   5  31
ATOM     31  C6  UNL     1      60.708  58.514 111.492  0.00  0.00    +0.000 C 
BRANCH  31  32
ATOM     32  C7  UNL     1      61.443  58.305 110.205  0.00  0.00    +0.000 A 
ATOM     33  N2  UNL     1      61.890  59.315 109.423  0.00  0.00    +0.000 NA
ATOM     34  N3  UNL     1      62.476  58.731 108.391  0.00  0.00    +0.000 N 
ATOM     35  C8  UNL     1      62.358  57.402 108.540  0.00  0.00    +0.000 A 
ATOM     36  O3  UNL     1      62.775  56.549 107.711  0.00  0.00    +0.000 OA
ATOM     37  N4  UNL     1      61.723  57.091 109.682  0.00  0.00    +0.000 N 
ATOM     38  H12 UNL     1      61.484  56.147 110.059  0.00  0.00    +0.000 HD
BRANCH  34  39
ATOM     39  P1  UNL     1      63.129  59.595 107.010  0.00  0.00    +0.000 P 
ATOM     40  O6  UNL     1      62.016  60.316 106.285  0.00  0.00    +0.000 OA
BRANCH  39  41
ATOM     41  O4  UNL     1      63.863  58.498 105.950  0.00  0.00    +0.000 OA
ATOM     42  H13 UNL     1      63.295  57.688 105.991  0.00  0.00    +0.000 HD
ENDBRANCH  39  41
BRANCH  39  43
ATOM     43  O5  UNL     1      64.274  60.722 107.541  0.00  0.00    +0.000 OA
ATOM     44  H14 UNL     1      64.655  60.325 108.364  0.00  0.00    +0.000 HD
ENDBRANCH  39  43
ENDBRANCH  34  39
ENDBRANCH  31  32
ENDBRANCH   5  31
TORSDOF 11
ENDMDL
MODEL 13
REMARK VINA RESULT:      -6.6     16.110     19.588
REMARK  Name = ./S3038.pdb
REMARK  12 active torsions:
REMARK  status: ('A' for Active; 'I' for Inactive)
REMARK    1  A    between atoms: C1_1  and  C2_2
REMARK    2  A    between atoms: C2_2  and  O1_3
REMARK    3  A    between atoms: C2_2  and  C16_28
REMARK    4  A    between atoms: O1_3  and  C3_4
REMARK    5  A    between atoms: N1_8  and  C6_9
REMARK    6  A    between atoms: C6_9  and  C7_10
REMARK    7  A    between atoms: N3_12  and  P1_16
REMARK    8  A    between atoms: P1_16  and  O4_17
REMARK    9  A    between atoms: P1_16  and  O5_18
REMARK   10  A    between atoms: C9_20  and  C10_21
REMARK   11  A    between atoms: C18_30  and  C23_38
REMARK   12  A    between atoms: C20_32  and  C22_34
REMARK                            x       y       z     vdW  Elec       q    Type
REMARK                         _______ _______ _______ _____ _____    ______ ____
ROOT
ATOM      1  C3  UNL     1      75.833  63.575 117.313  0.00  0.00    +0.000 C 
ATOM      2  O2  UNL     1      75.081  63.299 118.479  0.00  0.00    +0.000 OA
ATOM      3  C4  UNL     1      73.937  64.120 118.536  0.00  0.00    +0.000 C 
ATOM      4  C5  UNL     1      73.001  63.821 117.362  0.00  0.00    +0.000 C 
ATOM      5  N1  UNL     1      73.675  64.002 116.059  0.00  0.00    +0.000 NA
ATOM      6  C9  UNL     1      74.991  63.315 116.019  0.00  0.00    +0.000 C 
ENDROOT
BRANCH   6   7
ATOM      7  C10 UNL     1      74.791  61.848 115.657  0.00  0.00    +0.000 A 
ATOM      8  C11 UNL     1      74.518  61.517 114.315  0.00  0.00    +0.000 A 
ATOM      9  C12 UNL     1      74.334  60.186 113.933  0.00  0.00    +0.000 A 
ATOM     10  C13 UNL     1      74.400  59.168 114.884  0.00  0.00    +0.000 A 
ATOM     11  F1  UNL     1      74.229  57.876 114.512  0.00  0.00    +0.000 F 
ATOM     12  C14 UNL     1      74.637  59.482 116.223  0.00  0.00    +0.000 A 
ATOM     13  C15 UNL     1      74.823  60.812 116.613  0.00  0.00    +0.000 A 
ENDBRANCH   6   7
BRANCH   1  14
ATOM     14  O1  UNL     1      76.989  62.751 117.349  0.00  0.00    +0.000 OA
BRANCH  14  16
ATOM     15  C1  UNL     1      79.344  63.191 117.231  0.00  0.00    +0.000 C 
ATOM     16  C2  UNL     1      78.017  63.197 116.474  0.00  0.00    +0.000 C 
BRANCH  16  17
ATOM     17  C16 UNL     1      78.096  62.269 115.282  0.00  0.00    +0.000 A 
ATOM     18  C17 UNL     1      78.294  60.891 115.466  0.00  0.00    +0.000 A 
ATOM     19  C18 UNL     1      78.322  60.015 114.369  0.00  0.00    +0.000 A 
ATOM     20  C19 UNL     1      78.197  60.540 113.073  0.00  0.00    +0.000 A 
ATOM     21  C20 UNL     1      77.978  61.913 112.870  0.00  0.00    +0.000 A 
ATOM     22  C21 UNL     1      77.956  62.774 113.980  0.00  0.00    +0.000 A 
BRANCH  21  23
ATOM     23  C22 UNL     1      77.858  62.468 111.474  0.00  0.00    +0.000 C 
ATOM     24  F2  UNL     1      77.324  61.521 110.618  0.00  0.00    +0.000 F 
ATOM     25  F3  UNL     1      77.033  63.575 111.494  0.00  0.00    +0.000 F 
ATOM     26  F4  UNL     1      79.099  62.839 110.986  0.00  0.00    +0.000 F 
ENDBRANCH  21  23
BRANCH  19  27
ATOM     27  C23 UNL     1      78.575  58.542 114.570  0.00  0.00    +0.000 C 
ATOM     28  F5  UNL     1      79.359  58.323 115.689  0.00  0.00    +0.000 F 
ATOM     29  F6  UNL     1      79.224  58.037 113.460  0.00  0.00    +0.000 F 
ATOM     30  F7  UNL     1      77.380  57.864 114.742  0.00  0.00    +0.000 F 
ENDBRANCH  19  27
ENDBRANCH  16  17
ENDBRANCH  14  16
ENDBRANCH   1  14
BRANCH   5  31
ATOM     31  C6  UNL     1      73.769  65.423 115.656  0.00  0.00    +0.000 C 
BRANCH  31  32
ATOM     32  C7  UNL     1      73.817  65.553 114.165  0.00  0.00    +0.000 A 
ATOM     33  N2  UNL     1      72.762  65.304 113.356  0.00  0.00    +0.000 NA
ATOM     34  N3  UNL     1      73.199  65.525 112.127  0.00  0.00    +0.000 N 
ATOM     35  C8  UNL     1      74.494  65.873 112.200  0.00  0.00    +0.000 A 
ATOM     36  O3  UNL     1      75.226  66.116 111.204  0.00  0.00    +0.000 OA
ATOM     37  N4  UNL     1      74.919  65.916 113.472  0.00  0.00    +0.000 N 
ATOM     38  H12 UNL     1      75.871  66.147 113.835  0.00  0.00    +0.000 HD
BRANCH  34  39
ATOM     39  P1  UNL     1      72.253  65.235 110.678  0.00  0.00    +0.000 P 
ATOM     40  O6  UNL     1      72.485  63.823 110.190  0.00  0.00    +0.000 OA
BRANCH  39  41
ATOM     41  O4  UNL     1      72.719  66.324 109.468  0.00  0.00    +0.000 OA
ATOM     42  H13 UNL     1      73.695  66.190 109.370  0.00  0.00    +0.000 HD
ENDBRANCH  39  41
BRANCH  39  43
ATOM     43  O5  UNL     1      70.610  65.445 111.025  0.00  0.00    +0.000 OA
ATOM     44  H14 UNL     1      70.564  66.307 111.510  0.00  0.00    +0.000 HD
ENDBRANCH  39  43
ENDBRANCH  34  39
ENDBRANCH  31  32
ENDBRANCH   5  31
TORSDOF 11
ENDMDL
MODEL 14
REMARK VINA RESULT:      -6.6     16.472     20.011
REMARK  Name = ./S3038.pdb
REMARK  12 active torsions:
REMARK  status: ('A' for Active; 'I' for Inactive)
REMARK    1  A    between atoms: C1_1  and  C2_2
REMARK    2  A    between atoms: C2_2  and  O1_3
REMARK    3  A    between atoms: C2_2  and  C16_28
REMARK    4  A    between atoms: O1_3  and  C3_4
REMARK    5  A    between atoms: N1_8  and  C6_9
REMARK    6  A    between atoms: C6_9  and  C7_10
REMARK    7  A    between atoms: N3_12  and  P1_16
REMARK    8  A    between atoms: P1_16  and  O4_17
REMARK    9  A    between atoms: P1_16  and  O5_18
REMARK   10  A    between atoms: C9_20  and  C10_21
REMARK   11  A    between atoms: C18_30  and  C23_38
REMARK   12  A    between atoms: C20_32  and  C22_34
REMARK                            x       y       z     vdW  Elec       q    Type
REMARK                         _______ _______ _______ _____ _____    ______ ____
ROOT
ATOM      1  C3  UNL     1      76.359  63.136 117.717  0.00  0.00    +0.000 C 
ATOM      2  O2  UNL     1      75.831  62.784 118.982  0.00  0.00    +0.000 OA
ATOM      3  C4  UNL     1      74.659  63.518 119.251  0.00  0.00    +0.000 C 
ATOM      4  C5  UNL     1      73.563  63.171 118.238  0.00  0.00    +0.000 C 
ATOM      5  N1  UNL     1      73.998  63.425 116.848  0.00  0.00    +0.000 NA
ATOM      6  C9  UNL     1      75.333  62.838 116.572  0.00  0.00    +0.000 C 
ENDROOT
BRANCH   6   7
ATOM      7  C10 UNL     1      75.178  61.366 116.204  0.00  0.00    +0.000 A 
ATOM      8  C11 UNL     1      74.733  61.040 114.907  0.00  0.00    +0.000 A 
ATOM      9  C12 UNL     1      74.583  59.706 114.521  0.00  0.00    +0.000 A 
ATOM     10  C13 UNL     1      74.854  58.680 115.425  0.00  0.00    +0.000 A 
ATOM     11  F1  UNL     1      74.714  57.385 115.048  0.00  0.00    +0.000 F 
ATOM     12  C14 UNL     1      75.264  58.986 116.724  0.00  0.00    +0.000 A 
ATOM     13  C15 UNL     1      75.418  60.319 117.117  0.00  0.00    +0.000 A 
ENDBRANCH   6   7
BRANCH   1  14
ATOM     14  O1  UNL     1      77.558  62.398 117.538  0.00  0.00    +0.000 OA
BRANCH  14  16
ATOM     15  C1  UNL     1      79.816  63.045 117.051  0.00  0.00    +0.000 C 
ATOM     16  C2  UNL     1      78.390  62.930 116.516  0.00  0.00    +0.000 C 
BRANCH  16  17
ATOM     17  C16 UNL     1      78.361  62.006 115.317  0.00  0.00    +0.000 A 
ATOM     18  C17 UNL     1      78.020  62.501 114.048  0.00  0.00    +0.000 A 
ATOM     19  C18 UNL     1      78.036  61.662 112.921  0.00  0.00    +0.000 A 
ATOM     20  C19 UNL     1      78.352  60.304 113.085  0.00  0.00    +0.000 A 
ATOM     21  C20 UNL     1      78.715  59.796 114.344  0.00  0.00    +0.000 A 
ATOM     22  C21 UNL     1      78.691  60.649 115.459  0.00  0.00    +0.000 A 
BRANCH  21  23
ATOM     23  C22 UNL     1      79.040  58.334 114.511  0.00  0.00    +0.000 C 
ATOM     24  F2  UNL     1      79.965  57.929 113.565  0.00  0.00    +0.000 F 
ATOM     25  F3  UNL     1      79.563  58.126 115.773  0.00  0.00    +0.000 F 
ATOM     26  F4  UNL     1      77.903  57.559 114.361  0.00  0.00    +0.000 F 
ENDBRANCH  21  23
BRANCH  19  27
ATOM     27  C23 UNL     1      77.631  62.189 111.567  0.00  0.00    +0.000 C 
ATOM     28  F5  UNL     1      76.565  61.471 111.056  0.00  0.00    +0.000 F 
ATOM     29  F6  UNL     1      78.701  62.084 110.700  0.00  0.00    +0.000 F 
ATOM     30  F7  UNL     1      77.252  63.518 111.657  0.00  0.00    +0.000 F 
ENDBRANCH  19  27
ENDBRANCH  16  17
ENDBRANCH  14  16
ENDBRANCH   1  14
BRANCH   5  31
ATOM     31  C6  UNL     1      73.925  64.856 116.478  0.00  0.00    +0.000 C 
BRANCH  31  32
ATOM     32  C7  UNL     1      73.771  65.017 114.997  0.00  0.00    +0.000 A 
ATOM     33  N2  UNL     1      74.404  65.970 114.276  0.00  0.00    +0.000 NA
ATOM     34  N3  UNL     1      74.012  65.787 113.026  0.00  0.00    +0.000 N 
ATOM     35  C8  UNL     1      73.143  64.764 113.006  0.00  0.00    +0.000 A 
ATOM     36  O3  UNL     1      72.548  64.351 111.974  0.00  0.00    +0.000 OA
ATOM     37  N4  UNL     1      72.974  64.240 114.230  0.00  0.00    +0.000 N 
ATOM     38  H12 UNL     1      72.361  63.446 114.521  0.00  0.00    +0.000 HD
BRANCH  34  39
ATOM     39  P1  UNL     1      74.453  66.838 111.691  0.00  0.00    +0.000 P 
ATOM     40  O6  UNL     1      75.572  66.208 110.894  0.00  0.00    +0.000 OA
BRANCH  39  41
ATOM     41  O4  UNL     1      74.973  68.332 112.292  0.00  0.00    +0.000 OA
ATOM     42  H13 UNL     1      75.429  68.117 113.145  0.00  0.00    +0.000 HD
ENDBRANCH  39  41
BRANCH  39  43
ATOM     43  O5  UNL     1      73.110  67.068 110.687  0.00  0.00    +0.000 OA
ATOM     44  H14 UNL     1      72.769  66.156 110.512  0.00  0.00    +0.000 HD
ENDBRANCH  39  43
ENDBRANCH  34  39
ENDBRANCH  31  32
ENDBRANCH   5  31
TORSDOF 11
ENDMDL
MODEL 15
REMARK VINA RESULT:      -6.6     11.821     15.225
REMARK  Name = ./S3038.pdb
REMARK  12 active torsions:
REMARK  status: ('A' for Active; 'I' for Inactive)
REMARK    1  A    between atoms: C1_1  and  C2_2
REMARK    2  A    between atoms: C2_2  and  O1_3
REMARK    3  A    between atoms: C2_2  and  C16_28
REMARK    4  A    between atoms: O1_3  and  C3_4
REMARK    5  A    between atoms: N1_8  and  C6_9
REMARK    6  A    between atoms: C6_9  and  C7_10
REMARK    7  A    between atoms: N3_12  and  P1_16
REMARK    8  A    between atoms: P1_16  and  O4_17
REMARK    9  A    between atoms: P1_16  and  O5_18
REMARK   10  A    between atoms: C9_20  and  C10_21
REMARK   11  A    between atoms: C18_30  and  C23_38
REMARK   12  A    between atoms: C20_32  and  C22_34
REMARK                            x       y       z     vdW  Elec       q    Type
REMARK                         _______ _______ _______ _____ _____    ______ ____
ROOT
ATOM      1  C3  UNL     1      72.806  65.652 108.167  0.00  0.00    +0.000 C 
ATOM      2  O2  UNL     1      71.819  65.361 109.138  0.00  0.00    +0.000 OA
ATOM      3  C4  UNL     1      70.901  66.426 109.244  0.00  0.00    +0.000 C 
ATOM      4  C5  UNL     1      70.141  66.614 107.928  0.00  0.00    +0.000 C 
ATOM      5  N1  UNL     1      71.057  66.861 106.793  0.00  0.00    +0.000 NA
ATOM      6  C9  UNL     1      72.166  65.876 106.756  0.00  0.00    +0.000 C 
ENDROOT
BRANCH   6   7
ATOM      7  C10 UNL     1      71.703  64.610 106.044  0.00  0.00    +0.000 A 
ATOM      8  C11 UNL     1      72.460  64.135 104.954  0.00  0.00    +0.000 A 
ATOM      9  C12 UNL     1      72.079  62.976 104.274  0.00  0.00    +0.000 A 
ATOM     10  C13 UNL     1      70.930  62.285 104.656  0.00  0.00    +0.000 A 
ATOM     11  F1  UNL     1      70.564  61.157 103.999  0.00  0.00    +0.000 F 
ATOM     12  C14 UNL     1      70.150  62.760 105.711  0.00  0.00    +0.000 A 
ATOM     13  C15 UNL     1      70.526  63.920 106.398  0.00  0.00    +0.000 A 
ENDBRANCH   6   7
BRANCH   1  14
ATOM     14  O1  UNL     1      73.718  64.564 108.152  0.00  0.00    +0.000 OA
BRANCH  14  16
ATOM     15  C1  UNL     1      73.464  62.202 108.488  0.00  0.00    +0.000 C 
ATOM     16  C2  UNL     1      73.430  63.583 109.140  0.00  0.00    +0.000 C 
BRANCH  16  17
ATOM     17  C16 UNL     1      74.466  63.662 110.240  0.00  0.00    +0.000 A 
ATOM     18  C17 UNL     1      75.750  63.129 110.046  0.00  0.00    +0.000 A 
ATOM     19  C18 UNL     1      76.733  63.239 111.043  0.00  0.00    +0.000 A 
ATOM     20  C19 UNL     1      76.403  63.851 112.263  0.00  0.00    +0.000 A 
ATOM     21  C20 UNL     1      75.130  64.408 112.468  0.00  0.00    +0.000 A 
ATOM     22  C21 UNL     1      74.159  64.285 111.460  0.00  0.00    +0.000 A 
BRANCH  21  23
ATOM     23  C22 UNL     1      74.782  65.050 113.785  0.00  0.00    +0.000 C 
ATOM     24  F2  UNL     1      75.006  66.415 113.736  0.00  0.00    +0.000 F 
ATOM     25  F3  UNL     1      73.448  64.822 114.065  0.00  0.00    +0.000 F 
ATOM     26  F4  UNL     1      75.554  64.523 114.806  0.00  0.00    +0.000 F 
ENDBRANCH  21  23
BRANCH  19  27
ATOM     27  C23 UNL     1      78.098  62.628 110.844  0.00  0.00    +0.000 C 
ATOM     28  F5  UNL     1      78.056  61.256 111.018  0.00  0.00    +0.000 F 
ATOM     29  F6  UNL     1      78.976  63.171 111.763  0.00  0.00    +0.000 F 
ATOM     30  F7  UNL     1      78.564  62.887 109.567  0.00  0.00    +0.000 F 
ENDBRANCH  19  27
ENDBRANCH  16  17
ENDBRANCH  14  16
ENDBRANCH   1  14
BRANCH   5  31
ATOM     31  C6  UNL     1      71.542  68.258 106.744  0.00  0.00    +0.000 C 
BRANCH  31  32
ATOM     32  C7  UNL     1      70.462  69.182 106.273  0.00  0.00    +0.000 A 
ATOM     33  N2  UNL     1      70.298  69.548 104.982  0.00  0.00    +0.000 NA
ATOM     34  N3  UNL     1      69.254  70.361 104.974  0.00  0.00    +0.000 N 
ATOM     35  C8  UNL     1      68.821  70.497 106.237  0.00  0.00    +0.000 A 
ATOM     36  O3  UNL     1      67.862  71.236 106.589  0.00  0.00    +0.000 OA
ATOM     37  N4  UNL     1      69.549  69.757 107.088  0.00  0.00    +0.000 N 
ATOM     38  H12 UNL     1      69.450  69.667 108.123  0.00  0.00    +0.000 HD
BRANCH  34  39
ATOM     39  P1  UNL     1      68.683  71.218 103.552  0.00  0.00    +0.000 P 
ATOM     40  O6  UNL     1      67.761  70.324 102.754  0.00  0.00    +0.000 OA
BRANCH  39  41
ATOM     41  O4  UNL     1      70.001  71.659 102.587  0.00  0.00    +0.000 OA
ATOM     42  H13 UNL     1      70.565  72.225 103.172  0.00  0.00    +0.000 HD
ENDBRANCH  39  41
BRANCH  39  43
ATOM     43  O5  UNL     1      67.841  72.606 104.031  0.00  0.00    +0.000 OA
ATOM     44  H14 UNL     1      66.979  72.556 103.546  0.00  0.00    +0.000 HD
ENDBRANCH  39  43
ENDBRANCH  34  39
ENDBRANCH  31  32
ENDBRANCH   5  31
TORSDOF 11
ENDMDL
MODEL 16
REMARK VINA RESULT:      -6.6     11.840     15.018
REMARK  Name = ./S3038.pdb
REMARK  12 active torsions:
REMARK  status: ('A' for Active; 'I' for Inactive)
REMARK    1  A    between atoms: C1_1  and  C2_2
REMARK    2  A    between atoms: C2_2  and  O1_3
REMARK    3  A    between atoms: C2_2  and  C16_28
REMARK    4  A    between atoms: O1_3  and  C3_4
REMARK    5  A    between atoms: N1_8  and  C6_9
REMARK    6  A    between atoms: C6_9  and  C7_10
REMARK    7  A    between atoms: N3_12  and  P1_16
REMARK    8  A    between atoms: P1_16  and  O4_17
REMARK    9  A    between atoms: P1_16  and  O5_18
REMARK   10  A    between atoms: C9_20  and  C10_21
REMARK   11  A    between atoms: C18_30  and  C23_38
REMARK   12  A    between atoms: C20_32  and  C22_34
REMARK                            x       y       z     vdW  Elec       q    Type
REMARK                         _______ _______ _______ _____ _____    ______ ____
ROOT
ATOM      1  C3  UNL     1      72.827  65.669 108.173  0.00  0.00    +0.000 C 
ATOM      2  O2  UNL     1      71.842  65.391 109.150  0.00  0.00    +0.000 OA
ATOM      3  C4  UNL     1      70.925  66.458 109.245  0.00  0.00    +0.000 C 
ATOM      4  C5  UNL     1      70.162  66.631 107.929  0.00  0.00    +0.000 C 
ATOM      5  N1  UNL     1      71.076  66.863 106.789  0.00  0.00    +0.000 NA
ATOM      6  C9  UNL     1      72.184  65.877 106.761  0.00  0.00    +0.000 C 
ENDROOT
BRANCH   6   7
ATOM      7  C10 UNL     1      71.717  64.604 106.065  0.00  0.00    +0.000 A 
ATOM      8  C11 UNL     1      72.484  64.102 104.994  0.00  0.00    +0.000 A 
ATOM      9  C12 UNL     1      72.101  62.935 104.329  0.00  0.00    +0.000 A 
ATOM     10  C13 UNL     1      70.939  62.262 104.708  0.00  0.00    +0.000 A 
ATOM     11  F1  UNL     1      70.571  61.125 104.067  0.00  0.00    +0.000 F 
ATOM     12  C14 UNL     1      70.151  62.763 105.744  0.00  0.00    +0.000 A 
ATOM     13  C15 UNL     1      70.529  63.931 106.416  0.00  0.00    +0.000 A 
ENDBRANCH   6   7
BRANCH   1  14
ATOM     14  O1  UNL     1      73.738  64.580 108.169  0.00  0.00    +0.000 OA
BRANCH  14  16
ATOM     15  C1  UNL     1      73.473  62.220 108.510  0.00  0.00    +0.000 C 
ATOM     16  C2  UNL     1      73.441  63.603 109.158  0.00  0.00    +0.000 C 
BRANCH  16  17
ATOM     17  C16 UNL     1      74.472  63.682 110.264  0.00  0.00    +0.000 A 
ATOM     18  C17 UNL     1      74.150  64.275 111.494  0.00  0.00    +0.000 A 
ATOM     19  C18 UNL     1      75.084  64.311 112.542  0.00  0.00    +0.000 A 
ATOM     20  C19 UNL     1      76.368  63.785 112.330  0.00  0.00    +0.000 A 
ATOM     21  C20 UNL     1      76.702  63.169 111.112  0.00  0.00    +0.000 A 
ATOM     22  C21 UNL     1      75.755  63.146 110.074  0.00  0.00    +0.000 A 
BRANCH  21  23
ATOM     23  C22 UNL     1      78.088  62.621 110.890  0.00  0.00    +0.000 C 
ATOM     24  F2  UNL     1      78.522  62.899 109.605  0.00  0.00    +0.000 F 
ATOM     25  F3  UNL     1      78.957  63.199 111.794  0.00  0.00    +0.000 F 
ATOM     26  F4  UNL     1      78.105  61.248 111.062  0.00  0.00    +0.000 F 
ENDBRANCH  21  23
BRANCH  19  27
ATOM     27  C23 UNL     1      74.746  64.985 113.848  0.00  0.00    +0.000 C 
ATOM     28  F5  UNL     1      74.753  66.362 113.710  0.00  0.00    +0.000 F 
ATOM     29  F6  UNL     1      75.680  64.624 114.801  0.00  0.00    +0.000 F 
ATOM     30  F7  UNL     1      73.489  64.601 114.282  0.00  0.00    +0.000 F 
ENDBRANCH  19  27
ENDBRANCH  16  17
ENDBRANCH  14  16
ENDBRANCH   1  14
BRANCH   5  31
ATOM     31  C6  UNL     1      71.562  68.260 106.722  0.00  0.00    +0.000 C 
BRANCH  31  32
ATOM     32  C7  UNL     1      70.478  69.181 106.256  0.00  0.00    +0.000 A 
ATOM     33  N2  UNL     1      70.315  69.556 104.967  0.00  0.00    +0.000 NA
ATOM     34  N3  UNL     1      69.267  70.364 104.963  0.00  0.00    +0.000 N 
ATOM     35  C8  UNL     1      68.830  70.488 106.227  0.00  0.00    +0.000 A 
ATOM     36  O3  UNL     1      67.867  71.218 106.582  0.00  0.00    +0.000 OA
ATOM     37  N4  UNL     1      69.560  69.745 107.073  0.00  0.00    +0.000 N 
ATOM     38  H12 UNL     1      69.460  69.646 108.108  0.00  0.00    +0.000 HD
BRANCH  34  39
ATOM     39  P1  UNL     1      68.693  71.228 103.547  0.00  0.00    +0.000 P 
ATOM     40  O6  UNL     1      67.738  70.353 102.768  0.00  0.00    +0.000 OA
BRANCH  39  41
ATOM     41  O4  UNL     1      70.006  71.634 102.560  0.00  0.00    +0.000 OA
ATOM     42  H13 UNL     1      70.234  72.564 102.811  0.00  0.00    +0.000 HD
ENDBRANCH  39  41
BRANCH  39  43
ATOM     43  O5  UNL     1      67.892  72.637 104.033  0.00  0.00    +0.000 OA
ATOM     44  H14 UNL     1      68.182  72.780 104.969  0.00  0.00    +0.000 HD
ENDBRANCH  39  43
ENDBRANCH  34  39
ENDBRANCH  31  32
ENDBRANCH   5  31
TORSDOF 11
ENDMDL
MODEL 17
REMARK VINA RESULT:      -6.6     15.657     19.389
REMARK  Name = ./S3038.pdb
REMARK  12 active torsions:
REMARK  status: ('A' for Active; 'I' for Inactive)
REMARK    1  A    between atoms: C1_1  and  C2_2
REMARK    2  A    between atoms: C2_2  and  O1_3
REMARK    3  A    between atoms: C2_2  and  C16_28
REMARK    4  A    between atoms: O1_3  and  C3_4
REMARK    5  A    between atoms: N1_8  and  C6_9
REMARK    6  A    between atoms: C6_9  and  C7_10
REMARK    7  A    between atoms: N3_12  and  P1_16
REMARK    8  A    between atoms: P1_16  and  O4_17
REMARK    9  A    between atoms: P1_16  and  O5_18
REMARK   10  A    between atoms: C9_20  and  C10_21
REMARK   11  A    between atoms: C18_30  and  C23_38
REMARK   12  A    between atoms: C20_32  and  C22_34
REMARK                            x       y       z     vdW  Elec       q    Type
REMARK                         _______ _______ _______ _____ _____    ______ ____
ROOT
ATOM      1  C3  UNL     1      75.719  64.929 116.508  0.00  0.00    +0.000 C 
ATOM      2  O2  UNL     1      75.145  65.521 117.657  0.00  0.00    +0.000 OA
ATOM      3  C4  UNL     1      74.638  66.800 117.355  0.00  0.00    +0.000 C 
ATOM      4  C5  UNL     1      73.501  66.700 116.333  0.00  0.00    +0.000 C 
ATOM      5  N1  UNL     1      73.937  66.033 115.088  0.00  0.00    +0.000 NA
ATOM      6  C9  UNL     1      74.662  64.768 115.365  0.00  0.00    +0.000 C 
ENDROOT
BRANCH   6   7
ATOM      7  C10 UNL     1      73.659  63.637 115.561  0.00  0.00    +0.000 A 
ATOM      8  C11 UNL     1      73.800  62.468 114.786  0.00  0.00    +0.000 A 
ATOM      9  C12 UNL     1      72.910  61.402 114.936  0.00  0.00    +0.000 A 
ATOM     10  C13 UNL     1      71.855  61.492 115.844  0.00  0.00    +0.000 A 
ATOM     11  F1  UNL     1      70.995  60.455 115.994  0.00  0.00    +0.000 F 
ATOM     12  C14 UNL     1      71.681  62.655 116.596  0.00  0.00    +0.000 A 
ATOM     13  C15 UNL     1      72.569  63.726 116.452  0.00  0.00    +0.000 A 
ENDBRANCH   6   7
BRANCH   1  14
ATOM     14  O1  UNL     1      76.251  63.672 116.899  0.00  0.00    +0.000 OA
BRANCH  14  16
ATOM     15  C1  UNL     1      78.375  63.120 117.867  0.00  0.00    +0.000 C 
ATOM     16  C2  UNL     1      77.633  63.535 116.597  0.00  0.00    +0.000 C 
BRANCH  16  17
ATOM     17  C16 UNL     1      77.809  62.480 115.526  0.00  0.00    +0.000 A 
ATOM     18  C17 UNL     1      77.462  62.756 114.194  0.00  0.00    +0.000 A 
ATOM     19  C18 UNL     1      77.666  61.800 113.186  0.00  0.00    +0.000 A 
ATOM     20  C19 UNL     1      78.181  60.541 113.532  0.00  0.00    +0.000 A 
ATOM     21  C20 UNL     1      78.553  60.254 114.856  0.00  0.00    +0.000 A 
ATOM     22  C21 UNL     1      78.338  61.222 115.852  0.00  0.00    +0.000 A 
BRANCH  21  23
ATOM     23  C22 UNL     1      79.091  58.895 115.220  0.00  0.00    +0.000 C 
ATOM     24  F2  UNL     1      78.469  57.909 114.473  0.00  0.00    +0.000 F 
ATOM     25  F3  UNL     1      80.449  58.861 114.968  0.00  0.00    +0.000 F 
ATOM     26  F4  UNL     1      78.873  58.623 116.559  0.00  0.00    +0.000 F 
ENDBRANCH  21  23
BRANCH  19  27
ATOM     27  C23 UNL     1      77.254  62.087 111.763  0.00  0.00    +0.000 C 
ATOM     28  F5  UNL     1      77.940  61.276 110.877  0.00  0.00    +0.000 F 
ATOM     29  F6  UNL     1      77.529  63.409 111.469  0.00  0.00    +0.000 F 
ATOM     30  F7  UNL     1      75.899  61.860 111.595  0.00  0.00    +0.000 F 
ENDBRANCH  19  27
ENDBRANCH  16  17
ENDBRANCH  14  16
ENDBRANCH   1  14
BRANCH   5  31
ATOM     31  C6  UNL     1      74.698  66.933 114.193  0.00  0.00    +0.000 C 
BRANCH  31  32
ATOM     32  C7  UNL     1      74.124  66.922 112.810  0.00  0.00    +0.000 A 
ATOM     33  N2  UNL     1      73.041  66.195 112.454  0.00  0.00    +0.000 NA
ATOM     34  N3  UNL     1      72.852  66.447 111.169  0.00  0.00    +0.000 N 
ATOM     35  C8  UNL     1      73.818  67.286 110.761  0.00  0.00    +0.000 A 
ATOM     36  O3  UNL     1      73.955  67.700 109.579  0.00  0.00    +0.000 OA
ATOM     37  N4  UNL     1      74.635  67.622 111.773  0.00  0.00    +0.000 N 
ATOM     38  H12 UNL     1      75.471  68.248 111.756  0.00  0.00    +0.000 HD
BRANCH  34  39
ATOM     39  P1  UNL     1      71.635  65.662 110.178  0.00  0.00    +0.000 P 
ATOM     40  O6  UNL     1      71.264  64.329 110.786  0.00  0.00    +0.000 OA
BRANCH  39  41
ATOM     41  O4  UNL     1      72.246  65.411 108.620  0.00  0.00    +0.000 OA
ATOM     42  H13 UNL     1      71.448  65.250 108.057  0.00  0.00    +0.000 HD
ENDBRANCH  39  41
BRANCH  39  43
ATOM     43  O5  UNL     1      70.258  66.642 110.095  0.00  0.00    +0.000 OA
ATOM     44  H14 UNL     1      69.752  66.299 109.316  0.00  0.00    +0.000 HD
ENDBRANCH  39  43
ENDBRANCH  34  39
ENDBRANCH  31  32
ENDBRANCH   5  31
TORSDOF 11
ENDMDL
MODEL 18
REMARK VINA RESULT:      -6.5      9.984     12.687
REMARK  Name = ./S3038.pdb
REMARK  12 active torsions:
REMARK  status: ('A' for Active; 'I' for Inactive)
REMARK    1  A    between atoms: C1_1  and  C2_2
REMARK    2  A    between atoms: C2_2  and  O1_3
REMARK    3  A    between atoms: C2_2  and  C16_28
REMARK    4  A    between atoms: O1_3  and  C3_4
REMARK    5  A    between atoms: N1_8  and  C6_9
REMARK    6  A    between atoms: C6_9  and  C7_10
REMARK    7  A    between atoms: N3_12  and  P1_16
REMARK    8  A    between atoms: P1_16  and  O4_17
REMARK    9  A    between atoms: P1_16  and  O5_18
REMARK   10  A    between atoms: C9_20  and  C10_21
REMARK   11  A    between atoms: C18_30  and  C23_38
REMARK   12  A    between atoms: C20_32  and  C22_34
REMARK                            x       y       z     vdW  Elec       q    Type
REMARK                         _______ _______ _______ _____ _____    ______ ____
ROOT
ATOM      1  C3  UNL     1      72.250  60.945 106.999  0.00  0.00    +0.000 C 
ATOM      2  O2  UNL     1      72.295  59.971 108.024  0.00  0.00    +0.000 OA
ATOM      3  C4  UNL     1      72.753  58.739 107.517  0.00  0.00    +0.000 C 
ATOM      4  C5  UNL     1      74.192  58.867 107.009  0.00  0.00    +0.000 C 
ATOM      5  N1  UNL     1      74.317  59.909 105.967  0.00  0.00    +0.000 NA
ATOM      6  C9  UNL     1      73.667  61.179 106.376  0.00  0.00    +0.000 C 
ENDROOT
BRANCH   6   7
ATOM      7  C10 UNL     1      74.629  61.991 107.236  0.00  0.00    +0.000 A 
ATOM      8  C11 UNL     1      75.293  63.088 106.650  0.00  0.00    +0.000 A 
ATOM      9  C12 UNL     1      76.178  63.867 107.399  0.00  0.00    +0.000 A 
ATOM     10  C13 UNL     1      76.430  63.554 108.734  0.00  0.00    +0.000 A 
ATOM     11  F1  UNL     1      77.285  64.314 109.462  0.00  0.00    +0.000 F 
ATOM     12  C14 UNL     1      75.807  62.451 109.320  0.00  0.00    +0.000 A 
ATOM     13  C15 UNL     1      74.918  61.667 108.577  0.00  0.00    +0.000 A 
ENDBRANCH   6   7
BRANCH   1  14
ATOM     14  O1  UNL     1      71.735  62.138 107.570  0.00  0.00    +0.000 OA
BRANCH  14  16
ATOM     15  C1  UNL     1      70.138  63.126 106.079  0.00  0.00    +0.000 C 
ATOM     16  C2  UNL     1      71.565  63.181 106.619  0.00  0.00    +0.000 C 
BRANCH  16  17
ATOM     17  C16 UNL     1      71.815  64.514 107.290  0.00  0.00    +0.000 A 
ATOM     18  C17 UNL     1      71.543  65.713 106.611  0.00  0.00    +0.000 A 
ATOM     19  C18 UNL     1      71.726  66.954 107.242  0.00  0.00    +0.000 A 
ATOM     20  C19 UNL     1      72.232  66.987 108.551  0.00  0.00    +0.000 A 
ATOM     21  C20 UNL     1      72.490  65.798 109.254  0.00  0.00    +0.000 A 
ATOM     22  C21 UNL     1      72.303  64.566 108.605  0.00  0.00    +0.000 A 
BRANCH  21  23
ATOM     23  C22 UNL     1      73.045  65.845 110.654  0.00  0.00    +0.000 C 
ATOM     24  F2  UNL     1      74.237  65.146 110.729  0.00  0.00    +0.000 F 
ATOM     25  F3  UNL     1      73.269  67.160 111.010  0.00  0.00    +0.000 F 
ATOM     26  F4  UNL     1      72.157  65.278 111.552  0.00  0.00    +0.000 F 
ENDBRANCH  21  23
BRANCH  19  27
ATOM     27  C23 UNL     1      71.471  68.239 106.494  0.00  0.00    +0.000 C 
ATOM     28  F5  UNL     1      71.923  68.149 105.189  0.00  0.00    +0.000 F 
ATOM     29  F6  UNL     1      72.133  69.273 107.129  0.00  0.00    +0.000 F 
ATOM     30  F7  UNL     1      70.117  68.522 106.463  0.00  0.00    +0.000 F 
ENDBRANCH  19  27
ENDBRANCH  16  17
ENDBRANCH  14  16
ENDBRANCH   1  14
BRANCH   5  31
ATOM     31  C6  UNL     1      73.861  59.445 104.638  0.00  0.00    +0.000 C 
BRANCH  31  32
ATOM     32  C7  UNL     1      73.249  60.570 103.862  0.00  0.00    +0.000 A 
ATOM     33  N2  UNL     1      71.991  60.542 103.367  0.00  0.00    +0.000 NA
ATOM     34  N3  UNL     1      71.827  61.702 102.751  0.00  0.00    +0.000 N 
ATOM     35  C8  UNL     1      72.971  62.396 102.855  0.00  0.00    +0.000 A 
ATOM     36  O3  UNL     1      73.168  63.531 102.344  0.00  0.00    +0.000 OA
ATOM     37  N4  UNL     1      73.892  61.721 103.562  0.00  0.00    +0.000 N 
ATOM     38  H12 UNL     1      74.868  62.004 103.799  0.00  0.00    +0.000 HD
BRANCH  34  39
ATOM     39  P1  UNL     1      70.396  62.136 101.831  0.00  0.00    +0.000 P 
ATOM     40  O6  UNL     1      69.648  60.885 101.430  0.00  0.00    +0.000 OA
BRANCH  39  41
ATOM     41  O4  UNL     1      70.853  62.981 100.437  0.00  0.00    +0.000 OA
ATOM     42  H13 UNL     1      70.000  63.256 100.017  0.00  0.00    +0.000 HD
ENDBRANCH  39  41
BRANCH  39  43
ATOM     43  O5  UNL     1      69.390  63.111 102.780  0.00  0.00    +0.000 OA
ATOM     44  H14 UNL     1      68.740  62.483 103.184  0.00  0.00    +0.000 HD
ENDBRANCH  39  43
ENDBRANCH  34  39
ENDBRANCH  31  32
ENDBRANCH   5  31
TORSDOF 11
ENDMDL
MODEL 19
REMARK VINA RESULT:      -6.5     18.511     21.722
REMARK  Name = ./S3038.pdb
REMARK  12 active torsions:
REMARK  status: ('A' for Active; 'I' for Inactive)
REMARK    1  A    between atoms: C1_1  and  C2_2
REMARK    2  A    between atoms: C2_2  and  O1_3
REMARK    3  A    between atoms: C2_2  and  C16_28
REMARK    4  A    between atoms: O1_3  and  C3_4
REMARK    5  A    between atoms: N1_8  and  C6_9
REMARK    6  A    between atoms: C6_9  and  C7_10
REMARK    7  A    between atoms: N3_12  and  P1_16
REMARK    8  A    between atoms: P1_16  and  O4_17
REMARK    9  A    between atoms: P1_16  and  O5_18
REMARK   10  A    between atoms: C9_20  and  C10_21
REMARK   11  A    between atoms: C18_30  and  C23_38
REMARK   12  A    between atoms: C20_32  and  C22_34
REMARK                            x       y       z     vdW  Elec       q    Type
REMARK                         _______ _______ _______ _____ _____    ______ ____
ROOT
ATOM      1  C3  UNL     1      61.178  58.625 102.214  0.00  0.00    +0.000 C 
ATOM      2  O2  UNL     1      61.754  58.984 100.973  0.00  0.00    +0.000 OA
ATOM      3  C4  UNL     1      62.709  60.005 101.147  0.00  0.00    +0.000 C 
ATOM      4  C5  UNL     1      63.872  59.512 102.013  0.00  0.00    +0.000 C 
ATOM      5  N1  UNL     1      63.411  59.033 103.334  0.00  0.00    +0.000 NA
ATOM      6  C9  UNL     1      62.263  58.101 103.212  0.00  0.00    +0.000 C 
ENDROOT
BRANCH   6   7
ATOM      7  C10 UNL     1      62.776  56.692 102.935  0.00  0.00    +0.000 A 
ATOM      8  C11 UNL     1      63.302  55.943 104.007  0.00  0.00    +0.000 A 
ATOM      9  C12 UNL     1      63.778  54.646 103.803  0.00  0.00    +0.000 A 
ATOM     10  C13 UNL     1      63.754  54.083 102.528  0.00  0.00    +0.000 A 
ATOM     11  F1  UNL     1      64.210  52.821 102.332  0.00  0.00    +0.000 F 
ATOM     12  C14 UNL     1      63.267  54.822 101.449  0.00  0.00    +0.000 A 
ATOM     13  C15 UNL     1      62.788  56.122 101.645  0.00  0.00    +0.000 A 
ENDBRANCH   6   7
BRANCH   1  14
ATOM     14  O1  UNL     1      60.195  57.633 101.954  0.00  0.00    +0.000 OA
BRANCH  14  16
ATOM     15  C1  UNL     1      57.861  57.348 102.426  0.00  0.00    +0.000 C 
ATOM     16  C2  UNL     1      59.264  57.481 103.016  0.00  0.00    +0.000 C 
BRANCH  16  17
ATOM     17  C16 UNL     1      59.611  56.242 103.812  0.00  0.00    +0.000 A 
ATOM     18  C17 UNL     1      59.756  55.002 103.169  0.00  0.00    +0.000 A 
ATOM     19  C18 UNL     1      60.125  53.856 103.891  0.00  0.00    +0.000 A 
ATOM     20  C19 UNL     1      60.302  53.952 105.281  0.00  0.00    +0.000 A 
ATOM     21  C20 UNL     1      60.181  55.187 105.939  0.00  0.00    +0.000 A 
ATOM     22  C21 UNL     1      59.809  56.323 105.199  0.00  0.00    +0.000 A 
BRANCH  21  23
ATOM     23  C22 UNL     1      60.360  55.277 107.432  0.00  0.00    +0.000 C 
ATOM     24  F2  UNL     1      61.622  55.753 107.744  0.00  0.00    +0.000 F 
ATOM     25  F3  UNL     1      59.412  56.136 107.953  0.00  0.00    +0.000 F 
ATOM     26  F4  UNL     1      60.213  54.032 108.018  0.00  0.00    +0.000 F 
ENDBRANCH  21  23
BRANCH  19  27
ATOM     27  C23 UNL     1      60.240  52.519 103.202  0.00  0.00    +0.000 C 
ATOM     28  F5  UNL     1      60.331  52.677 101.830  0.00  0.00    +0.000 F 
ATOM     29  F6  UNL     1      59.122  51.760 103.494  0.00  0.00    +0.000 F 
ATOM     30  F7  UNL     1      61.368  51.845 103.635  0.00  0.00    +0.000 F 
ENDBRANCH  19  27
ENDBRANCH  16  17
ENDBRANCH  14  16
ENDBRANCH   1  14
BRANCH   5  31
ATOM     31  C6  UNL     1      63.141  60.138 104.280  0.00  0.00    +0.000 C 
BRANCH  31  32
ATOM     32  C7  UNL     1      63.119  59.639 105.692  0.00  0.00    +0.000 A 
ATOM     33  N2  UNL     1      64.224  59.249 106.367  0.00  0.00    +0.000 NA
ATOM     34  N3  UNL     1      63.796  58.878 107.562  0.00  0.00    +0.000 N 
ATOM     35  C8  UNL     1      62.461  59.019 107.590  0.00  0.00    +0.000 A 
ATOM     36  O3  UNL     1      61.731  58.717 108.572  0.00  0.00    +0.000 OA
ATOM     37  N4  UNL     1      61.995  59.511 106.431  0.00  0.00    +0.000 N 
ATOM     38  H12 UNL     1      61.008  59.719 106.161  0.00  0.00    +0.000 HD
BRANCH  34  39
ATOM     39  P1  UNL     1      64.820  58.173 108.801  0.00  0.00    +0.000 P 
ATOM     40  O6  UNL     1      65.385  59.266 109.680  0.00  0.00    +0.000 OA
BRANCH  39  41
ATOM     41  O4  UNL     1      66.095  57.332 108.072  0.00  0.00    +0.000 OA
ATOM     42  H13 UNL     1      66.236  57.788 107.205  0.00  0.00    +0.000 HD
ENDBRANCH  39  41
BRANCH  39  43
ATOM     43  O5  UNL     1      63.907  57.108 109.748  0.00  0.00    +0.000 OA
ATOM     44  H14 UNL     1      63.960  57.479 110.664  0.00  0.00    +0.000 HD
ENDBRANCH  39  43
ENDBRANCH  34  39
ENDBRANCH  31  32
ENDBRANCH   5  31
TORSDOF 11
ENDMDL
MODEL 20
REMARK VINA RESULT:      -6.4     11.088     14.575
REMARK  Name = ./S3038.pdb
REMARK  12 active torsions:
REMARK  status: ('A' for Active; 'I' for Inactive)
REMARK    1  A    between atoms: C1_1  and  C2_2
REMARK    2  A    between atoms: C2_2  and  O1_3
REMARK    3  A    between atoms: C2_2  and  C16_28
REMARK    4  A    between atoms: O1_3  and  C3_4
REMARK    5  A    between atoms: N1_8  and  C6_9
REMARK    6  A    between atoms: C6_9  and  C7_10
REMARK    7  A    between atoms: N3_12  and  P1_16
REMARK    8  A    between atoms: P1_16  and  O4_17
REMARK    9  A    between atoms: P1_16  and  O5_18
REMARK   10  A    between atoms: C9_20  and  C10_21
REMARK   11  A    between atoms: C18_30  and  C23_38
REMARK   12  A    between atoms: C20_32  and  C22_34
REMARK                            x       y       z     vdW  Elec       q    Type
REMARK                         _______ _______ _______ _____ _____    ______ ____
ROOT
ATOM      1  C3  UNL     1      74.275  61.578 106.226  0.00  0.00    +0.000 C 
ATOM      2  O2  UNL     1      74.876  61.032 105.067  0.00  0.00    +0.000 OA
ATOM      3  C4  UNL     1      74.264  61.542 103.905  0.00  0.00    +0.000 C 
ATOM      4  C5  UNL     1      74.477  63.055 103.804  0.00  0.00    +0.000 C 
ATOM      5  N1  UNL     1      73.955  63.765 104.992  0.00  0.00    +0.000 NA
ATOM      6  C9  UNL     1      74.414  63.136 106.256  0.00  0.00    +0.000 C 
ENDROOT
BRANCH   6   7
ATOM      7  C10 UNL     1      75.801  63.659 106.613  0.00  0.00    +0.000 A 
ATOM      8  C11 UNL     1      75.900  64.774 107.470  0.00  0.00    +0.000 A 
ATOM      9  C12 UNL     1      77.149  65.285 107.831  0.00  0.00    +0.000 A 
ATOM     10  C13 UNL     1      78.314  64.707 107.330  0.00  0.00    +0.000 A 
ATOM     11  F1  UNL     1      79.526  65.199 107.687  0.00  0.00    +0.000 F 
ATOM     12  C14 UNL     1      78.233  63.623 106.455  0.00  0.00    +0.000 A 
ATOM     13  C15 UNL     1      76.986  63.105 106.089  0.00  0.00    +0.000 A 
ENDBRANCH   6   7
BRANCH   1  14
ATOM     14  O1  UNL     1      74.906  60.983 107.350  0.00  0.00    +0.000 OA
BRANCH  14  16
ATOM     15  C1  UNL     1      74.008  59.679 109.152  0.00  0.00    +0.000 C 
ATOM     16  C2  UNL     1      74.127  61.071 108.535  0.00  0.00    +0.000 C 
BRANCH  16  17
ATOM     17  C16 UNL     1      74.804  62.012 109.509  0.00  0.00    +0.000 A 
ATOM     18  C17 UNL     1      76.156  61.836 109.843  0.00  0.00    +0.000 A 
ATOM     19  C18 UNL     1      76.805  62.731 110.709  0.00  0.00    +0.000 A 
ATOM     20  C19 UNL     1      76.072  63.785 111.277  0.00  0.00    +0.000 A 
ATOM     21  C20 UNL     1      74.724  63.989 110.938  0.00  0.00    +0.000 A 
ATOM     22  C21 UNL     1      74.091  63.081 110.073  0.00  0.00    +0.000 A 
BRANCH  21  23
ATOM     23  C22 UNL     1      73.943  65.115 111.564  0.00  0.00    +0.000 C 
ATOM     24  F2  UNL     1      74.693  65.744 112.543  0.00  0.00    +0.000 F 
ATOM     25  F3  UNL     1      73.610  66.035 110.589  0.00  0.00    +0.000 F 
ATOM     26  F4  UNL     1      72.783  64.640 112.151  0.00  0.00    +0.000 F 
ENDBRANCH  21  23
BRANCH  19  27
ATOM     27  C23 UNL     1      78.247  62.514 111.096  0.00  0.00    +0.000 C 
ATOM     28  F5  UNL     1      78.555  63.197 112.259  0.00  0.00    +0.000 F 
ATOM     29  F6  UNL     1      79.064  62.968 110.078  0.00  0.00    +0.000 F 
ATOM     30  F7  UNL     1      78.495  61.168 111.307  0.00  0.00    +0.000 F 
ENDBRANCH  19  27
ENDBRANCH  16  17
ENDBRANCH  14  16
ENDBRANCH   1  14
BRANCH   5  31
ATOM     31  C6  UNL     1      72.487  63.943 104.952  0.00  0.00    +0.000 C 
BRANCH  31  32
ATOM     32  C7  UNL     1      71.986  64.541 106.230  0.00  0.00    +0.000 A 
ATOM     33  N2  UNL     1      71.758  65.863 106.401  0.00  0.00    +0.000 NA
ATOM     34  N3  UNL     1      71.333  65.991 107.647  0.00  0.00    +0.000 N 
ATOM     35  C8  UNL     1      71.333  64.775 108.216  0.00  0.00    +0.000 A 
ATOM     36  O3  UNL     1      71.018  64.545 109.414  0.00  0.00    +0.000 OA
ATOM     37  N4  UNL     1      71.727  63.828 107.349  0.00  0.00    +0.000 N 
ATOM     38  H12 UNL     1      71.829  62.801 107.507  0.00  0.00    +0.000 HD
BRANCH  34  39
ATOM     39  P1  UNL     1      71.002  67.530 108.423  0.00  0.00    +0.000 P 
ATOM     40  O6  UNL     1      72.290  68.301 108.599  0.00  0.00    +0.000 OA
BRANCH  39  41
ATOM     41  O4  UNL     1      70.304  67.262 109.942  0.00  0.00    +0.000 OA
ATOM     42  H13 UNL     1      70.548  66.330 110.171  0.00  0.00    +0.000 HD
ENDBRANCH  39  41
BRANCH  39  43
ATOM     43  O5  UNL     1      69.937  68.428 107.462  0.00  0.00    +0.000 OA
ATOM     44  H14 UNL     1      69.039  68.079 107.689  0.00  0.00    +0.000 HD
ENDBRANCH  39  43
ENDBRANCH  34  39
ENDBRANCH  31  32
ENDBRANCH   5  31
TORSDOF 11
ENDMDL
