MODEL 1
REMARK VINA RESULT:      -7.5      0.000      0.000
REMARK  Name = ./S3162.pdb
REMARK  30 active torsions:
REMARK  status: ('A' for Active; 'I' for Inactive)
REMARK    1  A    between atoms: C1_1  and  C2_2
REMARK    2  A    between atoms: C2_2  and  C3_3
REMARK    3  A    between atoms: C6_8  and  O3_9
REMARK    4  A    between atoms: C7_10  and  C8_11
REMARK    5  A    between atoms: C9_12  and  O4_13
REMARK    6  A    between atoms: O4_13  and  C10_14
REMARK    7  A    between atoms: C11_16  and  C12_17
REMARK    8  A    between atoms: C13_18  and  O6_19
REMARK    9  A    between atoms: O6_19  and  C14_20
REMARK   10  A    between atoms: C16_22  and  C17_23
REMARK   11  A    between atoms: C16_22  and  O7_24
REMARK   12  A    between atoms: C18_25  and  O8_26
REMARK   13  A    between atoms: C19_27  and  C20_28
REMARK   14  A    between atoms: C21_30  and  N1_33
REMARK   15  A    between atoms: C22_31  and  O10_32
REMARK   16  A    between atoms: N1_33  and  C23_34
REMARK   17  A    between atoms: N1_33  and  C24_35
REMARK   18  A    between atoms: C25_36  and  C26_37
REMARK   19  A    between atoms: C26_37  and  C27_38
REMARK   20  A    between atoms: C29_41  and  C30_42
REMARK   21  A    between atoms: C34_47  and  C46_64
REMARK   22  A    between atoms: C36_49  and  C37_50
REMARK   23  A    between atoms: C37_50  and  O13_51
REMARK   24  A    between atoms: O13_51  and  C38_52
REMARK   25  A    between atoms: C39_54  and  C40_55
REMARK   26  A    between atoms: C41_56  and  O15_57
REMARK   27  A    between atoms: C42_58  and  O16_59
REMARK   28  A    between atoms: O16_59  and  C43_60
REMARK   29  A    between atoms: C44_61  and  O17_62
REMARK   30  A    between atoms: O17_62  and  C45_63
REMARK                            x       y       z     vdW  Elec       q    Type
REMARK                         _______ _______ _______ _____ _____    ______ ____
ROOT
ATOM      1  C3  UNL     1      72.888  63.907 107.667  0.00  0.00    +0.000 C 
ATOM      2  O1  UNL     1      72.964  63.214 106.414  0.00  0.00    +0.000 OA
ATOM      3  C4  UNL     1      73.706  62.036 106.216  0.00  0.00    +0.000 C 
ATOM      4  O2  UNL     1      74.828  61.877 106.775  0.00  0.00    +0.000 OA
ATOM      5  C5  UNL     1      73.158  60.980 105.305  0.00  0.00    +0.000 C 
ATOM      6  C6  UNL     1      73.799  60.950 103.896  0.00  0.00    +0.000 C 
ATOM      7  C7  UNL     1      75.231  60.329 103.817  0.00  0.00    +0.000 C 
ATOM      8  C8  UNL     1      75.253  58.867 104.305  0.00  0.00    +0.000 C 
ATOM      9  C9  UNL     1      75.845  60.399 102.361  0.00  0.00    +0.000 C 
ATOM     10  C25 UNL     1      76.760  61.669 102.198  0.00  0.00    +0.000 C 
ATOM     11  C28 UNL     1      78.196  61.380 102.735  0.00  0.00    +0.000 C 
ATOM     12  C29 UNL     1      79.015  62.648 103.076  0.00  0.00    +0.000 C 
ATOM     13  C30 UNL     1      80.517  62.406 102.872  0.00  0.00    +0.000 C 
ATOM     14  C31 UNL     1      78.731  63.077 104.499  0.00  0.00    +0.000 C 
ATOM     15  O12 UNL     1      79.371  62.557 105.454  0.00  0.00    +0.000 OA
ATOM     16  C32 UNL     1      77.628  64.019 104.769  0.00  0.00    +0.000 C 
ATOM     17  C33 UNL     1      77.185  64.253 106.013  0.00  0.00    +0.000 C 
ATOM     18  C34 UNL     1      75.958  65.040 106.280  0.00  0.00    +0.000 C 
ATOM     19  C35 UNL     1      75.242  64.711 107.373  0.00  0.00    +0.000 C 
ATOM     20  C36 UNL     1      73.821  65.153 107.658  0.00  0.00    +0.000 C 
ATOM     21  C46 UNL     1      75.491  66.086 105.299  0.00  0.00    +0.000 C 
ENDROOT
BRANCH   1  23
ATOM     22  C1  UNL     1      70.529  64.174 106.665  0.00  0.00    +0.000 C 
ATOM     23  C2  UNL     1      71.397  64.241 107.922  0.00  0.00    +0.000 C 
ENDBRANCH   1  23
BRANCH   6  24
ATOM     24  O3  UNL     1      73.808  62.247 103.348  0.00  0.00    +0.000 OA
ATOM     25  H10 UNL     1      72.860  62.495 103.172  0.00  0.00    +0.000 HD
ENDBRANCH   6  24
BRANCH   9  26
ATOM     26  O4  UNL     1      74.793  60.381 101.386  0.00  0.00    +0.000 OA
BRANCH  26  27
ATOM     27  C10 UNL     1      74.741  59.190 100.593  0.00  0.00    +0.000 C 
ATOM     28  O5  UNL     1      74.840  59.514  99.206  0.00  0.00    +0.000 OA
ATOM     29  C11 UNL     1      73.630  59.838  98.530  0.00  0.00    +0.000 C 
ATOM     30  C12 UNL     1      73.268  61.315  98.733  0.00  0.00    +0.000 C 
ATOM     31  C13 UNL     1      72.438  58.880  98.822  0.00  0.00    +0.000 C 
ATOM     32  C21 UNL     1      72.922  57.665  99.661  0.00  0.00    +0.000 C 
ATOM     33  C22 UNL     1      73.523  58.282 100.955  0.00  0.00    +0.000 C 
BRANCH  32  34
ATOM     34  N1  UNL     1      73.933  56.808  98.944  0.00  0.00    +0.000 NA
ATOM     35  C23 UNL     1      73.346  56.036  97.827  0.00  0.00    +0.000 C 
ATOM     36  C24 UNL     1      74.599  55.860  99.871  0.00  0.00    +0.000 C 
ENDBRANCH  32  34
BRANCH  33  37
ATOM     37  O10 UNL     1      72.536  58.929 101.725  0.00  0.00    +0.000 OA
ATOM     38  H37 UNL     1      72.238  59.747 101.258  0.00  0.00    +0.000 HD
ENDBRANCH  33  37
BRANCH  31  39
ATOM     39  O6  UNL     1      71.836  58.464  97.603  0.00  0.00    +0.000 OA
BRANCH  39  40
ATOM     40  C14 UNL     1      71.329  59.539  96.835  0.00  0.00    +0.000 C 
ATOM     41  C15 UNL     1      70.080  60.099  97.549  0.00  0.00    +0.000 C 
ATOM     42  C16 UNL     1      68.948  60.511  96.565  0.00  0.00    +0.000 C 
ATOM     43  C17 UNL     1      68.034  59.301  96.256  0.00  0.00    +0.000 C 
ATOM     44  C18 UNL     1      69.571  61.069  95.254  0.00  0.00    +0.000 C 
ATOM     45  C19 UNL     1      70.677  60.124  94.678  0.00  0.00    +0.000 C 
ATOM     46  C20 UNL     1      70.246  59.534  93.333  0.00  0.00    +0.000 C 
ATOM     47  O9  UNL     1      70.992  59.052  95.550  0.00  0.00    +0.000 OA
BRANCH  42  48
ATOM     48  O7  UNL     1      68.148  61.521  97.138  0.00  0.00    +0.000 OA
ATOM     49  H28 UNL     1      68.705  62.348  97.214  0.00  0.00    +0.000 HD
ENDBRANCH  42  48
BRANCH  44  50
ATOM     50  O8  UNL     1      70.157  62.324  95.515  0.00  0.00    +0.000 OA
ATOM     51  H30 UNL     1      70.551  62.287  96.424  0.00  0.00    +0.000 HD
ENDBRANCH  44  50
ENDBRANCH  39  40
ENDBRANCH  31  39
ENDBRANCH  26  27
ENDBRANCH   9  26
BRANCH  10  52
ATOM     52  C26 UNL     1      76.785  62.238 100.750  0.00  0.00    +0.000 C 
BRANCH  52  53
ATOM     53  C27 UNL     1      76.095  63.559 100.587  0.00  0.00    +0.000 C 
ATOM     54  O11 UNL     1      75.083  63.798 101.224  0.00  0.00    +0.000 OA
ENDBRANCH  52  53
ENDBRANCH  10  52
BRANCH  20  55
ATOM     55  C37 UNL     1      73.795  65.954 108.978  0.00  0.00    +0.000 C 
BRANCH  55  56
ATOM     56  O13 UNL     1      74.580  65.322 109.979  0.00  0.00    +0.000 OA
BRANCH  56  57
ATOM     57  C38 UNL     1      73.790  64.851 111.055  0.00  0.00    +0.000 C 
ATOM     58  O14 UNL     1      73.024  65.905 111.644  0.00  0.00    +0.000 OA
ATOM     59  C39 UNL     1      73.704  66.632 112.661  0.00  0.00    +0.000 C 
ATOM     60  C40 UNL     1      74.853  67.484 112.092  0.00  0.00    +0.000 C 
ATOM     61  C41 UNL     1      74.136  65.735 113.856  0.00  0.00    +0.000 C 
ATOM     62  C42 UNL     1      74.142  64.238 113.481  0.00  0.00    +0.000 C 
ATOM     63  C44 UNL     1      74.689  64.083 112.056  0.00  0.00    +0.000 C 
BRANCH  61  64
ATOM     64  O15 UNL     1      73.272  65.951 114.942  0.00  0.00    +0.000 OA
ATOM     65  H66 UNL     1      72.485  66.448 114.594  0.00  0.00    +0.000 HD
ENDBRANCH  61  64
BRANCH  62  66
ATOM     66  O16 UNL     1      72.817  63.723 113.542  0.00  0.00    +0.000 OA
ATOM     67  C43 UNL     1      72.704  62.750 114.555  0.00  0.00    +0.000 C 
ENDBRANCH  62  66
BRANCH  63  68
ATOM     68  O17 UNL     1      74.710  62.706 111.716  0.00  0.00    +0.000 OA
ATOM     69  C45 UNL     1      75.754  62.034 112.390  0.00  0.00    +0.000 C 
ENDBRANCH  63  68
ENDBRANCH  56  57
ENDBRANCH  55  56
ENDBRANCH  20  55
TORSDOF 18
ENDMDL
MODEL 2
REMARK VINA RESULT:      -7.4      6.673     10.083
REMARK  Name = ./S3162.pdb
REMARK  30 active torsions:
REMARK  status: ('A' for Active; 'I' for Inactive)
REMARK    1  A    between atoms: C1_1  and  C2_2
REMARK    2  A    between atoms: C2_2  and  C3_3
REMARK    3  A    between atoms: C6_8  and  O3_9
REMARK    4  A    between atoms: C7_10  and  C8_11
REMARK    5  A    between atoms: C9_12  and  O4_13
REMARK    6  A    between atoms: O4_13  and  C10_14
REMARK    7  A    between atoms: C11_16  and  C12_17
REMARK    8  A    between atoms: C13_18  and  O6_19
REMARK    9  A    between atoms: O6_19  and  C14_20
REMARK   10  A    between atoms: C16_22  and  C17_23
REMARK   11  A    between atoms: C16_22  and  O7_24
REMARK   12  A    between atoms: C18_25  and  O8_26
REMARK   13  A    between atoms: C19_27  and  C20_28
REMARK   14  A    between atoms: C21_30  and  N1_33
REMARK   15  A    between atoms: C22_31  and  O10_32
REMARK   16  A    between atoms: N1_33  and  C23_34
REMARK   17  A    between atoms: N1_33  and  C24_35
REMARK   18  A    between atoms: C25_36  and  C26_37
REMARK   19  A    between atoms: C26_37  and  C27_38
REMARK   20  A    between atoms: C29_41  and  C30_42
REMARK   21  A    between atoms: C34_47  and  C46_64
REMARK   22  A    between atoms: C36_49  and  C37_50
REMARK   23  A    between atoms: C37_50  and  O13_51
REMARK   24  A    between atoms: O13_51  and  C38_52
REMARK   25  A    between atoms: C39_54  and  C40_55
REMARK   26  A    between atoms: C41_56  and  O15_57
REMARK   27  A    between atoms: C42_58  and  O16_59
REMARK   28  A    between atoms: O16_59  and  C43_60
REMARK   29  A    between atoms: C44_61  and  O17_62
REMARK   30  A    between atoms: O17_62  and  C45_63
REMARK                            x       y       z     vdW  Elec       q    Type
REMARK                         _______ _______ _______ _____ _____    ______ ____
ROOT
ATOM      1  C3  UNL     1      74.946  64.834 114.598  0.00  0.00    +0.000 C 
ATOM      2  O1  UNL     1      74.712  65.539 113.372  0.00  0.00    +0.000 OA
ATOM      3  C4  UNL     1      73.590  65.330 112.551  0.00  0.00    +0.000 C 
ATOM      4  O2  UNL     1      73.116  64.171 112.386  0.00  0.00    +0.000 OA
ATOM      5  C5  UNL     1      72.980  66.505 111.848  0.00  0.00    +0.000 C 
ATOM      6  C6  UNL     1      73.349  66.621 110.349  0.00  0.00    +0.000 C 
ATOM      7  C7  UNL     1      72.622  65.622 109.393  0.00  0.00    +0.000 C 
ATOM      8  C8  UNL     1      71.090  65.783 109.447  0.00  0.00    +0.000 C 
ATOM      9  C9  UNL     1      73.105  65.755 107.893  0.00  0.00    +0.000 C 
ATOM     10  C25 UNL     1      74.234  64.708 107.571  0.00  0.00    +0.000 C 
ATOM     11  C28 UNL     1      73.607  63.328 107.193  0.00  0.00    +0.000 C 
ATOM     12  C29 UNL     1      74.576  62.130 107.336  0.00  0.00    +0.000 C 
ATOM     13  C30 UNL     1      74.236  61.024 106.327  0.00  0.00    +0.000 C 
ATOM     14  C31 UNL     1      74.530  61.595 108.750  0.00  0.00    +0.000 C 
ATOM     15  O12 UNL     1      73.644  60.760 109.080  0.00  0.00    +0.000 OA
ATOM     16  C32 UNL     1      75.452  62.140 109.765  0.00  0.00    +0.000 C 
ATOM     17  C33 UNL     1      75.304  61.876 111.072  0.00  0.00    +0.000 C 
ATOM     18  C34 UNL     1      76.098  62.570 112.112  0.00  0.00    +0.000 C 
ATOM     19  C35 UNL     1      75.509  62.762 113.309  0.00  0.00    +0.000 C 
ATOM     20  C36 UNL     1      75.997  63.706 114.387  0.00  0.00    +0.000 C 
ATOM     21  C46 UNL     1      77.462  63.126 111.791  0.00  0.00    +0.000 C 
ENDROOT
BRANCH   1  23
ATOM     22  C1  UNL     1      75.370  67.317 115.140  0.00  0.00    +0.000 C 
ATOM     23  C2  UNL     1      75.353  65.881 115.664  0.00  0.00    +0.000 C 
ENDBRANCH   1  23
BRANCH   6  24
ATOM     24  O3  UNL     1      74.744  66.507 110.192  0.00  0.00    +0.000 OA
ATOM     25  H10 UNL     1      75.163  67.097 110.876  0.00  0.00    +0.000 HD
ENDBRANCH   6  24
BRANCH   9  26
ATOM     26  O4  UNL     1      73.546  67.097 107.639  0.00  0.00    +0.000 OA
BRANCH  26  27
ATOM     27  C10 UNL     1      72.548  67.949 107.067  0.00  0.00    +0.000 C 
ATOM     28  O5  UNL     1      72.754  68.077 105.660  0.00  0.00    +0.000 OA
ATOM     29  C11 UNL     1      73.655  69.091 105.228  0.00  0.00    +0.000 C 
ATOM     30  C12 UNL     1      75.105  68.594 105.280  0.00  0.00    +0.000 C 
ATOM     31  C13 UNL     1      73.467  70.474 105.919  0.00  0.00    +0.000 C 
ATOM     32  C21 UNL     1      72.190  70.461 106.804  0.00  0.00    +0.000 C 
ATOM     33  C22 UNL     1      72.418  69.310 107.823  0.00  0.00    +0.000 C 
BRANCH  32  34
ATOM     34  N1  UNL     1      70.921  70.252 106.018  0.00  0.00    +0.000 NA
ATOM     35  C23 UNL     1      70.336  71.516 105.520  0.00  0.00    +0.000 C 
ATOM     36  C24 UNL     1      69.894  69.543 106.821  0.00  0.00    +0.000 C 
ENDBRANCH  32  34
BRANCH  33  37
ATOM     37  O10 UNL     1      73.496  69.590 108.685  0.00  0.00    +0.000 OA
ATOM     38  H37 UNL     1      74.187  70.099 108.196  0.00  0.00    +0.000 HD
ENDBRANCH  33  37
BRANCH  31  39
ATOM     39  O6  UNL     1      73.412  71.505 104.941  0.00  0.00    +0.000 OA
BRANCH  39  40
ATOM     40  C14 UNL     1      73.586  71.030 103.619  0.00  0.00    +0.000 C 
ATOM     41  C15 UNL     1      74.726  71.838 102.960  0.00  0.00    +0.000 C 
ATOM     42  C16 UNL     1      74.452  72.168 101.464  0.00  0.00    +0.000 C 
ATOM     43  C17 UNL     1      73.656  73.490 101.339  0.00  0.00    +0.000 C 
ATOM     44  C18 UNL     1      73.669  70.998 100.804  0.00  0.00    +0.000 C 
ATOM     45  C19 UNL     1      72.428  70.566 101.654  0.00  0.00    +0.000 C 
ATOM     46  C20 UNL     1      71.125  70.863 100.908  0.00  0.00    +0.000 C 
ATOM     47  O9  UNL     1      72.374  71.212 102.914  0.00  0.00    +0.000 OA
BRANCH  42  48
ATOM     48  O7  UNL     1      75.670  72.330 100.772  0.00  0.00    +0.000 OA
ATOM     49  H28 UNL     1      75.457  72.473  99.805  0.00  0.00    +0.000 HD
ENDBRANCH  42  48
BRANCH  44  50
ATOM     50  O8  UNL     1      74.522  69.884 100.672  0.00  0.00    +0.000 OA
ATOM     51  H30 UNL     1      75.418  70.222 100.413  0.00  0.00    +0.000 HD
ENDBRANCH  44  50
ENDBRANCH  39  40
ENDBRANCH  31  39
ENDBRANCH  26  27
ENDBRANCH   9  26
BRANCH  10  52
ATOM     52  C26 UNL     1      75.251  65.196 106.500  0.00  0.00    +0.000 C 
BRANCH  52  53
ATOM     53  C27 UNL     1      76.616  65.510 107.034  0.00  0.00    +0.000 C 
ATOM     54  O11 UNL     1      76.811  65.516 108.238  0.00  0.00    +0.000 OA
ENDBRANCH  52  53
ENDBRANCH  10  52
BRANCH  20  55
ATOM     55  C37 UNL     1      76.302  62.898 115.668  0.00  0.00    +0.000 C 
BRANCH  55  56
ATOM     56  O13 UNL     1      77.699  62.697 115.829  0.00  0.00    +0.000 OA
BRANCH  56  57
ATOM     57  C38 UNL     1      78.014  61.343 116.091  0.00  0.00    +0.000 C 
ATOM     58  O14 UNL     1      78.668  61.191 117.353  0.00  0.00    +0.000 OA
ATOM     59  C39 UNL     1      80.081  61.353 117.311  0.00  0.00    +0.000 C 
ATOM     60  C40 UNL     1      80.488  62.810 117.024  0.00  0.00    +0.000 C 
ATOM     61  C41 UNL     1      80.777  60.324 116.373  0.00  0.00    +0.000 C 
ATOM     62  C42 UNL     1      79.783  59.683 115.382  0.00  0.00    +0.000 C 
ATOM     63  C44 UNL     1      78.803  60.757 114.892  0.00  0.00    +0.000 C 
BRANCH  61  64
ATOM     64  O15 UNL     1      81.391  59.325 117.146  0.00  0.00    +0.000 OA
ATOM     65  H66 UNL     1      81.726  58.634 116.516  0.00  0.00    +0.000 HD
ENDBRANCH  61  64
BRANCH  62  66
ATOM     66  O16 UNL     1      79.063  58.640 116.031  0.00  0.00    +0.000 OA
ATOM     67  C43 UNL     1      79.293  57.403 115.397  0.00  0.00    +0.000 C 
ENDBRANCH  62  66
BRANCH  63  68
ATOM     68  O17 UNL     1      77.899  60.172 113.969  0.00  0.00    +0.000 OA
ATOM     69  C45 UNL     1      78.550  59.851 112.757  0.00  0.00    +0.000 C 
ENDBRANCH  63  68
ENDBRANCH  56  57
ENDBRANCH  55  56
ENDBRANCH  20  55
TORSDOF 18
ENDMDL
MODEL 3
REMARK VINA RESULT:      -7.4      6.364      9.406
REMARK  Name = ./S3162.pdb
REMARK  30 active torsions:
REMARK  status: ('A' for Active; 'I' for Inactive)
REMARK    1  A    between atoms: C1_1  and  C2_2
REMARK    2  A    between atoms: C2_2  and  C3_3
REMARK    3  A    between atoms: C6_8  and  O3_9
REMARK    4  A    between atoms: C7_10  and  C8_11
REMARK    5  A    between atoms: C9_12  and  O4_13
REMARK    6  A    between atoms: O4_13  and  C10_14
REMARK    7  A    between atoms: C11_16  and  C12_17
REMARK    8  A    between atoms: C13_18  and  O6_19
REMARK    9  A    between atoms: O6_19  and  C14_20
REMARK   10  A    between atoms: C16_22  and  C17_23
REMARK   11  A    between atoms: C16_22  and  O7_24
REMARK   12  A    between atoms: C18_25  and  O8_26
REMARK   13  A    between atoms: C19_27  and  C20_28
REMARK   14  A    between atoms: C21_30  and  N1_33
REMARK   15  A    between atoms: C22_31  and  O10_32
REMARK   16  A    between atoms: N1_33  and  C23_34
REMARK   17  A    between atoms: N1_33  and  C24_35
REMARK   18  A    between atoms: C25_36  and  C26_37
REMARK   19  A    between atoms: C26_37  and  C27_38
REMARK   20  A    between atoms: C29_41  and  C30_42
REMARK   21  A    between atoms: C34_47  and  C46_64
REMARK   22  A    between atoms: C36_49  and  C37_50
REMARK   23  A    between atoms: C37_50  and  O13_51
REMARK   24  A    between atoms: O13_51  and  C38_52
REMARK   25  A    between atoms: C39_54  and  C40_55
REMARK   26  A    between atoms: C41_56  and  O15_57
REMARK   27  A    between atoms: C42_58  and  O16_59
REMARK   28  A    between atoms: O16_59  and  C43_60
REMARK   29  A    between atoms: C44_61  and  O17_62
REMARK   30  A    between atoms: O17_62  and  C45_63
REMARK                            x       y       z     vdW  Elec       q    Type
REMARK                         _______ _______ _______ _____ _____    ______ ____
ROOT
ATOM      1  C3  UNL     1      74.719  65.719 107.378  0.00  0.00    +0.000 C 
ATOM      2  O1  UNL     1      74.468  66.482 106.190  0.00  0.00    +0.000 OA
ATOM      3  C4  UNL     1      74.665  67.870 106.097  0.00  0.00    +0.000 C 
ATOM      4  O2  UNL     1      74.387  68.630 107.067  0.00  0.00    +0.000 OA
ATOM      5  C5  UNL     1      75.185  68.443 104.812  0.00  0.00    +0.000 C 
ATOM      6  C6  UNL     1      74.107  69.105 103.920  0.00  0.00    +0.000 C 
ATOM      7  C7  UNL     1      73.609  70.509 104.389  0.00  0.00    +0.000 C 
ATOM      8  C8  UNL     1      74.758  71.533 104.464  0.00  0.00    +0.000 C 
ATOM      9  C9  UNL     1      72.460  71.086 103.468  0.00  0.00    +0.000 C 
ATOM     10  C25 UNL     1      71.042  70.763 104.069  0.00  0.00    +0.000 C 
ATOM     11  C28 UNL     1      70.648  71.828 105.141  0.00  0.00    +0.000 C 
ATOM     12  C29 UNL     1      69.545  71.363 106.122  0.00  0.00    +0.000 C 
ATOM     13  C30 UNL     1      68.705  72.552 106.610  0.00  0.00    +0.000 C 
ATOM     14  C31 UNL     1      70.170  70.635 107.292  0.00  0.00    +0.000 C 
ATOM     15  O12 UNL     1      70.604  71.287 108.281  0.00  0.00    +0.000 OA
ATOM     16  C32 UNL     1      70.371  69.175 107.218  0.00  0.00    +0.000 C 
ATOM     17  C33 UNL     1      71.120  68.516 108.115  0.00  0.00    +0.000 C 
ATOM     18  C34 UNL     1      71.489  67.092 107.941  0.00  0.00    +0.000 C 
ATOM     19  C35 UNL     1      72.675  66.698 108.445  0.00  0.00    +0.000 C 
ATOM     20  C36 UNL     1      73.384  65.402 108.113  0.00  0.00    +0.000 C 
ATOM     21  C46 UNL     1      70.611  66.166 107.138  0.00  0.00    +0.000 C 
ENDROOT
BRANCH   1  23
ATOM     22  C1  UNL     1      76.828  64.283 107.733  0.00  0.00    +0.000 C 
ATOM     23  C2  UNL     1      75.520  64.461 106.961  0.00  0.00    +0.000 C 
ENDBRANCH   1  23
BRANCH   6  24
ATOM     24  O3  UNL     1      73.011  68.233 103.770  0.00  0.00    +0.000 OA
ATOM     25  H10 UNL     1      73.332  67.452 103.242  0.00  0.00    +0.000 HD
ENDBRANCH   6  24
BRANCH   9  26
ATOM     26  O4  UNL     1      72.596  70.569 102.136  0.00  0.00    +0.000 OA
BRANCH  26  27
ATOM     27  C10 UNL     1      73.067  71.522 101.177  0.00  0.00    +0.000 C 
ATOM     28  O5  UNL     1      72.093  71.716 100.152  0.00  0.00    +0.000 OA
ATOM     29  C11 UNL     1      72.125  70.814  99.051  0.00  0.00    +0.000 C 
ATOM     30  C12 UNL     1      71.361  69.525  99.376  0.00  0.00    +0.000 C 
ATOM     31  C13 UNL     1      73.542  70.543  98.466  0.00  0.00    +0.000 C 
ATOM     32  C21 UNL     1      74.584  71.488  99.127  0.00  0.00    +0.000 C 
ATOM     33  C22 UNL     1      74.497  71.182 100.648  0.00  0.00    +0.000 C 
BRANCH  32  34
ATOM     34  N1  UNL     1      74.330  72.947  98.848  0.00  0.00    +0.000 NA
ATOM     35  C23 UNL     1      74.745  73.355  97.488  0.00  0.00    +0.000 C 
ATOM     36  C24 UNL     1      75.018  73.818  99.831  0.00  0.00    +0.000 C 
ENDBRANCH  32  34
BRANCH  33  37
ATOM     37  O10 UNL     1      74.914  69.867 100.935  0.00  0.00    +0.000 OA
ATOM     38  H37 UNL     1      74.216  69.406 101.460  0.00  0.00    +0.000 HD
ENDBRANCH  33  37
BRANCH  31  39
ATOM     39  O6  UNL     1      73.525  70.696  97.052  0.00  0.00    +0.000 OA
BRANCH  39  40
ATOM     40  C14 UNL     1      74.187  69.648  96.369  0.00  0.00    +0.000 C 
ATOM     41  C15 UNL     1      74.104  68.374  97.238  0.00  0.00    +0.000 C 
ATOM     42  C16 UNL     1      75.410  67.528  97.205  0.00  0.00    +0.000 C 
ATOM     43  C17 UNL     1      76.397  68.015  98.293  0.00  0.00    +0.000 C 
ATOM     44  C18 UNL     1      76.063  67.627  95.797  0.00  0.00    +0.000 C 
ATOM     45  C19 UNL     1      76.187  69.108  95.307  0.00  0.00    +0.000 C 
ATOM     46  C20 UNL     1      77.655  69.523  95.190  0.00  0.00    +0.000 C 
ATOM     47  O9  UNL     1      75.535  70.027  96.167  0.00  0.00    +0.000 OA
BRANCH  42  48
ATOM     48  O7  UNL     1      75.118  66.173  97.463  0.00  0.00    +0.000 OA
ATOM     49  H28 UNL     1      75.537  65.929  98.336  0.00  0.00    +0.000 HD
ENDBRANCH  42  48
BRANCH  44  50
ATOM     50  O8  UNL     1      75.273  66.920  94.868  0.00  0.00    +0.000 OA
ATOM     51  H30 UNL     1      74.988  67.563  94.168  0.00  0.00    +0.000 HD
ENDBRANCH  44  50
ENDBRANCH  39  40
ENDBRANCH  31  39
ENDBRANCH  26  27
ENDBRANCH   9  26
BRANCH  10  52
ATOM     52  C26 UNL     1      69.934  70.586 102.992  0.00  0.00    +0.000 C 
BRANCH  52  53
ATOM     53  C27 UNL     1      68.533  70.704 103.514  0.00  0.00    +0.000 C 
ATOM     54  O11 UNL     1      67.608  70.877 102.738  0.00  0.00    +0.000 OA
ENDBRANCH  52  53
ENDBRANCH  10  52
BRANCH  20  55
ATOM     55  C37 UNL     1      73.571  64.581 109.408  0.00  0.00    +0.000 C 
BRANCH  55  56
ATOM     56  O13 UNL     1      74.512  65.196 110.275  0.00  0.00    +0.000 OA
BRANCH  56  57
ATOM     57  C38 UNL     1      74.005  65.347 111.588  0.00  0.00    +0.000 C 
ATOM     58  O14 UNL     1      73.476  66.658 111.800  0.00  0.00    +0.000 OA
ATOM     59  C39 UNL     1      74.435  67.621 112.223  0.00  0.00    +0.000 C 
ATOM     60  C40 UNL     1      75.440  67.964 111.108  0.00  0.00    +0.000 C 
ATOM     61  C41 UNL     1      75.115  67.241 113.570  0.00  0.00    +0.000 C 
ATOM     62  C42 UNL     1      74.944  65.744 113.900  0.00  0.00    +0.000 C 
ATOM     63  C44 UNL     1      75.092  64.928 112.610  0.00  0.00    +0.000 C 
BRANCH  61  64
ATOM     64  O15 UNL     1      74.575  68.023 114.604  0.00  0.00    +0.000 OA
ATOM     65  H66 UNL     1      74.504  68.952 114.261  0.00  0.00    +0.000 HD
ENDBRANCH  61  64
BRANCH  62  66
ATOM     66  O16 UNL     1      73.654  65.520 114.461  0.00  0.00    +0.000 OA
ATOM     67  C43 UNL     1      73.757  64.928 115.735  0.00  0.00    +0.000 C 
ENDBRANCH  62  66
BRANCH  63  68
ATOM     68  O17 UNL     1      74.951  63.549 112.916  0.00  0.00    +0.000 OA
ATOM     69  C45 UNL     1      76.212  62.939 113.100  0.00  0.00    +0.000 C 
ENDBRANCH  63  68
ENDBRANCH  56  57
ENDBRANCH  55  56
ENDBRANCH  20  55
TORSDOF 18
ENDMDL
MODEL 4
REMARK VINA RESULT:      -7.4      1.534      2.095
REMARK  Name = ./S3162.pdb
REMARK  30 active torsions:
REMARK  status: ('A' for Active; 'I' for Inactive)
REMARK    1  A    between atoms: C1_1  and  C2_2
REMARK    2  A    between atoms: C2_2  and  C3_3
REMARK    3  A    between atoms: C6_8  and  O3_9
REMARK    4  A    between atoms: C7_10  and  C8_11
REMARK    5  A    between atoms: C9_12  and  O4_13
REMARK    6  A    between atoms: O4_13  and  C10_14
REMARK    7  A    between atoms: C11_16  and  C12_17
REMARK    8  A    between atoms: C13_18  and  O6_19
REMARK    9  A    between atoms: O6_19  and  C14_20
REMARK   10  A    between atoms: C16_22  and  C17_23
REMARK   11  A    between atoms: C16_22  and  O7_24
REMARK   12  A    between atoms: C18_25  and  O8_26
REMARK   13  A    between atoms: C19_27  and  C20_28
REMARK   14  A    between atoms: C21_30  and  N1_33
REMARK   15  A    between atoms: C22_31  and  O10_32
REMARK   16  A    between atoms: N1_33  and  C23_34
REMARK   17  A    between atoms: N1_33  and  C24_35
REMARK   18  A    between atoms: C25_36  and  C26_37
REMARK   19  A    between atoms: C26_37  and  C27_38
REMARK   20  A    between atoms: C29_41  and  C30_42
REMARK   21  A    between atoms: C34_47  and  C46_64
REMARK   22  A    between atoms: C36_49  and  C37_50
REMARK   23  A    between atoms: C37_50  and  O13_51
REMARK   24  A    between atoms: O13_51  and  C38_52
REMARK   25  A    between atoms: C39_54  and  C40_55
REMARK   26  A    between atoms: C41_56  and  O15_57
REMARK   27  A    between atoms: C42_58  and  O16_59
REMARK   28  A    between atoms: O16_59  and  C43_60
REMARK   29  A    between atoms: C44_61  and  O17_62
REMARK   30  A    between atoms: O17_62  and  C45_63
REMARK                            x       y       z     vdW  Elec       q    Type
REMARK                         _______ _______ _______ _____ _____    ______ ____
ROOT
ATOM      1  C3  UNL     1      72.514  64.696 108.792  0.00  0.00    +0.000 C 
ATOM      2  O1  UNL     1      72.739  63.922 107.607  0.00  0.00    +0.000 OA
ATOM      3  C4  UNL     1      73.532  62.763 107.568  0.00  0.00    +0.000 C 
ATOM      4  O2  UNL     1      74.595  62.683 108.246  0.00  0.00    +0.000 OA
ATOM      5  C5  UNL     1      73.111  61.627 106.684  0.00  0.00    +0.000 C 
ATOM      6  C6  UNL     1      73.893  61.524 105.352  0.00  0.00    +0.000 C 
ATOM      7  C7  UNL     1      75.343  60.954 105.461  0.00  0.00    +0.000 C 
ATOM      8  C8  UNL     1      75.359  59.530 106.052  0.00  0.00    +0.000 C 
ATOM      9  C9  UNL     1      76.100  60.947 104.072  0.00  0.00    +0.000 C 
ATOM     10  C25 UNL     1      76.988  62.236 103.909  0.00  0.00    +0.000 C 
ATOM     11  C28 UNL     1      78.371  62.037 104.606  0.00  0.00    +0.000 C 
ATOM     12  C29 UNL     1      79.111  63.355 104.935  0.00  0.00    +0.000 C 
ATOM     13  C30 UNL     1      80.633  63.155 104.900  0.00  0.00    +0.000 C 
ATOM     14  C31 UNL     1      78.672  63.869 106.289  0.00  0.00    +0.000 C 
ATOM     15  O12 UNL     1      79.227  63.439 107.337  0.00  0.00    +0.000 OA
ATOM     16  C32 UNL     1      77.519  64.786 106.380  0.00  0.00    +0.000 C 
ATOM     17  C33 UNL     1      76.945  65.088 107.554  0.00  0.00    +0.000 C 
ATOM     18  C34 UNL     1      75.675  65.845 107.640  0.00  0.00    +0.000 C 
ATOM     19  C35 UNL     1      74.861  65.565 108.677  0.00  0.00    +0.000 C 
ATOM     20  C36 UNL     1      73.406  65.972 108.787  0.00  0.00    +0.000 C 
ATOM     21  C46 UNL     1      75.279  66.804 106.545  0.00  0.00    +0.000 C 
ENDROOT
BRANCH   1  23
ATOM     22  C1  UNL     1      70.458  65.774 107.675  0.00  0.00    +0.000 C 
ATOM     23  C2  UNL     1      70.996  64.992 108.874  0.00  0.00    +0.000 C 
ENDBRANCH   1  23
BRANCH   6  24
ATOM     24  O3  UNL     1      73.919  62.781 104.716  0.00  0.00    +0.000 OA
ATOM     25  H10 UNL     1      73.231  62.756 103.996  0.00  0.00    +0.000 HD
ENDBRANCH   6  24
BRANCH   9  26
ATOM     26  O4  UNL     1      75.153  60.823 103.001  0.00  0.00    +0.000 OA
BRANCH  26  27
ATOM     27  C10 UNL     1      75.209  59.574 102.302  0.00  0.00    +0.000 C 
ATOM     28  O5  UNL     1      75.707  59.770 100.978  0.00  0.00    +0.000 OA
ATOM     29  C11 UNL     1      74.758  60.118  99.976  0.00  0.00    +0.000 C 
ATOM     30  C12 UNL     1      74.491  61.628  99.976  0.00  0.00    +0.000 C 
ATOM     31  C13 UNL     1      73.450  59.274  99.989  0.00  0.00    +0.000 C 
ATOM     32  C21 UNL     1      73.577  58.105 101.005  0.00  0.00    +0.000 C 
ATOM     33  C22 UNL     1      73.861  58.789 102.372  0.00  0.00    +0.000 C 
BRANCH  32  34
ATOM     34  N1  UNL     1      74.662  57.121 100.651  0.00  0.00    +0.000 NA
ATOM     35  C23 UNL     1      74.283  56.219  99.541  0.00  0.00    +0.000 C 
ATOM     36  C24 UNL     1      75.048  56.292 101.819  0.00  0.00    +0.000 C 
ENDBRANCH  32  34
BRANCH  33  37
ATOM     37  O10 UNL     1      72.767  59.567 102.797  0.00  0.00    +0.000 OA
ATOM     38  H37 UNL     1      73.062  60.196 103.499  0.00  0.00    +0.000 HD
ENDBRANCH  33  37
BRANCH  31  39
ATOM     39  O6  UNL     1      73.164  58.797  98.680  0.00  0.00    +0.000 OA
BRANCH  39  40
ATOM     40  C14 UNL     1      71.911  59.234  98.189  0.00  0.00    +0.000 C 
ATOM     41  C15 UNL     1      72.147  59.994  96.866  0.00  0.00    +0.000 C 
ATOM     42  C16 UNL     1      71.229  61.241  96.707  0.00  0.00    +0.000 C 
ATOM     43  C17 UNL     1      71.887  62.483  97.354  0.00  0.00    +0.000 C 
ATOM     44  C18 UNL     1      69.845  60.959  97.357  0.00  0.00    +0.000 C 
ATOM     45  C19 UNL     1      69.981  60.382  98.806  0.00  0.00    +0.000 C 
ATOM     46  C20 UNL     1      69.426  61.363  99.840  0.00  0.00    +0.000 C 
ATOM     47  O9  UNL     1      71.323  60.084  99.154  0.00  0.00    +0.000 OA
BRANCH  42  48
ATOM     48  O7  UNL     1      71.025  61.523  95.341  0.00  0.00    +0.000 OA
ATOM     49  H28 UNL     1      70.490  62.366  95.277  0.00  0.00    +0.000 HD
ENDBRANCH  42  48
BRANCH  44  50
ATOM     50  O8  UNL     1      69.145  60.020  96.574  0.00  0.00    +0.000 OA
ATOM     51  H30 UNL     1      69.362  60.202  95.623  0.00  0.00    +0.000 HD
ENDBRANCH  44  50
ENDBRANCH  39  40
ENDBRANCH  31  39
ENDBRANCH  26  27
ENDBRANCH   9  26
BRANCH  10  52
ATOM     52  C26 UNL     1      77.143  62.705 102.435  0.00  0.00    +0.000 C 
BRANCH  52  53
ATOM     53  C27 UNL     1      76.455  63.998 102.116  0.00  0.00    +0.000 C 
ATOM     54  O11 UNL     1      75.288  64.159 102.432  0.00  0.00    +0.000 OA
ENDBRANCH  52  53
ENDBRANCH  10  52
BRANCH  20  55
ATOM     55  C37 UNL     1      73.222  66.860 110.037  0.00  0.00    +0.000 C 
BRANCH  55  56
ATOM     56  O13 UNL     1      74.134  66.498 111.064  0.00  0.00    +0.000 OA
BRANCH  56  57
ATOM     57  C38 UNL     1      73.514  65.733 112.080  0.00  0.00    +0.000 C 
ATOM     58  O14 UNL     1      73.111  66.550 113.182  0.00  0.00    +0.000 OA
ATOM     59  C39 UNL     1      74.119  66.757 114.164  0.00  0.00    +0.000 C 
ATOM     60  C40 UNL     1      75.265  67.641 113.640  0.00  0.00    +0.000 C 
ATOM     61  C41 UNL     1      74.611  65.429 114.810  0.00  0.00    +0.000 C 
ATOM     62  C42 UNL     1      74.246  64.200 113.951  0.00  0.00    +0.000 C 
ATOM     63  C44 UNL     1      74.438  64.551 112.471  0.00  0.00    +0.000 C 
BRANCH  61  64
ATOM     64  O15 UNL     1      74.056  65.297 116.093  0.00  0.00    +0.000 OA
ATOM     65  H66 UNL     1      73.260  64.709 116.007  0.00  0.00    +0.000 HD
ENDBRANCH  61  64
BRANCH  62  66
ATOM     66  O16 UNL     1      72.889  63.838 114.185  0.00  0.00    +0.000 OA
ATOM     67  C43 UNL     1      72.805  62.561 114.774  0.00  0.00    +0.000 C 
ENDBRANCH  62  66
BRANCH  63  68
ATOM     68  O17 UNL     1      74.117  63.417 111.681  0.00  0.00    +0.000 OA
ATOM     69  C45 UNL     1      75.145  62.449 111.744  0.00  0.00    +0.000 C 
ENDBRANCH  63  68
ENDBRANCH  56  57
ENDBRANCH  55  56
ENDBRANCH  20  55
TORSDOF 18
ENDMDL
MODEL 5
REMARK VINA RESULT:      -7.4      2.756     12.731
REMARK  Name = ./S3162.pdb
REMARK  30 active torsions:
REMARK  status: ('A' for Active; 'I' for Inactive)
REMARK    1  A    between atoms: C1_1  and  C2_2
REMARK    2  A    between atoms: C2_2  and  C3_3
REMARK    3  A    between atoms: C6_8  and  O3_9
REMARK    4  A    between atoms: C7_10  and  C8_11
REMARK    5  A    between atoms: C9_12  and  O4_13
REMARK    6  A    between atoms: O4_13  and  C10_14
REMARK    7  A    between atoms: C11_16  and  C12_17
REMARK    8  A    between atoms: C13_18  and  O6_19
REMARK    9  A    between atoms: O6_19  and  C14_20
REMARK   10  A    between atoms: C16_22  and  C17_23
REMARK   11  A    between atoms: C16_22  and  O7_24
REMARK   12  A    between atoms: C18_25  and  O8_26
REMARK   13  A    between atoms: C19_27  and  C20_28
REMARK   14  A    between atoms: C21_30  and  N1_33
REMARK   15  A    between atoms: C22_31  and  O10_32
REMARK   16  A    between atoms: N1_33  and  C23_34
REMARK   17  A    between atoms: N1_33  and  C24_35
REMARK   18  A    between atoms: C25_36  and  C26_37
REMARK   19  A    between atoms: C26_37  and  C27_38
REMARK   20  A    between atoms: C29_41  and  C30_42
REMARK   21  A    between atoms: C34_47  and  C46_64
REMARK   22  A    between atoms: C36_49  and  C37_50
REMARK   23  A    between atoms: C37_50  and  O13_51
REMARK   24  A    between atoms: O13_51  and  C38_52
REMARK   25  A    between atoms: C39_54  and  C40_55
REMARK   26  A    between atoms: C41_56  and  O15_57
REMARK   27  A    between atoms: C42_58  and  O16_59
REMARK   28  A    between atoms: O16_59  and  C43_60
REMARK   29  A    between atoms: C44_61  and  O17_62
REMARK   30  A    between atoms: O17_62  and  C45_63
REMARK                            x       y       z     vdW  Elec       q    Type
REMARK                         _______ _______ _______ _____ _____    ______ ____
ROOT
ATOM      1  C3  UNL     1      72.810  61.327  98.315  0.00  0.00    +0.000 C 
ATOM      2  O1  UNL     1      73.028  61.513  99.720  0.00  0.00    +0.000 OA
ATOM      3  C4  UNL     1      74.301  61.635 100.303  0.00  0.00    +0.000 C 
ATOM      4  O2  UNL     1      75.274  60.946  99.885  0.00  0.00    +0.000 OA
ATOM      5  C5  UNL     1      74.482  62.577 101.455  0.00  0.00    +0.000 C 
ATOM      6  C6  UNL     1      74.531  61.894 102.844  0.00  0.00    +0.000 C 
ATOM      7  C7  UNL     1      75.865  61.156 103.188  0.00  0.00    +0.000 C 
ATOM      8  C8  UNL     1      77.075  62.111 103.162  0.00  0.00    +0.000 C 
ATOM      9  C9  UNL     1      75.811  60.426 104.590  0.00  0.00    +0.000 C 
ATOM     10  C25 UNL     1      75.418  58.912 104.420  0.00  0.00    +0.000 C 
ATOM     11  C28 UNL     1      76.679  58.056 104.079  0.00  0.00    +0.000 C 
ATOM     12  C29 UNL     1      76.361  56.691 103.422  0.00  0.00    +0.000 C 
ATOM     13  C30 UNL     1      77.429  55.647 103.777  0.00  0.00    +0.000 C 
ATOM     14  C31 UNL     1      76.251  56.853 101.922  0.00  0.00    +0.000 C 
ATOM     15  O12 UNL     1      77.288  56.818 101.206  0.00  0.00    +0.000 OA
ATOM     16  C32 UNL     1      74.940  57.167 101.319  0.00  0.00    +0.000 C 
ATOM     17  C33 UNL     1      74.823  57.546 100.038  0.00  0.00    +0.000 C 
ATOM     18  C34 UNL     1      73.548  58.050  99.477  0.00  0.00    +0.000 C 
ATOM     19  C35 UNL     1      73.628  58.967  98.492  0.00  0.00    +0.000 C 
ATOM     20  C36 UNL     1      72.488  59.836  98.006  0.00  0.00    +0.000 C 
ATOM     21  C46 UNL     1      72.229  57.625 100.072  0.00  0.00    +0.000 C 
ENDROOT
BRANCH   1  23
ATOM     22  C1  UNL     1      72.143  63.324  96.829  0.00  0.00    +0.000 C 
ATOM     23  C2  UNL     1      71.695  62.312  97.885  0.00  0.00    +0.000 C 
ENDBRANCH   1  23
BRANCH   6  24
ATOM     24  O3  UNL     1      73.445  61.008 102.979  0.00  0.00    +0.000 OA
ATOM     25  H10 UNL     1      73.802  60.171 103.384  0.00  0.00    +0.000 HD
ENDBRANCH   6  24
BRANCH   9  26
ATOM     26  O4  UNL     1      74.900  61.110 105.463  0.00  0.00    +0.000 OA
BRANCH  26  27
ATOM     27  C10 UNL     1      75.503  61.643 106.647  0.00  0.00    +0.000 C 
ATOM     28  O5  UNL     1      74.972  61.000 107.805  0.00  0.00    +0.000 OA
ATOM     29  C11 UNL     1      73.773  61.540 108.352  0.00  0.00    +0.000 C 
ATOM     30  C12 UNL     1      72.542  60.989 107.622  0.00  0.00    +0.000 C 
ATOM     31  C13 UNL     1      73.752  63.091 108.483  0.00  0.00    +0.000 C 
ATOM     32  C21 UNL     1      75.152  63.676 108.147  0.00  0.00    +0.000 C 
ATOM     33  C22 UNL     1      75.447  63.203 106.696  0.00  0.00    +0.000 C 
BRANCH  32  34
ATOM     34  N1  UNL     1      76.232  63.227 109.098  0.00  0.00    +0.000 NA
ATOM     35  C23 UNL     1      76.078  63.796 110.455  0.00  0.00    +0.000 C 
ATOM     36  C24 UNL     1      77.582  63.576 108.593  0.00  0.00    +0.000 C 
ENDBRANCH  32  34
BRANCH  33  37
ATOM     37  O10 UNL     1      74.547  63.773 105.774  0.00  0.00    +0.000 OA
ATOM     38  H37 UNL     1      74.095  64.547 106.189  0.00  0.00    +0.000 HD
ENDBRANCH  33  37
BRANCH  31  39
ATOM     39  O6  UNL     1      73.333  63.465 109.790  0.00  0.00    +0.000 OA
BRANCH  39  40
ATOM     40  C14 UNL     1      72.552  64.644 109.810  0.00  0.00    +0.000 C 
ATOM     41  C15 UNL     1      71.481  64.535 108.701  0.00  0.00    +0.000 C 
ATOM     42  C16 UNL     1      71.228  65.882 107.965  0.00  0.00    +0.000 C 
ATOM     43  C17 UNL     1      72.210  66.044 106.780  0.00  0.00    +0.000 C 
ATOM     44  C18 UNL     1      71.383  67.064 108.964  0.00  0.00    +0.000 C 
ATOM     45  C19 UNL     1      72.709  66.967 109.789  0.00  0.00    +0.000 C 
ATOM     46  C20 UNL     1      73.653  68.121 109.444  0.00  0.00    +0.000 C 
ATOM     47  O9  UNL     1      73.402  65.749 109.574  0.00  0.00    +0.000 OA
BRANCH  42  48
ATOM     48  O7  UNL     1      69.917  65.913 107.446  0.00  0.00    +0.000 OA
ATOM     49  H28 UNL     1      69.922  66.496 106.633  0.00  0.00    +0.000 HD
ENDBRANCH  42  48
BRANCH  44  50
ATOM     50  O8  UNL     1      70.301  67.054 109.867  0.00  0.00    +0.000 OA
ATOM     51  H30 UNL     1      69.523  67.461 109.406  0.00  0.00    +0.000 HD
ENDBRANCH  44  50
ENDBRANCH  39  40
ENDBRANCH  31  39
ENDBRANCH  26  27
ENDBRANCH   9  26
BRANCH  10  52
ATOM     52  C26 UNL     1      74.633  58.331 105.630  0.00  0.00    +0.000 C 
BRANCH  52  53
ATOM     53  C27 UNL     1      73.195  58.012 105.345  0.00  0.00    +0.000 C 
ATOM     54  O11 UNL     1      72.546  58.740 104.614  0.00  0.00    +0.000 OA
ENDBRANCH  52  53
ENDBRANCH  10  52
BRANCH  20  55
ATOM     55  C37 UNL     1      72.240  59.555  96.507  0.00  0.00    +0.000 C 
BRANCH  55  56
ATOM     56  O13 UNL     1      70.988  58.916  96.304  0.00  0.00    +0.000 OA
BRANCH  56  57
ATOM     57  C38 UNL     1      70.415  59.255  95.055  0.00  0.00    +0.000 C 
ATOM     58  O14 UNL     1      69.553  60.390  95.163  0.00  0.00    +0.000 OA
ATOM     59  C39 UNL     1      68.212  60.083  95.523  0.00  0.00    +0.000 C 
ATOM     60  C40 UNL     1      68.103  59.582  96.975  0.00  0.00    +0.000 C 
ATOM     61  C41 UNL     1      67.513  59.146  94.495  0.00  0.00    +0.000 C 
ATOM     62  C42 UNL     1      68.532  58.416  93.594  0.00  0.00    +0.000 C 
ATOM     63  C44 UNL     1      69.740  58.001  94.442  0.00  0.00    +0.000 C 
BRANCH  61  64
ATOM     64  O15 UNL     1      66.627  59.895  93.704  0.00  0.00    +0.000 OA
ATOM     65  H66 UNL     1      66.207  60.572  94.297  0.00  0.00    +0.000 HD
ENDBRANCH  61  64
BRANCH  62  66
ATOM     66  O16 UNL     1      68.957  59.285  92.550  0.00  0.00    +0.000 OA
ATOM     67  C43 UNL     1      68.645  58.741  91.288  0.00  0.00    +0.000 C 
ENDBRANCH  62  66
BRANCH  63  68
ATOM     68  O17 UNL     1      70.671  57.317  93.618  0.00  0.00    +0.000 OA
ATOM     69  C45 UNL     1      70.231  56.002  93.342  0.00  0.00    +0.000 C 
ENDBRANCH  63  68
ENDBRANCH  56  57
ENDBRANCH  55  56
ENDBRANCH  20  55
TORSDOF 18
ENDMDL
MODEL 6
REMARK VINA RESULT:      -7.3      6.767     11.171
REMARK  Name = ./S3162.pdb
REMARK  30 active torsions:
REMARK  status: ('A' for Active; 'I' for Inactive)
REMARK    1  A    between atoms: C1_1  and  C2_2
REMARK    2  A    between atoms: C2_2  and  C3_3
REMARK    3  A    between atoms: C6_8  and  O3_9
REMARK    4  A    between atoms: C7_10  and  C8_11
REMARK    5  A    between atoms: C9_12  and  O4_13
REMARK    6  A    between atoms: O4_13  and  C10_14
REMARK    7  A    between atoms: C11_16  and  C12_17
REMARK    8  A    between atoms: C13_18  and  O6_19
REMARK    9  A    between atoms: O6_19  and  C14_20
REMARK   10  A    between atoms: C16_22  and  C17_23
REMARK   11  A    between atoms: C16_22  and  O7_24
REMARK   12  A    between atoms: C18_25  and  O8_26
REMARK   13  A    between atoms: C19_27  and  C20_28
REMARK   14  A    between atoms: C21_30  and  N1_33
REMARK   15  A    between atoms: C22_31  and  O10_32
REMARK   16  A    between atoms: N1_33  and  C23_34
REMARK   17  A    between atoms: N1_33  and  C24_35
REMARK   18  A    between atoms: C25_36  and  C26_37
REMARK   19  A    between atoms: C26_37  and  C27_38
REMARK   20  A    between atoms: C29_41  and  C30_42
REMARK   21  A    between atoms: C34_47  and  C46_64
REMARK   22  A    between atoms: C36_49  and  C37_50
REMARK   23  A    between atoms: C37_50  and  O13_51
REMARK   24  A    between atoms: O13_51  and  C38_52
REMARK   25  A    between atoms: C39_54  and  C40_55
REMARK   26  A    between atoms: C41_56  and  O15_57
REMARK   27  A    between atoms: C42_58  and  O16_59
REMARK   28  A    between atoms: O16_59  and  C43_60
REMARK   29  A    between atoms: C44_61  and  O17_62
REMARK   30  A    between atoms: O17_62  and  C45_63
REMARK                            x       y       z     vdW  Elec       q    Type
REMARK                         _______ _______ _______ _____ _____    ______ ____
ROOT
ATOM      1  C3  UNL     1      74.926  64.802 114.591  0.00  0.00    +0.000 C 
ATOM      2  O1  UNL     1      74.702  65.501 113.360  0.00  0.00    +0.000 OA
ATOM      3  C4  UNL     1      73.586  65.288 112.532  0.00  0.00    +0.000 C 
ATOM      4  O2  UNL     1      73.112  64.129 112.369  0.00  0.00    +0.000 OA
ATOM      5  C5  UNL     1      72.980  66.460 111.819  0.00  0.00    +0.000 C 
ATOM      6  C6  UNL     1      73.360  66.570 110.323  0.00  0.00    +0.000 C 
ATOM      7  C7  UNL     1      72.640  65.566 109.366  0.00  0.00    +0.000 C 
ATOM      8  C8  UNL     1      71.108  65.727 109.409  0.00  0.00    +0.000 C 
ATOM      9  C9  UNL     1      73.133  65.692 107.869  0.00  0.00    +0.000 C 
ATOM     10  C25 UNL     1      74.265  64.643 107.559  0.00  0.00    +0.000 C 
ATOM     11  C28 UNL     1      73.641  63.262 107.184  0.00  0.00    +0.000 C 
ATOM     12  C29 UNL     1      74.608  62.065 107.338  0.00  0.00    +0.000 C 
ATOM     13  C30 UNL     1      74.275  60.954 106.332  0.00  0.00    +0.000 C 
ATOM     14  C31 UNL     1      74.552  61.536 108.755  0.00  0.00    +0.000 C 
ATOM     15  O12 UNL     1      73.664  60.702 109.082  0.00  0.00    +0.000 OA
ATOM     16  C32 UNL     1      75.467  62.086 109.774  0.00  0.00    +0.000 C 
ATOM     17  C33 UNL     1      75.310  61.828 111.080  0.00  0.00    +0.000 C 
ATOM     18  C34 UNL     1      76.096  62.526 112.124  0.00  0.00    +0.000 C 
ATOM     19  C35 UNL     1      75.499  62.724 113.315  0.00  0.00    +0.000 C 
ATOM     20  C36 UNL     1      75.980  63.673 114.393  0.00  0.00    +0.000 C 
ATOM     21  C46 UNL     1      77.463  63.081 111.809  0.00  0.00    +0.000 C 
ENDROOT
BRANCH   1  23
ATOM     22  C1  UNL     1      75.441  67.274 115.102  0.00  0.00    +0.000 C 
ATOM     23  C2  UNL     1      75.326  65.854 115.655  0.00  0.00    +0.000 C 
ENDBRANCH   1  23
BRANCH   6  24
ATOM     24  O3  UNL     1      74.756  66.454 110.176  0.00  0.00    +0.000 OA
ATOM     25  H10 UNL     1      75.170  66.938 110.942  0.00  0.00    +0.000 HD
ENDBRANCH   6  24
BRANCH   9  26
ATOM     26  O4  UNL     1      73.576  67.033 107.612  0.00  0.00    +0.000 OA
BRANCH  26  27
ATOM     27  C10 UNL     1      72.639  67.837 106.887  0.00  0.00    +0.000 C 
ATOM     28  O5  UNL     1      73.067  67.997 105.534  0.00  0.00    +0.000 OA
ATOM     29  C11 UNL     1      73.967  69.067 105.264  0.00  0.00    +0.000 C 
ATOM     30  C12 UNL     1      75.414  68.650 105.553  0.00  0.00    +0.000 C 
ATOM     31  C13 UNL     1      73.588  70.426 105.922  0.00  0.00    +0.000 C 
ATOM     32  C21 UNL     1      72.185  70.328 106.583  0.00  0.00    +0.000 C 
ATOM     33  C22 UNL     1      72.307  69.176 107.619  0.00  0.00    +0.000 C 
BRANCH  32  34
ATOM     34  N1  UNL     1      71.077  70.060 105.596  0.00  0.00    +0.000 NA
ATOM     35  C23 UNL     1      70.789  71.220 104.724  0.00  0.00    +0.000 C 
ATOM     36  C24 UNL     1      69.823  69.663 106.281  0.00  0.00    +0.000 C 
ENDBRANCH  32  34
BRANCH  33  37
ATOM     37  O10 UNL     1      73.210  69.503 108.650  0.00  0.00    +0.000 OA
ATOM     38  H37 UNL     1      74.096  69.117 108.447  0.00  0.00    +0.000 HD
ENDBRANCH  33  37
BRANCH  31  39
ATOM     39  O6  UNL     1      73.636  71.467 104.954  0.00  0.00    +0.000 OA
BRANCH  39  40
ATOM     40  C14 UNL     1      74.261  72.643 105.431  0.00  0.00    +0.000 C 
ATOM     41  C15 UNL     1      75.176  72.261 106.615  0.00  0.00    +0.000 C 
ATOM     42  C16 UNL     1      75.159  73.312 107.762  0.00  0.00    +0.000 C 
ATOM     43  C17 UNL     1      74.012  73.009 108.756  0.00  0.00    +0.000 C 
ATOM     44  C18 UNL     1      74.996  74.738 107.164  0.00  0.00    +0.000 C 
ATOM     45  C19 UNL     1      73.817  74.816 106.139  0.00  0.00    +0.000 C 
ATOM     46  C20 UNL     1      72.700  75.723 106.659  0.00  0.00    +0.000 C 
ATOM     47  O9  UNL     1      73.256  73.547 105.849  0.00  0.00    +0.000 OA
BRANCH  42  48
ATOM     48  O7  UNL     1      76.373  73.270 108.478  0.00  0.00    +0.000 OA
ATOM     49  H28 UNL     1      76.450  72.367 108.900  0.00  0.00    +0.000 HD
ENDBRANCH  42  48
BRANCH  44  50
ATOM     50  O8  UNL     1      76.184  75.102 106.498  0.00  0.00    +0.000 OA
ATOM     51  H30 UNL     1      76.528  75.927 106.928  0.00  0.00    +0.000 HD
ENDBRANCH  44  50
ENDBRANCH  39  40
ENDBRANCH  31  39
ENDBRANCH  26  27
ENDBRANCH   9  26
BRANCH  10  52
ATOM     52  C26 UNL     1      75.289  65.126 106.493  0.00  0.00    +0.000 C 
BRANCH  52  53
ATOM     53  C27 UNL     1      76.658  65.418 107.031  0.00  0.00    +0.000 C 
ATOM     54  O11 UNL     1      76.846  65.433 108.236  0.00  0.00    +0.000 OA
ENDBRANCH  52  53
ENDBRANCH  10  52
BRANCH  20  55
ATOM     55  C37 UNL     1      76.276  62.871 115.679  0.00  0.00    +0.000 C 
BRANCH  55  56
ATOM     56  O13 UNL     1      77.673  62.693 115.864  0.00  0.00    +0.000 OA
BRANCH  56  57
ATOM     57  C38 UNL     1      78.007  61.341 116.116  0.00  0.00    +0.000 C 
ATOM     58  O14 UNL     1      78.677  61.191 117.371  0.00  0.00    +0.000 OA
ATOM     59  C39 UNL     1      80.087  61.371 117.314  0.00  0.00    +0.000 C 
ATOM     60  C40 UNL     1      80.472  62.834 117.030  0.00  0.00    +0.000 C 
ATOM     61  C41 UNL     1      80.785  60.355 116.364  0.00  0.00    +0.000 C 
ATOM     62  C42 UNL     1      79.788  59.707 115.380  0.00  0.00    +0.000 C 
ATOM     63  C44 UNL     1      78.790  60.771 114.907  0.00  0.00    +0.000 C 
BRANCH  61  64
ATOM     64  O15 UNL     1      81.420  59.360 117.125  0.00  0.00    +0.000 OA
ATOM     65  H66 UNL     1      81.361  58.515 116.607  0.00  0.00    +0.000 HD
ENDBRANCH  61  64
BRANCH  62  66
ATOM     66  O16 UNL     1      79.088  58.652 116.032  0.00  0.00    +0.000 OA
ATOM     67  C43 UNL     1      79.360  57.414 115.416  0.00  0.00    +0.000 C 
ENDBRANCH  62  66
BRANCH  63  68
ATOM     68  O17 UNL     1      77.883  60.179 113.990  0.00  0.00    +0.000 OA
ATOM     69  C45 UNL     1      78.537  59.822 112.789  0.00  0.00    +0.000 C 
ENDBRANCH  63  68
ENDBRANCH  56  57
ENDBRANCH  55  56
ENDBRANCH  20  55
TORSDOF 18
ENDMDL
MODEL 7
REMARK VINA RESULT:      -7.2      3.802     13.555
REMARK  Name = ./S3162.pdb
REMARK  30 active torsions:
REMARK  status: ('A' for Active; 'I' for Inactive)
REMARK    1  A    between atoms: C1_1  and  C2_2
REMARK    2  A    between atoms: C2_2  and  C3_3
REMARK    3  A    between atoms: C6_8  and  O3_9
REMARK    4  A    between atoms: C7_10  and  C8_11
REMARK    5  A    between atoms: C9_12  and  O4_13
REMARK    6  A    between atoms: O4_13  and  C10_14
REMARK    7  A    between atoms: C11_16  and  C12_17
REMARK    8  A    between atoms: C13_18  and  O6_19
REMARK    9  A    between atoms: O6_19  and  C14_20
REMARK   10  A    between atoms: C16_22  and  C17_23
REMARK   11  A    between atoms: C16_22  and  O7_24
REMARK   12  A    between atoms: C18_25  and  O8_26
REMARK   13  A    between atoms: C19_27  and  C20_28
REMARK   14  A    between atoms: C21_30  and  N1_33
REMARK   15  A    between atoms: C22_31  and  O10_32
REMARK   16  A    between atoms: N1_33  and  C23_34
REMARK   17  A    between atoms: N1_33  and  C24_35
REMARK   18  A    between atoms: C25_36  and  C26_37
REMARK   19  A    between atoms: C26_37  and  C27_38
REMARK   20  A    between atoms: C29_41  and  C30_42
REMARK   21  A    between atoms: C34_47  and  C46_64
REMARK   22  A    between atoms: C36_49  and  C37_50
REMARK   23  A    between atoms: C37_50  and  O13_51
REMARK   24  A    between atoms: O13_51  and  C38_52
REMARK   25  A    between atoms: C39_54  and  C40_55
REMARK   26  A    between atoms: C41_56  and  O15_57
REMARK   27  A    between atoms: C42_58  and  O16_59
REMARK   28  A    between atoms: O16_59  and  C43_60
REMARK   29  A    between atoms: C44_61  and  O17_62
REMARK   30  A    between atoms: O17_62  and  C45_63
REMARK                            x       y       z     vdW  Elec       q    Type
REMARK                         _______ _______ _______ _____ _____    ______ ____
ROOT
ATOM      1  C3  UNL     1      75.293  60.651 102.625  0.00  0.00    +0.000 C 
ATOM      2  O1  UNL     1      75.576  60.943 103.999  0.00  0.00    +0.000 OA
ATOM      3  C4  UNL     1      74.714  60.618 105.061  0.00  0.00    +0.000 C 
ATOM      4  O2  UNL     1      73.461  60.717 104.931  0.00  0.00    +0.000 OA
ATOM      5  C5  UNL     1      75.306  60.178 106.366  0.00  0.00    +0.000 C 
ATOM      6  C6  UNL     1      75.330  61.269 107.463  0.00  0.00    +0.000 C 
ATOM      7  C7  UNL     1      73.957  61.573 108.145  0.00  0.00    +0.000 C 
ATOM      8  C8  UNL     1      73.364  60.325 108.827  0.00  0.00    +0.000 C 
ATOM      9  C9  UNL     1      74.050  62.746 109.202  0.00  0.00    +0.000 C 
ATOM     10  C25 UNL     1      73.642  64.121 108.552  0.00  0.00    +0.000 C 
ATOM     11  C28 UNL     1      72.090  64.294 108.571  0.00  0.00    +0.000 C 
ATOM     12  C29 UNL     1      71.555  65.331 107.555  0.00  0.00    +0.000 C 
ATOM     13  C30 UNL     1      70.269  65.993 108.070  0.00  0.00    +0.000 C 
ATOM     14  C31 UNL     1      71.314  64.666 106.218  0.00  0.00    +0.000 C 
ATOM     15  O12 UNL     1      70.225  64.070 105.997  0.00  0.00    +0.000 OA
ATOM     16  C32 UNL     1      72.402  64.622 105.221  0.00  0.00    +0.000 C 
ATOM     17  C33 UNL     1      72.326  63.855 104.123  0.00  0.00    +0.000 C 
ATOM     18  C34 UNL     1      73.483  63.651 103.221  0.00  0.00    +0.000 C 
ATOM     19  C35 UNL     1      73.567  62.465 102.586  0.00  0.00    +0.000 C 
ATOM     20  C36 UNL     1      74.798  61.928 101.886  0.00  0.00    +0.000 C 
ATOM     21  C46 UNL     1      74.566  64.696 103.117  0.00  0.00    +0.000 C 
ENDROOT
BRANCH   1  23
ATOM     22  C1  UNL     1      77.835  60.850 102.255  0.00  0.00    +0.000 C 
ATOM     23  C2  UNL     1      76.571  60.026 102.011  0.00  0.00    +0.000 C 
ENDBRANCH   1  23
BRANCH   6  24
ATOM     24  O3  UNL     1      75.880  62.457 106.943  0.00  0.00    +0.000 OA
ATOM     25  H10 UNL     1      76.822  62.255 106.690  0.00  0.00    +0.000 HD
ENDBRANCH   6  24
BRANCH   9  26
ATOM     26  O4  UNL     1      75.371  62.800 109.758  0.00  0.00    +0.000 OA
BRANCH  26  27
ATOM     27  C10 UNL     1      75.441  63.388 111.062  0.00  0.00    +0.000 C 
ATOM     28  O5  UNL     1      76.763  63.859 111.322  0.00  0.00    +0.000 OA
ATOM     29  C11 UNL     1      77.690  62.921 111.858  0.00  0.00    +0.000 C 
ATOM     30  C12 UNL     1      78.330  62.086 110.742  0.00  0.00    +0.000 C 
ATOM     31  C13 UNL     1      77.141  62.049 113.024  0.00  0.00    +0.000 C 
ATOM     32  C21 UNL     1      75.735  62.552 113.453  0.00  0.00    +0.000 C 
ATOM     33  C22 UNL     1      74.863  62.452 112.171  0.00  0.00    +0.000 C 
BRANCH  32  34
ATOM     34  N1  UNL     1      75.744  63.957 114.000  0.00  0.00    +0.000 NA
ATOM     35  C23 UNL     1      76.116  64.017 115.430  0.00  0.00    +0.000 C 
ATOM     36  C24 UNL     1      74.427  64.616 113.829  0.00  0.00    +0.000 C 
ENDBRANCH  32  34
BRANCH  33  37
ATOM     37  O10 UNL     1      74.698  61.114 111.762  0.00  0.00    +0.000 OA
ATOM     38  H37 UNL     1      73.943  61.053 111.129  0.00  0.00    +0.000 HD
ENDBRANCH  33  37
BRANCH  31  39
ATOM     39  O6  UNL     1      78.054  62.062 114.115  0.00  0.00    +0.000 OA
BRANCH  39  40
ATOM     40  C14 UNL     1      77.999  60.887 114.902  0.00  0.00    +0.000 C 
ATOM     41  C15 UNL     1      78.663  61.185 116.265  0.00  0.00    +0.000 C 
ATOM     42  C16 UNL     1      79.511  59.996 116.802  0.00  0.00    +0.000 C 
ATOM     43  C17 UNL     1      80.958  60.076 116.259  0.00  0.00    +0.000 C 
ATOM     44  C18 UNL     1      78.850  58.651 116.389  0.00  0.00    +0.000 C 
ATOM     45  C19 UNL     1      78.495  58.613 114.865  0.00  0.00    +0.000 C 
ATOM     46  C20 UNL     1      79.331  57.560 114.136  0.00  0.00    +0.000 C 
ATOM     47  O9  UNL     1      78.695  59.860 114.223  0.00  0.00    +0.000 OA
BRANCH  42  48
ATOM     48  O7  UNL     1      79.575  60.042 118.210  0.00  0.00    +0.000 OA
ATOM     49  H28 UNL     1      79.979  60.919 118.471  0.00  0.00    +0.000 HD
ENDBRANCH  42  48
BRANCH  44  50
ATOM     50  O8  UNL     1      77.660  58.473 117.123  0.00  0.00    +0.000 OA
ATOM     51  H30 UNL     1      77.790  57.689 117.717  0.00  0.00    +0.000 HD
ENDBRANCH  44  50
ENDBRANCH  39  40
ENDBRANCH  31  39
ENDBRANCH  26  27
ENDBRANCH   9  26
BRANCH  10  52
ATOM     52  C26 UNL     1      74.370  65.346 109.176  0.00  0.00    +0.000 C 
BRANCH  52  53
ATOM     53  C27 UNL     1      75.369  66.003 108.271  0.00  0.00    +0.000 C 
ATOM     54  O11 UNL     1      75.839  65.382 107.333  0.00  0.00    +0.000 OA
ENDBRANCH  52  53
ENDBRANCH  10  52
BRANCH  20  55
ATOM     55  C37 UNL     1      74.470  61.693 100.395  0.00  0.00    +0.000 C 
BRANCH  55  56
ATOM     56  O13 UNL     1      73.183  62.195 100.066  0.00  0.00    +0.000 OA
BRANCH  56  57
ATOM     57  C38 UNL     1      72.260  61.156  99.800  0.00  0.00    +0.000 C 
ATOM     58  O14 UNL     1      72.422  60.634  98.479  0.00  0.00    +0.000 OA
ATOM     59  C39 UNL     1      71.694  61.331  97.475  0.00  0.00    +0.000 C 
ATOM     60  C40 UNL     1      72.257  62.743  97.227  0.00  0.00    +0.000 C 
ATOM     61  C41 UNL     1      70.159  61.317  97.725  0.00  0.00    +0.000 C 
ATOM     62  C42 UNL     1      69.816  60.963  99.187  0.00  0.00    +0.000 C 
ATOM     63  C44 UNL     1      70.825  61.649 100.116  0.00  0.00    +0.000 C 
BRANCH  61  64
ATOM     64  O15 UNL     1      69.551  60.396  96.856  0.00  0.00    +0.000 OA
ATOM     65  H66 UNL     1      68.632  60.727  96.677  0.00  0.00    +0.000 HD
ENDBRANCH  61  64
BRANCH  62  66
ATOM     66  O16 UNL     1      69.883  59.552  99.368  0.00  0.00    +0.000 OA
ATOM     67  C43 UNL     1      68.645  59.044  99.807  0.00  0.00    +0.000 C 
ENDBRANCH  62  66
BRANCH  63  68
ATOM     68  O17 UNL     1      70.501  61.337 101.462  0.00  0.00    +0.000 OA
ATOM     69  C45 UNL     1      69.650  62.318 102.018  0.00  0.00    +0.000 C 
ENDBRANCH  63  68
ENDBRANCH  56  57
ENDBRANCH  55  56
ENDBRANCH  20  55
TORSDOF 18
ENDMDL
MODEL 8
REMARK VINA RESULT:      -7.2      3.594     13.032
REMARK  Name = ./S3162.pdb
REMARK  30 active torsions:
REMARK  status: ('A' for Active; 'I' for Inactive)
REMARK    1  A    between atoms: C1_1  and  C2_2
REMARK    2  A    between atoms: C2_2  and  C3_3
REMARK    3  A    between atoms: C6_8  and  O3_9
REMARK    4  A    between atoms: C7_10  and  C8_11
REMARK    5  A    between atoms: C9_12  and  O4_13
REMARK    6  A    between atoms: O4_13  and  C10_14
REMARK    7  A    between atoms: C11_16  and  C12_17
REMARK    8  A    between atoms: C13_18  and  O6_19
REMARK    9  A    between atoms: O6_19  and  C14_20
REMARK   10  A    between atoms: C16_22  and  C17_23
REMARK   11  A    between atoms: C16_22  and  O7_24
REMARK   12  A    between atoms: C18_25  and  O8_26
REMARK   13  A    between atoms: C19_27  and  C20_28
REMARK   14  A    between atoms: C21_30  and  N1_33
REMARK   15  A    between atoms: C22_31  and  O10_32
REMARK   16  A    between atoms: N1_33  and  C23_34
REMARK   17  A    between atoms: N1_33  and  C24_35
REMARK   18  A    between atoms: C25_36  and  C26_37
REMARK   19  A    between atoms: C26_37  and  C27_38
REMARK   20  A    between atoms: C29_41  and  C30_42
REMARK   21  A    between atoms: C34_47  and  C46_64
REMARK   22  A    between atoms: C36_49  and  C37_50
REMARK   23  A    between atoms: C37_50  and  O13_51
REMARK   24  A    between atoms: O13_51  and  C38_52
REMARK   25  A    between atoms: C39_54  and  C40_55
REMARK   26  A    between atoms: C41_56  and  O15_57
REMARK   27  A    between atoms: C42_58  and  O16_59
REMARK   28  A    between atoms: O16_59  and  C43_60
REMARK   29  A    between atoms: C44_61  and  O17_62
REMARK   30  A    between atoms: O17_62  and  C45_63
REMARK                            x       y       z     vdW  Elec       q    Type
REMARK                         _______ _______ _______ _____ _____    ______ ____
ROOT
ATOM      1  C3  UNL     1      73.349  59.597 103.524  0.00  0.00    +0.000 C 
ATOM      2  O1  UNL     1      73.835  60.103 104.774  0.00  0.00    +0.000 OA
ATOM      3  C4  UNL     1      73.180  61.094 105.525  0.00  0.00    +0.000 C 
ATOM      4  O2  UNL     1      72.604  62.063 104.955  0.00  0.00    +0.000 OA
ATOM      5  C5  UNL     1      73.199  61.000 107.021  0.00  0.00    +0.000 C 
ATOM      6  C6  UNL     1      74.213  61.944 107.713  0.00  0.00    +0.000 C 
ATOM      7  C7  UNL     1      73.802  63.450 107.774  0.00  0.00    +0.000 C 
ATOM      8  C8  UNL     1      72.475  63.655 108.531  0.00  0.00    +0.000 C 
ATOM      9  C9  UNL     1      74.918  64.359 108.430  0.00  0.00    +0.000 C 
ATOM     10  C25 UNL     1      75.833  65.009 107.326  0.00  0.00    +0.000 C 
ATOM     11  C28 UNL     1      75.174  66.309 106.767  0.00  0.00    +0.000 C 
ATOM     12  C29 UNL     1      75.711  66.749 105.384  0.00  0.00    +0.000 C 
ATOM     13  C30 UNL     1      75.639  68.275 105.226  0.00  0.00    +0.000 C 
ATOM     14  C31 UNL     1      74.932  66.061 104.285  0.00  0.00    +0.000 C 
ATOM     15  O12 UNL     1      73.843  66.553 103.882  0.00  0.00    +0.000 OA
ATOM     16  C32 UNL     1      75.395  64.757 103.772  0.00  0.00    +0.000 C 
ATOM     17  C33 UNL     1      74.630  63.999 102.973  0.00  0.00    +0.000 C 
ATOM     18  C34 UNL     1      75.000  62.610 102.612  0.00  0.00    +0.000 C 
ATOM     19  C35 UNL     1      73.992  61.741 102.399  0.00  0.00    +0.000 C 
ATOM     20  C36 UNL     1      74.130  60.234 102.338  0.00  0.00    +0.000 C 
ATOM     21  C46 UNL     1      76.446  62.182 102.597  0.00  0.00    +0.000 C 
ENDROOT
BRANCH   1  23
ATOM     22  C1  UNL     1      73.453  57.489 105.002  0.00  0.00    +0.000 C 
ATOM     23  C2  UNL     1      73.442  58.052 103.580  0.00  0.00    +0.000 C 
ENDBRANCH   1  23
BRANCH   6  24
ATOM     24  O3  UNL     1      75.476  61.817 107.103  0.00  0.00    +0.000 OA
ATOM     25  H10 UNL     1      75.415  61.053 106.466  0.00  0.00    +0.000 HD
ENDBRANCH   6  24
BRANCH   9  26
ATOM     26  O4  UNL     1      75.688  63.589 109.364  0.00  0.00    +0.000 OA
BRANCH  26  27
ATOM     27  C10 UNL     1      75.585  64.032 110.722  0.00  0.00    +0.000 C 
ATOM     28  O5  UNL     1      76.884  64.277 111.262  0.00  0.00    +0.000 OA
ATOM     29  C11 UNL     1      77.568  63.166 111.832  0.00  0.00    +0.000 C 
ATOM     30  C12 UNL     1      78.295  62.358 110.750  0.00  0.00    +0.000 C 
ATOM     31  C13 UNL     1      76.704  62.275 112.771  0.00  0.00    +0.000 C 
ATOM     32  C21 UNL     1      75.317  62.935 113.009  0.00  0.00    +0.000 C 
ATOM     33  C22 UNL     1      74.696  63.088 111.592  0.00  0.00    +0.000 C 
BRANCH  32  34
ATOM     34  N1  UNL     1      75.401  64.264 113.715  0.00  0.00    +0.000 NA
ATOM     35  C23 UNL     1      75.600  64.130 115.175  0.00  0.00    +0.000 C 
ATOM     36  C24 UNL     1      74.187  65.084 113.479  0.00  0.00    +0.000 C 
ENDBRANCH  32  34
BRANCH  33  37
ATOM     37  O10 UNL     1      74.443  61.834 111.002  0.00  0.00    +0.000 OA
ATOM     38  H37 UNL     1      74.928  61.770 110.143  0.00  0.00    +0.000 HD
ENDBRANCH  33  37
BRANCH  31  39
ATOM     39  O6  UNL     1      77.389  62.049 113.997  0.00  0.00    +0.000 OA
BRANCH  39  40
ATOM     40  C14 UNL     1      77.923  60.743 114.105  0.00  0.00    +0.000 C 
ATOM     41  C15 UNL     1      76.794  59.794 114.560  0.00  0.00    +0.000 C 
ATOM     42  C16 UNL     1      77.275  58.717 115.575  0.00  0.00    +0.000 C 
ATOM     43  C17 UNL     1      77.185  59.260 117.022  0.00  0.00    +0.000 C 
ATOM     44  C18 UNL     1      78.735  58.298 115.242  0.00  0.00    +0.000 C 
ATOM     45  C19 UNL     1      79.674  59.535 115.051  0.00  0.00    +0.000 C 
ATOM     46  C20 UNL     1      80.737  59.588 116.150  0.00  0.00    +0.000 C 
ATOM     47  O9  UNL     1      78.970  60.765 115.057  0.00  0.00    +0.000 OA
BRANCH  42  48
ATOM     48  O7  UNL     1      76.457  57.571 115.492  0.00  0.00    +0.000 OA
ATOM     49  H28 UNL     1      75.774  57.627 116.221  0.00  0.00    +0.000 HD
ENDBRANCH  42  48
BRANCH  44  50
ATOM     50  O8  UNL     1      78.743  57.550 114.048  0.00  0.00    +0.000 OA
ATOM     51  H30 UNL     1      79.043  58.153 113.319  0.00  0.00    +0.000 HD
ENDBRANCH  44  50
ENDBRANCH  39  40
ENDBRANCH  31  39
ENDBRANCH  26  27
ENDBRANCH   9  26
BRANCH  10  52
ATOM     52  C26 UNL     1      77.295  65.255 107.794  0.00  0.00    +0.000 C 
BRANCH  52  53
ATOM     53  C27 UNL     1      78.320  64.401 107.109  0.00  0.00    +0.000 C 
ATOM     54  O11 UNL     1      77.967  63.430 106.462  0.00  0.00    +0.000 OA
ENDBRANCH  52  53
ENDBRANCH  10  52
BRANCH  20  55
ATOM     55  C37 UNL     1      73.661  59.739 100.952  0.00  0.00    +0.000 C 
BRANCH  55  56
ATOM     56  O13 UNL     1      72.718  60.632 100.378  0.00  0.00    +0.000 OA
BRANCH  56  57
ATOM     57  C38 UNL     1      71.418  60.076 100.333  0.00  0.00    +0.000 C 
ATOM     58  O14 UNL     1      71.142  59.489  99.059  0.00  0.00    +0.000 OA
ATOM     59  C39 UNL     1      70.623  60.393  98.092  0.00  0.00    +0.000 C 
ATOM     60  C40 UNL     1      71.675  61.422  97.639  0.00  0.00    +0.000 C 
ATOM     61  C41 UNL     1      69.279  61.042  98.533  0.00  0.00    +0.000 C 
ATOM     62  C42 UNL     1      69.052  60.918 100.055  0.00  0.00    +0.000 C 
ATOM     63  C44 UNL     1      70.386  61.143 100.778  0.00  0.00    +0.000 C 
BRANCH  61  64
ATOM     64  O15 UNL     1      68.216  60.437  97.842  0.00  0.00    +0.000 OA
ATOM     65  H66 UNL     1      67.863  59.714  98.425  0.00  0.00    +0.000 HD
ENDBRANCH  61  64
BRANCH  62  66
ATOM     66  O16 UNL     1      68.554  59.620 100.362  0.00  0.00    +0.000 OA
ATOM     67  C43 UNL     1      67.169  59.661 100.617  0.00  0.00    +0.000 C 
ENDBRANCH  62  66
BRANCH  63  68
ATOM     68  O17 UNL     1      70.175  61.045 102.178  0.00  0.00    +0.000 OA
ATOM     69  C45 UNL     1      69.838  62.302 102.728  0.00  0.00    +0.000 C 
ENDBRANCH  63  68
ENDBRANCH  56  57
ENDBRANCH  55  56
ENDBRANCH  20  55
TORSDOF 18
ENDMDL
MODEL 9
REMARK VINA RESULT:      -7.1      3.915      7.753
REMARK  Name = ./S3162.pdb
REMARK  30 active torsions:
REMARK  status: ('A' for Active; 'I' for Inactive)
REMARK    1  A    between atoms: C1_1  and  C2_2
REMARK    2  A    between atoms: C2_2  and  C3_3
REMARK    3  A    between atoms: C6_8  and  O3_9
REMARK    4  A    between atoms: C7_10  and  C8_11
REMARK    5  A    between atoms: C9_12  and  O4_13
REMARK    6  A    between atoms: O4_13  and  C10_14
REMARK    7  A    between atoms: C11_16  and  C12_17
REMARK    8  A    between atoms: C13_18  and  O6_19
REMARK    9  A    between atoms: O6_19  and  C14_20
REMARK   10  A    between atoms: C16_22  and  C17_23
REMARK   11  A    between atoms: C16_22  and  O7_24
REMARK   12  A    between atoms: C18_25  and  O8_26
REMARK   13  A    between atoms: C19_27  and  C20_28
REMARK   14  A    between atoms: C21_30  and  N1_33
REMARK   15  A    between atoms: C22_31  and  O10_32
REMARK   16  A    between atoms: N1_33  and  C23_34
REMARK   17  A    between atoms: N1_33  and  C24_35
REMARK   18  A    between atoms: C25_36  and  C26_37
REMARK   19  A    between atoms: C26_37  and  C27_38
REMARK   20  A    between atoms: C29_41  and  C30_42
REMARK   21  A    between atoms: C34_47  and  C46_64
REMARK   22  A    between atoms: C36_49  and  C37_50
REMARK   23  A    between atoms: C37_50  and  O13_51
REMARK   24  A    between atoms: O13_51  and  C38_52
REMARK   25  A    between atoms: C39_54  and  C40_55
REMARK   26  A    between atoms: C41_56  and  O15_57
REMARK   27  A    between atoms: C42_58  and  O16_59
REMARK   28  A    between atoms: O16_59  and  C43_60
REMARK   29  A    between atoms: C44_61  and  O17_62
REMARK   30  A    between atoms: O17_62  and  C45_63
REMARK                            x       y       z     vdW  Elec       q    Type
REMARK                         _______ _______ _______ _____ _____    ______ ____
ROOT
ATOM      1  C3  UNL     1      76.015  62.381 113.985  0.00  0.00    +0.000 C 
ATOM      2  O1  UNL     1      75.568  62.232 112.631  0.00  0.00    +0.000 OA
ATOM      3  C4  UNL     1      76.239  62.774 111.521  0.00  0.00    +0.000 C 
ATOM      4  O2  UNL     1      76.784  63.911 111.587  0.00  0.00    +0.000 OA
ATOM      5  C5  UNL     1      76.272  61.992 110.243  0.00  0.00    +0.000 C 
ATOM      6  C6  UNL     1      75.274  62.477 109.164  0.00  0.00    +0.000 C 
ATOM      7  C7  UNL     1      75.671  63.791 108.417  0.00  0.00    +0.000 C 
ATOM      8  C8  UNL     1      77.021  63.652 107.687  0.00  0.00    +0.000 C 
ATOM      9  C9  UNL     1      74.569  64.259 107.384  0.00  0.00    +0.000 C 
ATOM     10  C25 UNL     1      73.609  65.325 108.031  0.00  0.00    +0.000 C 
ATOM     11  C28 UNL     1      74.234  66.752 107.934  0.00  0.00    +0.000 C 
ATOM     12  C29 UNL     1      73.643  67.773 108.936  0.00  0.00    +0.000 C 
ATOM     13  C30 UNL     1      73.694  69.197 108.365  0.00  0.00    +0.000 C 
ATOM     14  C31 UNL     1      74.391  67.698 110.249  0.00  0.00    +0.000 C 
ATOM     15  O12 UNL     1      75.460  68.350 110.404  0.00  0.00    +0.000 OA
ATOM     16  C32 UNL     1      73.924  66.774 111.301  0.00  0.00    +0.000 C 
ATOM     17  C33 UNL     1      74.668  66.496 112.381  0.00  0.00    +0.000 C 
ATOM     18  C34 UNL     1      74.301  65.427 113.339  0.00  0.00    +0.000 C 
ATOM     19  C35 UNL     1      75.310  64.784 113.960  0.00  0.00    +0.000 C 
ATOM     20  C36 UNL     1      75.186  63.478 114.715  0.00  0.00    +0.000 C 
ATOM     21  C46 UNL     1      72.860  65.019 113.515  0.00  0.00    +0.000 C 
ENDROOT
BRANCH   1  23
ATOM     22  C1  UNL     1      77.306  60.328 114.857  0.00  0.00    +0.000 C 
ATOM     23  C2  UNL     1      75.941  60.987 114.655  0.00  0.00    +0.000 C 
ENDBRANCH   1  23
BRANCH   6  24
ATOM     24  O3  UNL     1      73.992  62.617 109.730  0.00  0.00    +0.000 OA
ATOM     25  H10 UNL     1      74.120  62.933 110.666  0.00  0.00    +0.000 HD
ENDBRANCH   6  24
BRANCH   9  26
ATOM     26  O4  UNL     1      73.840  63.123 106.898  0.00  0.00    +0.000 OA
BRANCH  26  27
ATOM     27  C10 UNL     1      73.812  63.003 105.471  0.00  0.00    +0.000 C 
ATOM     28  O5  UNL     1      72.518  62.586 105.035  0.00  0.00    +0.000 OA
ATOM     29  C11 UNL     1      72.265  61.186 105.008  0.00  0.00    +0.000 C 
ATOM     30  C12 UNL     1      71.836  60.681 106.391  0.00  0.00    +0.000 C 
ATOM     31  C13 UNL     1      73.399  60.326 104.378  0.00  0.00    +0.000 C 
ATOM     32  C21 UNL     1      74.482  61.245 103.749  0.00  0.00    +0.000 C 
ATOM     33  C22 UNL     1      74.986  62.133 104.921  0.00  0.00    +0.000 C 
BRANCH  32  34
ATOM     34  N1  UNL     1      73.964  62.087 102.610  0.00  0.00    +0.000 NA
ATOM     35  C23 UNL     1      73.810  61.323 101.353  0.00  0.00    +0.000 C 
ATOM     36  C24 UNL     1      74.845  63.251 102.349  0.00  0.00    +0.000 C 
ENDBRANCH  32  34
BRANCH  33  37
ATOM     37  O10 UNL     1      75.640  61.365 105.905  0.00  0.00    +0.000 OA
ATOM     38  H37 UNL     1      76.108  60.609 105.477  0.00  0.00    +0.000 HD
ENDBRANCH  33  37
BRANCH  31  39
ATOM     39  O6  UNL     1      72.855  59.430 103.416  0.00  0.00    +0.000 OA
BRANCH  39  40
ATOM     40  C14 UNL     1      73.388  58.122 103.508  0.00  0.00    +0.000 C 
ATOM     41  C15 UNL     1      74.030  57.956 104.902  0.00  0.00    +0.000 C 
ATOM     42  C16 UNL     1      75.353  57.138 104.871  0.00  0.00    +0.000 C 
ATOM     43  C17 UNL     1      76.559  58.069 104.601  0.00  0.00    +0.000 C 
ATOM     44  C18 UNL     1      75.262  56.037 103.777  0.00  0.00    +0.000 C 
ATOM     45  C19 UNL     1      74.771  56.608 102.405  0.00  0.00    +0.000 C 
ATOM     46  C20 UNL     1      75.872  56.511 101.347  0.00  0.00    +0.000 C 
ATOM     47  O9  UNL     1      74.358  57.961 102.490  0.00  0.00    +0.000 OA
BRANCH  42  48
ATOM     48  O7  UNL     1      75.564  56.507 106.114  0.00  0.00    +0.000 OA
ATOM     49  H28 UNL     1      75.507  57.206 106.827  0.00  0.00    +0.000 HD
ENDBRANCH  42  48
BRANCH  44  50
ATOM     50  O8  UNL     1      74.353  55.043 104.191  0.00  0.00    +0.000 OA
ATOM     51  H30 UNL     1      74.554  54.829 105.138  0.00  0.00    +0.000 HD
ENDBRANCH  44  50
ENDBRANCH  39  40
ENDBRANCH  31  39
ENDBRANCH  26  27
ENDBRANCH   9  26
BRANCH  10  52
ATOM     52  C26 UNL     1      72.161  65.286 107.464  0.00  0.00    +0.000 C 
BRANCH  52  53
ATOM     53  C27 UNL     1      71.153  64.649 108.374  0.00  0.00    +0.000 C 
ATOM     54  O11 UNL     1      71.489  64.274 109.484  0.00  0.00    +0.000 OA
ENDBRANCH  52  53
ENDBRANCH  10  52
BRANCH  20  55
ATOM     55  C37 UNL     1      75.611  63.699 116.183  0.00  0.00    +0.000 C 
BRANCH  55  56
ATOM     56  O13 UNL     1      75.440  65.055 116.569  0.00  0.00    +0.000 OA
BRANCH  56  57
ATOM     57  C38 UNL     1      74.277  65.242 117.353  0.00  0.00    +0.000 C 
ATOM     58  O14 UNL     1      73.293  66.013 116.658  0.00  0.00    +0.000 OA
ATOM     59  C39 UNL     1      73.434  67.421 116.805  0.00  0.00    +0.000 C 
ATOM     60  C40 UNL     1      74.685  67.956 116.085  0.00  0.00    +0.000 C 
ATOM     61  C41 UNL     1      73.332  67.885 118.287  0.00  0.00    +0.000 C 
ATOM     62  C42 UNL     1      73.555  66.718 119.273  0.00  0.00    +0.000 C 
ATOM     63  C44 UNL     1      74.675  65.818 118.736  0.00  0.00    +0.000 C 
BRANCH  61  64
ATOM     64  O15 UNL     1      72.073  68.465 118.512  0.00  0.00    +0.000 OA
ATOM     65  H66 UNL     1      71.484  68.181 117.765  0.00  0.00    +0.000 HD
ENDBRANCH  61  64
BRANCH  62  66
ATOM     66  O16 UNL     1      72.355  65.963 119.402  0.00  0.00    +0.000 OA
ATOM     67  C43 UNL     1      71.905  65.962 120.737  0.00  0.00    +0.000 C 
ENDBRANCH  62  66
BRANCH  63  68
ATOM     68  O17 UNL     1      74.892  64.754 119.649  0.00  0.00    +0.000 OA
ATOM     69  C45 UNL     1      76.251  64.682 120.029  0.00  0.00    +0.000 C 
ENDBRANCH  63  68
ENDBRANCH  56  57
ENDBRANCH  55  56
ENDBRANCH  20  55
TORSDOF 18
ENDMDL
MODEL 10
REMARK VINA RESULT:      -7.1      2.126      3.341
REMARK  Name = ./S3162.pdb
REMARK  30 active torsions:
REMARK  status: ('A' for Active; 'I' for Inactive)
REMARK    1  A    between atoms: C1_1  and  C2_2
REMARK    2  A    between atoms: C2_2  and  C3_3
REMARK    3  A    between atoms: C6_8  and  O3_9
REMARK    4  A    between atoms: C7_10  and  C8_11
REMARK    5  A    between atoms: C9_12  and  O4_13
REMARK    6  A    between atoms: O4_13  and  C10_14
REMARK    7  A    between atoms: C11_16  and  C12_17
REMARK    8  A    between atoms: C13_18  and  O6_19
REMARK    9  A    between atoms: O6_19  and  C14_20
REMARK   10  A    between atoms: C16_22  and  C17_23
REMARK   11  A    between atoms: C16_22  and  O7_24
REMARK   12  A    between atoms: C18_25  and  O8_26
REMARK   13  A    between atoms: C19_27  and  C20_28
REMARK   14  A    between atoms: C21_30  and  N1_33
REMARK   15  A    between atoms: C22_31  and  O10_32
REMARK   16  A    between atoms: N1_33  and  C23_34
REMARK   17  A    between atoms: N1_33  and  C24_35
REMARK   18  A    between atoms: C25_36  and  C26_37
REMARK   19  A    between atoms: C26_37  and  C27_38
REMARK   20  A    between atoms: C29_41  and  C30_42
REMARK   21  A    between atoms: C34_47  and  C46_64
REMARK   22  A    between atoms: C36_49  and  C37_50
REMARK   23  A    between atoms: C37_50  and  O13_51
REMARK   24  A    between atoms: O13_51  and  C38_52
REMARK   25  A    between atoms: C39_54  and  C40_55
REMARK   26  A    between atoms: C41_56  and  O15_57
REMARK   27  A    between atoms: C42_58  and  O16_59
REMARK   28  A    between atoms: O16_59  and  C43_60
REMARK   29  A    between atoms: C44_61  and  O17_62
REMARK   30  A    between atoms: O17_62  and  C45_63
REMARK                            x       y       z     vdW  Elec       q    Type
REMARK                         _______ _______ _______ _____ _____    ______ ____
ROOT
ATOM      1  C3  UNL     1      73.049  63.829 107.656  0.00  0.00    +0.000 C 
ATOM      2  O1  UNL     1      73.102  63.139 106.401  0.00  0.00    +0.000 OA
ATOM      3  C4  UNL     1      73.846  61.966 106.184  0.00  0.00    +0.000 C 
ATOM      4  O2  UNL     1      74.980  61.811 106.718  0.00  0.00    +0.000 OA
ATOM      5  C5  UNL     1      73.283  60.909 105.282  0.00  0.00    +0.000 C 
ATOM      6  C6  UNL     1      73.893  60.885 103.859  0.00  0.00    +0.000 C 
ATOM      7  C7  UNL     1      75.326  60.273 103.748  0.00  0.00    +0.000 C 
ATOM      8  C8  UNL     1      75.367  58.810 104.231  0.00  0.00    +0.000 C 
ATOM      9  C9  UNL     1      75.908  60.349 102.279  0.00  0.00    +0.000 C 
ATOM     10  C25 UNL     1      76.812  61.625 102.099  0.00  0.00    +0.000 C 
ATOM     11  C28 UNL     1      78.262  61.342 102.604  0.00  0.00    +0.000 C 
ATOM     12  C29 UNL     1      79.081  62.614 102.930  0.00  0.00    +0.000 C 
ATOM     13  C30 UNL     1      80.579  62.380 102.693  0.00  0.00    +0.000 C 
ATOM     14  C31 UNL     1      78.826  63.038 104.360  0.00  0.00    +0.000 C 
ATOM     15  O12 UNL     1      79.489  62.519 105.299  0.00  0.00    +0.000 OA
ATOM     16  C32 UNL     1      77.724  63.973 104.656  0.00  0.00    +0.000 C 
ATOM     17  C33 UNL     1      77.307  64.203 105.910  0.00  0.00    +0.000 C 
ATOM     18  C34 UNL     1      76.083  64.982 106.205  0.00  0.00    +0.000 C 
ATOM     19  C35 UNL     1      75.392  64.647 107.313  0.00  0.00    +0.000 C 
ATOM     20  C36 UNL     1      73.976  65.080 107.630  0.00  0.00    +0.000 C 
ATOM     21  C46 UNL     1      75.589  66.028 105.237  0.00  0.00    +0.000 C 
ENDROOT
BRANCH   1  23
ATOM     22  C1  UNL     1      70.688  64.195 106.691  0.00  0.00    +0.000 C 
ATOM     23  C2  UNL     1      71.563  64.155 107.945  0.00  0.00    +0.000 C 
ENDBRANCH   1  23
BRANCH   6  24
ATOM     24  O3  UNL     1      73.884  62.184 103.314  0.00  0.00    +0.000 OA
ATOM     25  H10 UNL     1      74.821  62.521 103.350  0.00  0.00    +0.000 HD
ENDBRANCH   6  24
BRANCH   9  26
ATOM     26  O4  UNL     1      74.835  60.328 101.327  0.00  0.00    +0.000 OA
BRANCH  26  27
ATOM     27  C10 UNL     1      74.782  59.145 100.522  0.00  0.00    +0.000 C 
ATOM     28  O5  UNL     1      74.865  59.484  99.138  0.00  0.00    +0.000 OA
ATOM     29  C11 UNL     1      73.646  59.809  98.477  0.00  0.00    +0.000 C 
ATOM     30  C12 UNL     1      73.279  61.281  98.699  0.00  0.00    +0.000 C 
ATOM     31  C13 UNL     1      72.462  58.842  98.771  0.00  0.00    +0.000 C 
ATOM     32  C21 UNL     1      72.960  57.620  99.593  0.00  0.00    +0.000 C 
ATOM     33  C22 UNL     1      73.571  58.227 100.887  0.00  0.00    +0.000 C 
BRANCH  32  34
ATOM     34  N1  UNL     1      73.968  56.775  98.857  0.00  0.00    +0.000 NA
ATOM     35  C23 UNL     1      73.355  55.918  97.819  0.00  0.00    +0.000 C 
ATOM     36  C24 UNL     1      74.737  55.912  99.786  0.00  0.00    +0.000 C 
ENDBRANCH  32  34
BRANCH  33  37
ATOM     37  O10 UNL     1      72.589  58.861 101.673  0.00  0.00    +0.000 OA
ATOM     38  H37 UNL     1      72.511  59.808 101.403  0.00  0.00    +0.000 HD
ENDBRANCH  33  37
BRANCH  31  39
ATOM     39  O6  UNL     1      71.850  58.435  97.554  0.00  0.00    +0.000 OA
BRANCH  39  40
ATOM     40  C14 UNL     1      71.336  59.516  96.799  0.00  0.00    +0.000 C 
ATOM     41  C15 UNL     1      70.096  60.073  97.532  0.00  0.00    +0.000 C 
ATOM     42  C16 UNL     1      68.953  60.493  96.563  0.00  0.00    +0.000 C 
ATOM     43  C17 UNL     1      68.033  59.286  96.256  0.00  0.00    +0.000 C 
ATOM     44  C18 UNL     1      69.561  61.059  95.249  0.00  0.00    +0.000 C 
ATOM     45  C19 UNL     1      70.659  60.116  94.654  0.00  0.00    +0.000 C 
ATOM     46  C20 UNL     1      70.212  59.537  93.310  0.00  0.00    +0.000 C 
ATOM     47  O9  UNL     1      70.983  59.039  95.515  0.00  0.00    +0.000 OA
BRANCH  42  48
ATOM     48  O7  UNL     1      68.161  61.500  97.153  0.00  0.00    +0.000 OA
ATOM     49  H28 UNL     1      67.978  62.194  96.457  0.00  0.00    +0.000 HD
ENDBRANCH  42  48
BRANCH  44  50
ATOM     50  O8  UNL     1      70.152  62.312  95.512  0.00  0.00    +0.000 OA
ATOM     51  H30 UNL     1      69.759  62.656  96.355  0.00  0.00    +0.000 HD
ENDBRANCH  44  50
ENDBRANCH  39  40
ENDBRANCH  31  39
ENDBRANCH  26  27
ENDBRANCH   9  26
BRANCH  10  52
ATOM     52  C26 UNL     1      76.803  62.196 100.652  0.00  0.00    +0.000 C 
BRANCH  52  53
ATOM     53  C27 UNL     1      76.094  63.510 100.506  0.00  0.00    +0.000 C 
ATOM     54  O11 UNL     1      75.063  63.715 101.123  0.00  0.00    +0.000 OA
ENDBRANCH  52  53
ENDBRANCH  10  52
BRANCH  20  55
ATOM     55  C37 UNL     1      73.974  65.878 108.952  0.00  0.00    +0.000 C 
BRANCH  55  56
ATOM     56  O13 UNL     1      74.374  67.225 108.740  0.00  0.00    +0.000 OA
BRANCH  56  57
ATOM     57  C38 UNL     1      73.614  67.851 107.723  0.00  0.00    +0.000 C 
ATOM     58  O14 UNL     1      74.393  68.804 106.997  0.00  0.00    +0.000 OA
ATOM     59  C39 UNL     1      74.418  70.106 107.569  0.00  0.00    +0.000 C 
ATOM     60  C40 UNL     1      75.202  70.142 108.893  0.00  0.00    +0.000 C 
ATOM     61  C41 UNL     1      73.002  70.744 107.675  0.00  0.00    +0.000 C 
ATOM     62  C42 UNL     1      71.884  69.686 107.569  0.00  0.00    +0.000 C 
ATOM     63  C44 UNL     1      72.313  68.428 108.335  0.00  0.00    +0.000 C 
BRANCH  61  64
ATOM     64  O15 UNL     1      72.844  71.707 106.665  0.00  0.00    +0.000 OA
ATOM     65  H66 UNL     1      73.639  71.643 106.074  0.00  0.00    +0.000 HD
ENDBRANCH  61  64
BRANCH  62  66
ATOM     66  O16 UNL     1      71.661  69.359 106.201  0.00  0.00    +0.000 OA
ATOM     67  C43 UNL     1      70.326  69.622 105.835  0.00  0.00    +0.000 C 
ENDBRANCH  62  66
BRANCH  63  68
ATOM     68  O17 UNL     1      71.278  67.460 108.252  0.00  0.00    +0.000 OA
ATOM     69  C45 UNL     1      70.584  67.354 109.478  0.00  0.00    +0.000 C 
ENDBRANCH  63  68
ENDBRANCH  56  57
ENDBRANCH  55  56
ENDBRANCH  20  55
TORSDOF 18
ENDMDL
MODEL 11
REMARK VINA RESULT:      -7.1      3.302      4.489
REMARK  Name = ./S3162.pdb
REMARK  30 active torsions:
REMARK  status: ('A' for Active; 'I' for Inactive)
REMARK    1  A    between atoms: C1_1  and  C2_2
REMARK    2  A    between atoms: C2_2  and  C3_3
REMARK    3  A    between atoms: C6_8  and  O3_9
REMARK    4  A    between atoms: C7_10  and  C8_11
REMARK    5  A    between atoms: C9_12  and  O4_13
REMARK    6  A    between atoms: O4_13  and  C10_14
REMARK    7  A    between atoms: C11_16  and  C12_17
REMARK    8  A    between atoms: C13_18  and  O6_19
REMARK    9  A    between atoms: O6_19  and  C14_20
REMARK   10  A    between atoms: C16_22  and  C17_23
REMARK   11  A    between atoms: C16_22  and  O7_24
REMARK   12  A    between atoms: C18_25  and  O8_26
REMARK   13  A    between atoms: C19_27  and  C20_28
REMARK   14  A    between atoms: C21_30  and  N1_33
REMARK   15  A    between atoms: C22_31  and  O10_32
REMARK   16  A    between atoms: N1_33  and  C23_34
REMARK   17  A    between atoms: N1_33  and  C24_35
REMARK   18  A    between atoms: C25_36  and  C26_37
REMARK   19  A    between atoms: C26_37  and  C27_38
REMARK   20  A    between atoms: C29_41  and  C30_42
REMARK   21  A    between atoms: C34_47  and  C46_64
REMARK   22  A    between atoms: C36_49  and  C37_50
REMARK   23  A    between atoms: C37_50  and  O13_51
REMARK   24  A    between atoms: O13_51  and  C38_52
REMARK   25  A    between atoms: C39_54  and  C40_55
REMARK   26  A    between atoms: C41_56  and  O15_57
REMARK   27  A    between atoms: C42_58  and  O16_59
REMARK   28  A    between atoms: O16_59  and  C43_60
REMARK   29  A    between atoms: C44_61  and  O17_62
REMARK   30  A    between atoms: O17_62  and  C45_63
REMARK                            x       y       z     vdW  Elec       q    Type
REMARK                         _______ _______ _______ _____ _____    ______ ____
ROOT
ATOM      1  C3  UNL     1      72.357  66.092 106.979  0.00  0.00    +0.000 C 
ATOM      2  O1  UNL     1      72.483  65.144 105.912  0.00  0.00    +0.000 OA
ATOM      3  C4  UNL     1      73.145  63.910 106.036  0.00  0.00    +0.000 C 
ATOM      4  O2  UNL     1      74.200  63.809 106.723  0.00  0.00    +0.000 OA
ATOM      5  C5  UNL     1      72.595  62.718 105.314  0.00  0.00    +0.000 C 
ATOM      6  C6  UNL     1      73.347  62.349 104.012  0.00  0.00    +0.000 C 
ATOM      7  C7  UNL     1      74.727  61.644 104.204  0.00  0.00    +0.000 C 
ATOM      8  C8  UNL     1      74.595  60.321 104.985  0.00  0.00    +0.000 C 
ATOM      9  C9  UNL     1      75.464  61.365 102.833  0.00  0.00    +0.000 C 
ATOM     10  C25 UNL     1      76.485  62.515 102.500  0.00  0.00    +0.000 C 
ATOM     11  C28 UNL     1      77.846  62.264 103.224  0.00  0.00    +0.000 C 
ATOM     12  C29 UNL     1      78.729  63.526 103.373  0.00  0.00    +0.000 C 
ATOM     13  C30 UNL     1      80.219  63.159 103.372  0.00  0.00    +0.000 C 
ATOM     14  C31 UNL     1      78.362  64.265 104.642  0.00  0.00    +0.000 C 
ATOM     15  O12 UNL     1      78.877  63.924 105.741  0.00  0.00    +0.000 OA
ATOM     16  C32 UNL     1      77.316  65.306 104.601  0.00  0.00    +0.000 C 
ATOM     17  C33 UNL     1      76.791  65.826 105.720  0.00  0.00    +0.000 C 
ATOM     18  C34 UNL     1      75.611  66.722 105.696  0.00  0.00    +0.000 C 
ATOM     19  C35 UNL     1      74.782  66.676 106.758  0.00  0.00    +0.000 C 
ATOM     20  C36 UNL     1      73.382  67.250 106.804  0.00  0.00    +0.000 C 
ATOM     21  C46 UNL     1      75.310  67.559 104.478  0.00  0.00    +0.000 C 
ENDROOT
BRANCH   1  23
ATOM     22  C1  UNL     1      70.234  66.456 108.394  0.00  0.00    +0.000 C 
ATOM     23  C2  UNL     1      70.880  66.560 107.012  0.00  0.00    +0.000 C 
ENDBRANCH   1  23
BRANCH   6  24
ATOM     24  O3  UNL     1      73.503  63.497 103.210  0.00  0.00    +0.000 OA
ATOM     25  H10 UNL     1      74.481  63.669 103.137  0.00  0.00    +0.000 HD
ENDBRANCH   6  24
BRANCH   9  26
ATOM     26  O4  UNL     1      74.499  61.201 101.784  0.00  0.00    +0.000 OA
BRANCH  26  27
ATOM     27  C10 UNL     1      74.505  59.906 101.173  0.00  0.00    +0.000 C 
ATOM     28  O5  UNL     1      74.814  60.017  99.783  0.00  0.00    +0.000 OA
ATOM     29  C11 UNL     1      73.728  60.267  98.897  0.00  0.00    +0.000 C 
ATOM     30  C12 UNL     1      73.411  61.765  98.829  0.00  0.00    +0.000 C 
ATOM     31  C13 UNL     1      72.464  59.394  99.146  0.00  0.00    +0.000 C 
ATOM     32  C21 UNL     1      72.766  58.305 100.214  0.00  0.00    +0.000 C 
ATOM     33  C22 UNL     1      73.206  59.094 101.479  0.00  0.00    +0.000 C 
BRANCH  32  34
ATOM     34  N1  UNL     1      73.827  57.325  99.784  0.00  0.00    +0.000 NA
ATOM     35  C23 UNL     1      73.370  56.412  98.714  0.00  0.00    +0.000 C 
ATOM     36  C24 UNL     1      74.309  56.509 100.925  0.00  0.00    +0.000 C 
ENDBRANCH  32  34
BRANCH  33  37
ATOM     37  O10 UNL     1      72.152  59.874 101.994  0.00  0.00    +0.000 OA
ATOM     38  H37 UNL     1      71.306  59.615 101.555  0.00  0.00    +0.000 HD
ENDBRANCH  33  37
BRANCH  31  39
ATOM     39  O6  UNL     1      72.021  58.815  97.925  0.00  0.00    +0.000 OA
BRANCH  39  40
ATOM     40  C14 UNL     1      71.446  59.755  97.038  0.00  0.00    +0.000 C 
ATOM     41  C15 UNL     1      70.176  60.334  97.700  0.00  0.00    +0.000 C 
ATOM     42  C16 UNL     1      69.011  60.556  96.693  0.00  0.00    +0.000 C 
ATOM     43  C17 UNL     1      68.162  59.270  96.557  0.00  0.00    +0.000 C 
ATOM     44  C18 UNL     1      69.586  60.977  95.311  0.00  0.00    +0.000 C 
ATOM     45  C19 UNL     1      70.735  60.026  94.837  0.00  0.00    +0.000 C 
ATOM     46  C20 UNL     1      70.321  59.249  93.586  0.00  0.00    +0.000 C 
ATOM     47  O9  UNL     1      71.121  59.092  95.831  0.00  0.00    +0.000 OA
BRANCH  42  48
ATOM     48  O7  UNL     1      68.164  61.586  97.150  0.00  0.00    +0.000 OA
ATOM     49  H28 UNL     1      67.319  61.549  96.617  0.00  0.00    +0.000 HD
ENDBRANCH  42  48
BRANCH  44  50
ATOM     50  O8  UNL     1      70.104  62.284  95.400  0.00  0.00    +0.000 OA
ATOM     51  H30 UNL     1      70.398  62.426  96.337  0.00  0.00    +0.000 HD
ENDBRANCH  44  50
ENDBRANCH  39  40
ENDBRANCH  31  39
ENDBRANCH  26  27
ENDBRANCH   9  26
BRANCH  10  52
ATOM     52  C26 UNL     1      76.676  62.759 100.976  0.00  0.00    +0.000 C 
BRANCH  52  53
ATOM     53  C27 UNL     1      76.024  64.006 100.458  0.00  0.00    +0.000 C 
ATOM     54  O11 UNL     1      75.578  64.828 101.241  0.00  0.00    +0.000 OA
ENDBRANCH  52  53
ENDBRANCH  10  52
BRANCH  20  55
ATOM     55  C37 UNL     1      73.308  68.316 107.920  0.00  0.00    +0.000 C 
BRANCH  55  56
ATOM     56  O13 UNL     1      73.277  69.628 107.377  0.00  0.00    +0.000 OA
BRANCH  56  57
ATOM     57  C38 UNL     1      72.244  70.413 107.943  0.00  0.00    +0.000 C 
ATOM     58  O14 UNL     1      70.953  69.878 107.641  0.00  0.00    +0.000 OA
ATOM     59  C39 UNL     1      70.404  70.319 106.405  0.00  0.00    +0.000 C 
ATOM     60  C40 UNL     1      71.169  69.749 105.196  0.00  0.00    +0.000 C 
ATOM     61  C41 UNL     1      70.222  71.863 106.345  0.00  0.00    +0.000 C 
ATOM     62  C42 UNL     1      71.069  72.586 107.413  0.00  0.00    +0.000 C 
ATOM     63  C44 UNL     1      72.433  71.892 107.521  0.00  0.00    +0.000 C 
BRANCH  61  64
ATOM     64  O15 UNL     1      68.865  72.183 106.517  0.00  0.00    +0.000 OA
ATOM     65  H66 UNL     1      68.822  73.135 106.796  0.00  0.00    +0.000 HD
ENDBRANCH  61  64
BRANCH  62  66
ATOM     66  O16 UNL     1      70.404  72.532 108.670  0.00  0.00    +0.000 OA
ATOM     67  C43 UNL     1      70.067  73.826 109.114  0.00  0.00    +0.000 C 
ENDBRANCH  62  66
BRANCH  63  68
ATOM     68  O17 UNL     1      73.219  72.566 108.492  0.00  0.00    +0.000 OA
ATOM     69  C45 UNL     1      74.428  73.033 107.928  0.00  0.00    +0.000 C 
ENDBRANCH  63  68
ENDBRANCH  56  57
ENDBRANCH  55  56
ENDBRANCH  20  55
TORSDOF 18
ENDMDL
MODEL 12
REMARK VINA RESULT:      -7.1      2.896      6.538
REMARK  Name = ./S3162.pdb
REMARK  30 active torsions:
REMARK  status: ('A' for Active; 'I' for Inactive)
REMARK    1  A    between atoms: C1_1  and  C2_2
REMARK    2  A    between atoms: C2_2  and  C3_3
REMARK    3  A    between atoms: C6_8  and  O3_9
REMARK    4  A    between atoms: C7_10  and  C8_11
REMARK    5  A    between atoms: C9_12  and  O4_13
REMARK    6  A    between atoms: O4_13  and  C10_14
REMARK    7  A    between atoms: C11_16  and  C12_17
REMARK    8  A    between atoms: C13_18  and  O6_19
REMARK    9  A    between atoms: O6_19  and  C14_20
REMARK   10  A    between atoms: C16_22  and  C17_23
REMARK   11  A    between atoms: C16_22  and  O7_24
REMARK   12  A    between atoms: C18_25  and  O8_26
REMARK   13  A    between atoms: C19_27  and  C20_28
REMARK   14  A    between atoms: C21_30  and  N1_33
REMARK   15  A    between atoms: C22_31  and  O10_32
REMARK   16  A    between atoms: N1_33  and  C23_34
REMARK   17  A    between atoms: N1_33  and  C24_35
REMARK   18  A    between atoms: C25_36  and  C26_37
REMARK   19  A    between atoms: C26_37  and  C27_38
REMARK   20  A    between atoms: C29_41  and  C30_42
REMARK   21  A    between atoms: C34_47  and  C46_64
REMARK   22  A    between atoms: C36_49  and  C37_50
REMARK   23  A    between atoms: C37_50  and  O13_51
REMARK   24  A    between atoms: O13_51  and  C38_52
REMARK   25  A    between atoms: C39_54  and  C40_55
REMARK   26  A    between atoms: C41_56  and  O15_57
REMARK   27  A    between atoms: C42_58  and  O16_59
REMARK   28  A    between atoms: O16_59  and  C43_60
REMARK   29  A    between atoms: C44_61  and  O17_62
REMARK   30  A    between atoms: O17_62  and  C45_63
REMARK                            x       y       z     vdW  Elec       q    Type
REMARK                         _______ _______ _______ _____ _____    ______ ____
ROOT
ATOM      1  C3  UNL     1      75.662  62.216 113.507  0.00  0.00    +0.000 C 
ATOM      2  O1  UNL     1      75.053  62.088 112.216  0.00  0.00    +0.000 OA
ATOM      3  C4  UNL     1      75.674  62.476 111.016  0.00  0.00    +0.000 C 
ATOM      4  O2  UNL     1      76.390  63.516 110.965  0.00  0.00    +0.000 OA
ATOM      5  C5  UNL     1      75.450  61.651 109.785  0.00  0.00    +0.000 C 
ATOM      6  C6  UNL     1      74.426  62.247 108.788  0.00  0.00    +0.000 C 
ATOM      7  C7  UNL     1      74.934  63.452 107.935  0.00  0.00    +0.000 C 
ATOM      8  C8  UNL     1      76.161  63.077 107.080  0.00  0.00    +0.000 C 
ATOM      9  C9  UNL     1      73.811  64.049 106.995  0.00  0.00    +0.000 C 
ATOM     10  C25 UNL     1      73.100  65.276 107.678  0.00  0.00    +0.000 C 
ATOM     11  C28 UNL     1      73.921  66.583 107.442  0.00  0.00    +0.000 C 
ATOM     12  C29 UNL     1      73.605  67.721 108.442  0.00  0.00    +0.000 C 
ATOM     13  C30 UNL     1      73.809  69.097 107.792  0.00  0.00    +0.000 C 
ATOM     14  C31 UNL     1      74.470  67.579 109.674  0.00  0.00    +0.000 C 
ATOM     15  O12 UNL     1      75.636  68.059 109.685  0.00  0.00    +0.000 OA
ATOM     16  C32 UNL     1      73.985  66.779 110.816  0.00  0.00    +0.000 C 
ATOM     17  C33 UNL     1      74.791  66.428 111.829  0.00  0.00    +0.000 C 
ATOM     18  C34 UNL     1      74.371  65.467 112.876  0.00  0.00    +0.000 C 
ATOM     19  C35 UNL     1      75.332  64.697 113.424  0.00  0.00    +0.000 C 
ATOM     20  C36 UNL     1      75.093  63.456 114.257  0.00  0.00    +0.000 C 
ATOM     21  C46 UNL     1      72.912  65.297 113.218  0.00  0.00    +0.000 C 
ENDROOT
BRANCH   1  23
ATOM     22  C1  UNL     1      73.983  60.453 114.351  0.00  0.00    +0.000 C 
ATOM     23  C2  UNL     1      75.449  60.877 114.255  0.00  0.00    +0.000 C 
ENDBRANCH   1  23
BRANCH   6  24
ATOM     24  O3  UNL     1      73.248  62.607 109.473  0.00  0.00    +0.000 OA
ATOM     25  H10 UNL     1      73.053  63.554 109.235  0.00  0.00    +0.000 HD
ENDBRANCH   6  24
BRANCH   9  26
ATOM     26  O4  UNL     1      72.869  63.024 106.647  0.00  0.00    +0.000 OA
BRANCH  26  27
ATOM     27  C10 UNL     1      73.439  61.906 105.958  0.00  0.00    +0.000 C 
ATOM     28  O5  UNL     1      73.783  62.272 104.621  0.00  0.00    +0.000 OA
ATOM     29  C11 UNL     1      72.758  62.166 103.638  0.00  0.00    +0.000 C 
ATOM     30  C12 UNL     1      71.873  63.419 103.633  0.00  0.00    +0.000 C 
ATOM     31  C13 UNL     1      71.934  60.847 103.689  0.00  0.00    +0.000 C 
ATOM     32  C21 UNL     1      72.566  59.860 104.710  0.00  0.00    +0.000 C 
ATOM     33  C22 UNL     1      72.556  60.623 106.065  0.00  0.00    +0.000 C 
BRANCH  32  34
ATOM     34  N1  UNL     1      73.960  59.425 104.338  0.00  0.00    +0.000 NA
ATOM     35  C23 UNL     1      73.982  58.180 103.539  0.00  0.00    +0.000 C 
ATOM     36  C24 UNL     1      74.807  59.228 105.539  0.00  0.00    +0.000 C 
ENDBRANCH  32  34
BRANCH  33  37
ATOM     37  O10 UNL     1      71.242  60.868 106.509  0.00  0.00    +0.000 OA
ATOM     38  H37 UNL     1      71.203  61.751 106.951  0.00  0.00    +0.000 HD
ENDBRANCH  33  37
BRANCH  31  39
ATOM     39  O6  UNL     1      71.855  60.271 102.391  0.00  0.00    +0.000 OA
BRANCH  39  40
ATOM     40  C14 UNL     1      72.704  60.898 101.449  0.00  0.00    +0.000 C 
ATOM     41  C15 UNL     1      71.826  61.692 100.457  0.00  0.00    +0.000 C 
ATOM     42  C16 UNL     1      72.342  61.618  98.991  0.00  0.00    +0.000 C 
ATOM     43  C17 UNL     1      71.755  60.379  98.273  0.00  0.00    +0.000 C 
ATOM     44  C18 UNL     1      73.896  61.563  98.985  0.00  0.00    +0.000 C 
ATOM     45  C19 UNL     1      74.451  60.479  99.968  0.00  0.00    +0.000 C 
ATOM     46  C20 UNL     1      75.158  59.358  99.203  0.00  0.00    +0.000 C 
ATOM     47  O9  UNL     1      73.440  59.897 100.772  0.00  0.00    +0.000 OA
BRANCH  42  48
ATOM     48  O7  UNL     1      71.939  62.763  98.275  0.00  0.00    +0.000 OA
ATOM     49  H28 UNL     1      70.989  62.959  98.517  0.00  0.00    +0.000 HD
ENDBRANCH  42  48
BRANCH  44  50
ATOM     50  O8  UNL     1      74.408  62.816  99.376  0.00  0.00    +0.000 OA
ATOM     51  H30 UNL     1      74.758  62.721 100.300  0.00  0.00    +0.000 HD
ENDBRANCH  44  50
ENDBRANCH  39  40
ENDBRANCH  31  39
ENDBRANCH  26  27
ENDBRANCH   9  26
BRANCH  10  52
ATOM     52  C26 UNL     1      71.610  65.443 107.264  0.00  0.00    +0.000 C 
BRANCH  52  53
ATOM     53  C27 UNL     1      70.664  65.647 108.409  0.00  0.00    +0.000 C 
ATOM     54  O11 UNL     1      70.005  66.670 108.478  0.00  0.00    +0.000 OA
ENDBRANCH  52  53
ENDBRANCH  10  52
BRANCH  20  55
ATOM     55  C37 UNL     1      75.704  63.662 115.661  0.00  0.00    +0.000 C 
BRANCH  55  56
ATOM     56  O13 UNL     1      75.612  65.020 116.067  0.00  0.00    +0.000 OA
BRANCH  56  57
ATOM     57  C38 UNL     1      74.605  65.217 117.042  0.00  0.00    +0.000 C 
ATOM     58  O14 UNL     1      73.444  65.833 116.480  0.00  0.00    +0.000 OA
ATOM     59  C39 UNL     1      73.483  67.255 116.455  0.00  0.00    +0.000 C 
ATOM     60  C40 UNL     1      74.523  67.787 115.452  0.00  0.00    +0.000 C 
ATOM     61  C41 UNL     1      73.621  67.879 117.874  0.00  0.00    +0.000 C 
ATOM     62  C42 UNL     1      74.129  66.852 118.908  0.00  0.00    +0.000 C 
ATOM     63  C44 UNL     1      75.203  65.975 118.254  0.00  0.00    +0.000 C 
BRANCH  61  64
ATOM     64  O15 UNL     1      72.380  68.394 118.283  0.00  0.00    +0.000 OA
ATOM     65  H66 UNL     1      71.866  67.640 118.674  0.00  0.00    +0.000 HD
ENDBRANCH  61  64
BRANCH  62  66
ATOM     66  O16 UNL     1      73.047  66.037 119.345  0.00  0.00    +0.000 OA
ATOM     67  C43 UNL     1      72.864  66.152 120.738  0.00  0.00    +0.000 C 
ENDBRANCH  62  66
BRANCH  63  68
ATOM     68  O17 UNL     1      75.682  65.041 119.209  0.00  0.00    +0.000 OA
ATOM     69  C45 UNL     1      76.585  65.653 120.107  0.00  0.00    +0.000 C 
ENDBRANCH  63  68
ENDBRANCH  56  57
ENDBRANCH  55  56
ENDBRANCH  20  55
TORSDOF 18
ENDMDL
MODEL 13
REMARK VINA RESULT:      -7.1      7.049     11.527
REMARK  Name = ./S3162.pdb
REMARK  30 active torsions:
REMARK  status: ('A' for Active; 'I' for Inactive)
REMARK    1  A    between atoms: C1_1  and  C2_2
REMARK    2  A    between atoms: C2_2  and  C3_3
REMARK    3  A    between atoms: C6_8  and  O3_9
REMARK    4  A    between atoms: C7_10  and  C8_11
REMARK    5  A    between atoms: C9_12  and  O4_13
REMARK    6  A    between atoms: O4_13  and  C10_14
REMARK    7  A    between atoms: C11_16  and  C12_17
REMARK    8  A    between atoms: C13_18  and  O6_19
REMARK    9  A    between atoms: O6_19  and  C14_20
REMARK   10  A    between atoms: C16_22  and  C17_23
REMARK   11  A    between atoms: C16_22  and  O7_24
REMARK   12  A    between atoms: C18_25  and  O8_26
REMARK   13  A    between atoms: C19_27  and  C20_28
REMARK   14  A    between atoms: C21_30  and  N1_33
REMARK   15  A    between atoms: C22_31  and  O10_32
REMARK   16  A    between atoms: N1_33  and  C23_34
REMARK   17  A    between atoms: N1_33  and  C24_35
REMARK   18  A    between atoms: C25_36  and  C26_37
REMARK   19  A    between atoms: C26_37  and  C27_38
REMARK   20  A    between atoms: C29_41  and  C30_42
REMARK   21  A    between atoms: C34_47  and  C46_64
REMARK   22  A    between atoms: C36_49  and  C37_50
REMARK   23  A    between atoms: C37_50  and  O13_51
REMARK   24  A    between atoms: O13_51  and  C38_52
REMARK   25  A    between atoms: C39_54  and  C40_55
REMARK   26  A    between atoms: C41_56  and  O15_57
REMARK   27  A    between atoms: C42_58  and  O16_59
REMARK   28  A    between atoms: O16_59  and  C43_60
REMARK   29  A    between atoms: C44_61  and  O17_62
REMARK   30  A    between atoms: O17_62  and  C45_63
REMARK                            x       y       z     vdW  Elec       q    Type
REMARK                         _______ _______ _______ _____ _____    ______ ____
ROOT
ATOM      1  C3  UNL     1      74.863  64.691 115.035  0.00  0.00    +0.000 C 
ATOM      2  O1  UNL     1      74.762  65.389 113.786  0.00  0.00    +0.000 OA
ATOM      3  C4  UNL     1      73.714  65.203 112.869  0.00  0.00    +0.000 C 
ATOM      4  O2  UNL     1      73.224  64.055 112.671  0.00  0.00    +0.000 OA
ATOM      5  C5  UNL     1      73.203  66.386 112.104  0.00  0.00    +0.000 C 
ATOM      6  C6  UNL     1      73.710  66.478 110.644  0.00  0.00    +0.000 C 
ATOM      7  C7  UNL     1      73.045  65.489 109.634  0.00  0.00    +0.000 C 
ATOM      8  C8  UNL     1      71.520  65.692 109.547  0.00  0.00    +0.000 C 
ATOM      9  C9  UNL     1      73.665  65.594 108.183  0.00  0.00    +0.000 C 
ATOM     10  C25 UNL     1      74.789  64.512 107.973  0.00  0.00    +0.000 C 
ATOM     11  C28 UNL     1      74.161  63.147 107.550  0.00  0.00    +0.000 C 
ATOM     12  C29 UNL     1      75.079  61.924 107.790  0.00  0.00    +0.000 C 
ATOM     13  C30 UNL     1      74.801  60.818 106.762  0.00  0.00    +0.000 C 
ATOM     14  C31 UNL     1      74.889  61.405 109.198  0.00  0.00    +0.000 C 
ATOM     15  O12 UNL     1      73.954  60.598 109.452  0.00  0.00    +0.000 OA
ATOM     16  C32 UNL     1      75.731  61.935 110.288  0.00  0.00    +0.000 C 
ATOM     17  C33 UNL     1      75.458  61.688 111.578  0.00  0.00    +0.000 C 
ATOM     18  C34 UNL     1      76.173  62.371 112.681  0.00  0.00    +0.000 C 
ATOM     19  C35 UNL     1      75.483  62.591 113.818  0.00  0.00    +0.000 C 
ATOM     20  C36 UNL     1      75.898  63.533 114.929  0.00  0.00    +0.000 C 
ATOM     21  C46 UNL     1      77.576  62.887 112.481  0.00  0.00    +0.000 C 
ENDROOT
BRANCH   1  23
ATOM     22  C1  UNL     1      75.555  67.116 115.566  0.00  0.00    +0.000 C 
ATOM     23  C2  UNL     1      75.201  65.737 116.125  0.00  0.00    +0.000 C 
ENDBRANCH   1  23
BRANCH   6  24
ATOM     24  O3  UNL     1      75.109  66.324 110.615  0.00  0.00    +0.000 OA
ATOM     25  H10 UNL     1      75.386  66.014 111.521  0.00  0.00    +0.000 HD
ENDBRANCH   6  24
BRANCH   9  26
ATOM     26  O4  UNL     1      74.165  66.920 107.960  0.00  0.00    +0.000 OA
BRANCH  26  27
ATOM     27  C10 UNL     1      73.280  67.769 107.220  0.00  0.00    +0.000 C 
ATOM     28  O5  UNL     1      73.778  67.969 105.897  0.00  0.00    +0.000 OA
ATOM     29  C11 UNL     1      74.710  69.029 105.711  0.00  0.00    +0.000 C 
ATOM     30  C12 UNL     1      76.133  68.572 106.054  0.00  0.00    +0.000 C 
ATOM     31  C13 UNL     1      74.325  70.370 106.399  0.00  0.00    +0.000 C 
ATOM     32  C21 UNL     1      72.889  70.278 106.986  0.00  0.00    +0.000 C 
ATOM     33  C22 UNL     1      72.938  69.088 107.984  0.00  0.00    +0.000 C 
BRANCH  32  34
ATOM     34  N1  UNL     1      71.827  70.069 105.938  0.00  0.00    +0.000 NA
ATOM     35  C23 UNL     1      71.487  71.309 105.205  0.00  0.00    +0.000 C 
ATOM     36  C24 UNL     1      70.583  69.515 106.525  0.00  0.00    +0.000 C 
ENDBRANCH  32  34
BRANCH  33  37
ATOM     37  O10 UNL     1      73.795  69.358 109.069  0.00  0.00    +0.000 OA
ATOM     38  H37 UNL     1      74.638  69.749 108.735  0.00  0.00    +0.000 HD
ENDBRANCH  33  37
BRANCH  31  39
ATOM     39  O6  UNL     1      74.441  71.445 105.474  0.00  0.00    +0.000 OA
BRANCH  39  40
ATOM     40  C14 UNL     1      75.087  72.581 106.016  0.00  0.00    +0.000 C 
ATOM     41  C15 UNL     1      76.210  72.096 106.958  0.00  0.00    +0.000 C 
ATOM     42  C16 UNL     1      76.348  72.967 108.241  0.00  0.00    +0.000 C 
ATOM     43  C17 UNL     1      75.406  72.444 109.352  0.00  0.00    +0.000 C 
ATOM     44  C18 UNL     1      76.021  74.450 107.905  0.00  0.00    +0.000 C 
ATOM     45  C19 UNL     1      74.678  74.592 107.114  0.00  0.00    +0.000 C 
ATOM     46  C20 UNL     1      73.630  75.335 107.946  0.00  0.00    +0.000 C 
ATOM     47  O9  UNL     1      74.132  73.342 106.729  0.00  0.00    +0.000 OA
BRANCH  42  48
ATOM     48  O7  UNL     1      77.669  72.906 108.730  0.00  0.00    +0.000 OA
ATOM     49  H28 UNL     1      78.208  72.356 108.093  0.00  0.00    +0.000 HD
ENDBRANCH  42  48
BRANCH  44  50
ATOM     50  O8  UNL     1      77.056  74.987 107.115  0.00  0.00    +0.000 OA
ATOM     51  H30 UNL     1      77.805  74.336 107.119  0.00  0.00    +0.000 HD
ENDBRANCH  44  50
ENDBRANCH  39  40
ENDBRANCH  31  39
ENDBRANCH  26  27
ENDBRANCH   9  26
BRANCH  10  52
ATOM     52  C26 UNL     1      75.912  64.962 106.995  0.00  0.00    +0.000 C 
BRANCH  52  53
ATOM     53  C27 UNL     1      77.238  65.220 107.645  0.00  0.00    +0.000 C 
ATOM     54  O11 UNL     1      77.337  66.086 108.499  0.00  0.00    +0.000 OA
ENDBRANCH  52  53
ENDBRANCH  10  52
BRANCH  20  55
ATOM     55  C37 UNL     1      76.063  62.730 116.238  0.00  0.00    +0.000 C 
BRANCH  55  56
ATOM     56  O13 UNL     1      76.857  61.570 116.034  0.00  0.00    +0.000 OA
BRANCH  56  57
ATOM     57  C38 UNL     1      78.064  61.616 116.771  0.00  0.00    +0.000 C 
ATOM     58  O14 UNL     1      79.206  61.616 115.910  0.00  0.00    +0.000 OA
ATOM     59  C39 UNL     1      79.662  60.322 115.535  0.00  0.00    +0.000 C 
ATOM     60  C40 UNL     1      78.673  59.610 114.593  0.00  0.00    +0.000 C 
ATOM     61  C41 UNL     1      80.081  59.453 116.756  0.00  0.00    +0.000 C 
ATOM     62  C42 UNL     1      79.498  59.997 118.077  0.00  0.00    +0.000 C 
ATOM     63  C44 UNL     1      78.065  60.483 117.828  0.00  0.00    +0.000 C 
BRANCH  61  64
ATOM     64  O15 UNL     1      81.482  59.404 116.838  0.00  0.00    +0.000 OA
ATOM     65  H66 UNL     1      81.709  58.924 117.677  0.00  0.00    +0.000 HD
ENDBRANCH  61  64
BRANCH  62  66
ATOM     66  O16 UNL     1      80.295  61.081 118.544  0.00  0.00    +0.000 OA
ATOM     67  C43 UNL     1      80.640  60.902 119.898  0.00  0.00    +0.000 C 
ENDBRANCH  62  66
BRANCH  63  68
ATOM     68  O17 UNL     1      77.522  60.968 119.046  0.00  0.00    +0.000 OA
ATOM     69  C45 UNL     1      76.309  60.314 119.356  0.00  0.00    +0.000 C 
ENDBRANCH  63  68
ENDBRANCH  56  57
ENDBRANCH  55  56
ENDBRANCH  20  55
TORSDOF 18
ENDMDL
MODEL 14
REMARK VINA RESULT:      -6.9      7.780     14.356
REMARK  Name = ./S3162.pdb
REMARK  30 active torsions:
REMARK  status: ('A' for Active; 'I' for Inactive)
REMARK    1  A    between atoms: C1_1  and  C2_2
REMARK    2  A    between atoms: C2_2  and  C3_3
REMARK    3  A    between atoms: C6_8  and  O3_9
REMARK    4  A    between atoms: C7_10  and  C8_11
REMARK    5  A    between atoms: C9_12  and  O4_13
REMARK    6  A    between atoms: O4_13  and  C10_14
REMARK    7  A    between atoms: C11_16  and  C12_17
REMARK    8  A    between atoms: C13_18  and  O6_19
REMARK    9  A    between atoms: O6_19  and  C14_20
REMARK   10  A    between atoms: C16_22  and  C17_23
REMARK   11  A    between atoms: C16_22  and  O7_24
REMARK   12  A    between atoms: C18_25  and  O8_26
REMARK   13  A    between atoms: C19_27  and  C20_28
REMARK   14  A    between atoms: C21_30  and  N1_33
REMARK   15  A    between atoms: C22_31  and  O10_32
REMARK   16  A    between atoms: N1_33  and  C23_34
REMARK   17  A    between atoms: N1_33  and  C24_35
REMARK   18  A    between atoms: C25_36  and  C26_37
REMARK   19  A    between atoms: C26_37  and  C27_38
REMARK   20  A    between atoms: C29_41  and  C30_42
REMARK   21  A    between atoms: C34_47  and  C46_64
REMARK   22  A    between atoms: C36_49  and  C37_50
REMARK   23  A    between atoms: C37_50  and  O13_51
REMARK   24  A    between atoms: O13_51  and  C38_52
REMARK   25  A    between atoms: C39_54  and  C40_55
REMARK   26  A    between atoms: C41_56  and  O15_57
REMARK   27  A    between atoms: C42_58  and  O16_59
REMARK   28  A    between atoms: O16_59  and  C43_60
REMARK   29  A    between atoms: C44_61  and  O17_62
REMARK   30  A    between atoms: O17_62  and  C45_63
REMARK                            x       y       z     vdW  Elec       q    Type
REMARK                         _______ _______ _______ _____ _____    ______ ____
ROOT
ATOM      1  C3  UNL     1      75.254  68.418  96.018  0.00  0.00    +0.000 C 
ATOM      2  O1  UNL     1      74.718  68.783  97.296  0.00  0.00    +0.000 OA
ATOM      3  C4  UNL     1      73.937  69.931  97.517  0.00  0.00    +0.000 C 
ATOM      4  O2  UNL     1      74.197  71.014  96.923  0.00  0.00    +0.000 OA
ATOM      5  C5  UNL     1      72.804  69.857  98.496  0.00  0.00    +0.000 C 
ATOM      6  C6  UNL     1      73.106  70.485  99.879  0.00  0.00    +0.000 C 
ATOM      7  C7  UNL     1      73.100  72.046  99.929  0.00  0.00    +0.000 C 
ATOM      8  C8  UNL     1      71.737  72.631  99.507  0.00  0.00    +0.000 C 
ATOM      9  C9  UNL     1      73.486  72.611 101.355  0.00  0.00    +0.000 C 
ATOM     10  C25 UNL     1      75.019  72.957 101.426  0.00  0.00    +0.000 C 
ATOM     11  C28 UNL     1      75.284  74.382 100.846  0.00  0.00    +0.000 C 
ATOM     12  C29 UNL     1      76.750  74.631 100.417  0.00  0.00    +0.000 C 
ATOM     13  C30 UNL     1      77.126  76.111 100.572  0.00  0.00    +0.000 C 
ATOM     14  C31 UNL     1      76.953  74.176  98.988  0.00  0.00    +0.000 C 
ATOM     15  O12 UNL     1      76.671  74.951  98.034  0.00  0.00    +0.000 OA
ATOM     16  C32 UNL     1      77.372  72.787  98.719  0.00  0.00    +0.000 C 
ATOM     17  C33 UNL     1      77.344  72.265  97.484  0.00  0.00    +0.000 C 
ATOM     18  C34 UNL     1      77.573  70.823  97.231  0.00  0.00    +0.000 C 
ATOM     19  C35 UNL     1      76.929  70.273  96.183  0.00  0.00    +0.000 C 
ATOM     20  C36 UNL     1      76.764  68.788  95.934  0.00  0.00    +0.000 C 
ATOM     21  C46 UNL     1      78.407  70.001  98.182  0.00  0.00    +0.000 C 
ENDROOT
BRANCH   1  23
ATOM     22  C1  UNL     1      73.613  66.461  96.362  0.00  0.00    +0.000 C 
ATOM     23  C2  UNL     1      74.965  66.911  95.806  0.00  0.00    +0.000 C 
ENDBRANCH   1  23
BRANCH   6  24
ATOM     24  O3  UNL     1      74.333  69.995 100.367  0.00  0.00    +0.000 OA
ATOM     25  H10 UNL     1      74.814  69.594  99.593  0.00  0.00    +0.000 HD
ENDBRANCH   6  24
BRANCH   9  26
ATOM     26  O4  UNL     1      73.114  71.668 102.371  0.00  0.00    +0.000 OA
BRANCH  26  27
ATOM     27  C10 UNL     1      72.203  72.181 103.349  0.00  0.00    +0.000 C 
ATOM     28  O5  UNL     1      72.813  72.184 104.640  0.00  0.00    +0.000 OA
ATOM     29  C11 UNL     1      72.722  70.985 105.401  0.00  0.00    +0.000 C 
ATOM     30  C12 UNL     1      73.829  70.000 105.006  0.00  0.00    +0.000 C 
ATOM     31  C13 UNL     1      71.311  70.328 105.424  0.00  0.00    +0.000 C 
ATOM     32  C21 UNL     1      70.274  71.263 104.742  0.00  0.00    +0.000 C 
ATOM     33  C22 UNL     1      70.810  71.475 103.299  0.00  0.00    +0.000 C 
BRANCH  32  34
ATOM     34  N1  UNL     1      70.093  72.578 105.457  0.00  0.00    +0.000 NA
ATOM     35  C23 UNL     1      69.371  72.442 106.741  0.00  0.00    +0.000 C 
ATOM     36  C24 UNL     1      69.372  73.562 104.613  0.00  0.00    +0.000 C 
ENDBRANCH  32  34
BRANCH  33  37
ATOM     37  O10 UNL     1      70.805  70.273 102.565  0.00  0.00    +0.000 OA
ATOM     38  H37 UNL     1      71.658  70.181 102.076  0.00  0.00    +0.000 HD
ENDBRANCH  33  37
BRANCH  31  39
ATOM     39  O6  UNL     1      70.935  70.023 106.762  0.00  0.00    +0.000 OA
BRANCH  39  40
ATOM     40  C14 UNL     1      70.631  68.655 106.958  0.00  0.00    +0.000 C 
ATOM     41  C15 UNL     1      70.386  68.424 108.465  0.00  0.00    +0.000 C 
ATOM     42  C16 UNL     1      70.964  67.073 108.977  0.00  0.00    +0.000 C 
ATOM     43  C17 UNL     1      72.441  67.244 109.405  0.00  0.00    +0.000 C 
ATOM     44  C18 UNL     1      70.843  65.996 107.861  0.00  0.00    +0.000 C 
ATOM     45  C19 UNL     1      71.392  66.506 106.488  0.00  0.00    +0.000 C 
ATOM     46  C20 UNL     1      72.636  65.718 106.070  0.00  0.00    +0.000 C 
ATOM     47  O9  UNL     1      71.727  67.883 106.507  0.00  0.00    +0.000 OA
BRANCH  42  48
ATOM     48  O7  UNL     1      70.237  66.628 110.100  0.00  0.00    +0.000 OA
ATOM     49  H28 UNL     1      70.670  65.791 110.434  0.00  0.00    +0.000 HD
ENDBRANCH  42  48
BRANCH  44  50
ATOM     50  O8  UNL     1      69.487  65.651 107.693  0.00  0.00    +0.000 OA
ATOM     51  H30 UNL     1      69.015  66.453 107.350  0.00  0.00    +0.000 HD
ENDBRANCH  44  50
ENDBRANCH  39  40
ENDBRANCH  31  39
ENDBRANCH  26  27
ENDBRANCH   9  26
BRANCH  10  52
ATOM     52  C26 UNL     1      75.633  72.784 102.844  0.00  0.00    +0.000 C 
BRANCH  52  53
ATOM     53  C27 UNL     1      76.589  71.635 102.974  0.00  0.00    +0.000 C 
ATOM     54  O11 UNL     1      77.465  71.667 103.822  0.00  0.00    +0.000 OA
ENDBRANCH  52  53
ENDBRANCH  10  52
BRANCH  20  55
ATOM     55  C37 UNL     1      77.416  68.426  94.582  0.00  0.00    +0.000 C 
BRANCH  55  56
ATOM     56  O13 UNL     1      78.378  67.392  94.735  0.00  0.00    +0.000 OA
BRANCH  56  57
ATOM     57  C38 UNL     1      79.474  67.801  95.532  0.00  0.00    +0.000 C 
ATOM     58  O14 UNL     1      80.427  68.546  94.770  0.00  0.00    +0.000 OA
ATOM     59  C39 UNL     1      81.402  67.753  94.104  0.00  0.00    +0.000 C 
ATOM     60  C40 UNL     1      80.792  66.932  92.953  0.00  0.00    +0.000 C 
ATOM     61  C41 UNL     1      82.255  66.898  95.085  0.00  0.00    +0.000 C 
ATOM     62  C42 UNL     1      81.577  66.754  96.464  0.00  0.00    +0.000 C 
ATOM     63  C44 UNL     1      80.068  66.569  96.261  0.00  0.00    +0.000 C 
BRANCH  61  64
ATOM     64  O15 UNL     1      83.523  67.482  95.236  0.00  0.00    +0.000 OA
ATOM     65  H66 UNL     1      83.946  67.498  94.338  0.00  0.00    +0.000 HD
ENDBRANCH  61  64
BRANCH  62  66
ATOM     66  O16 UNL     1      81.814  67.925  97.239  0.00  0.00    +0.000 OA
ATOM     67  C43 UNL     1      82.501  67.607  98.428  0.00  0.00    +0.000 C 
ENDBRANCH  62  66
BRANCH  63  68
ATOM     68  O17 UNL     1      79.445  66.421  97.527  0.00  0.00    +0.000 OA
ATOM     69  C45 UNL     1      79.678  65.132  98.058  0.00  0.00    +0.000 C 
ENDBRANCH  63  68
ENDBRANCH  56  57
ENDBRANCH  55  56
ENDBRANCH  20  55
TORSDOF 18
ENDMDL
MODEL 15
REMARK VINA RESULT:      -6.9      6.049      9.826
REMARK  Name = ./S3162.pdb
REMARK  30 active torsions:
REMARK  status: ('A' for Active; 'I' for Inactive)
REMARK    1  A    between atoms: C1_1  and  C2_2
REMARK    2  A    between atoms: C2_2  and  C3_3
REMARK    3  A    between atoms: C6_8  and  O3_9
REMARK    4  A    between atoms: C7_10  and  C8_11
REMARK    5  A    between atoms: C9_12  and  O4_13
REMARK    6  A    between atoms: O4_13  and  C10_14
REMARK    7  A    between atoms: C11_16  and  C12_17
REMARK    8  A    between atoms: C13_18  and  O6_19
REMARK    9  A    between atoms: O6_19  and  C14_20
REMARK   10  A    between atoms: C16_22  and  C17_23
REMARK   11  A    between atoms: C16_22  and  O7_24
REMARK   12  A    between atoms: C18_25  and  O8_26
REMARK   13  A    between atoms: C19_27  and  C20_28
REMARK   14  A    between atoms: C21_30  and  N1_33
REMARK   15  A    between atoms: C22_31  and  O10_32
REMARK   16  A    between atoms: N1_33  and  C23_34
REMARK   17  A    between atoms: N1_33  and  C24_35
REMARK   18  A    between atoms: C25_36  and  C26_37
REMARK   19  A    between atoms: C26_37  and  C27_38
REMARK   20  A    between atoms: C29_41  and  C30_42
REMARK   21  A    between atoms: C34_47  and  C46_64
REMARK   22  A    between atoms: C36_49  and  C37_50
REMARK   23  A    between atoms: C37_50  and  O13_51
REMARK   24  A    between atoms: O13_51  and  C38_52
REMARK   25  A    between atoms: C39_54  and  C40_55
REMARK   26  A    between atoms: C41_56  and  O15_57
REMARK   27  A    between atoms: C42_58  and  O16_59
REMARK   28  A    between atoms: O16_59  and  C43_60
REMARK   29  A    between atoms: C44_61  and  O17_62
REMARK   30  A    between atoms: O17_62  and  C45_63
REMARK                            x       y       z     vdW  Elec       q    Type
REMARK                         _______ _______ _______ _____ _____    ______ ____
ROOT
ATOM      1  C3  UNL     1      74.929  64.655 113.750  0.00  0.00    +0.000 C 
ATOM      2  O1  UNL     1      74.607  65.414 112.578  0.00  0.00    +0.000 OA
ATOM      3  C4  UNL     1      73.395  65.294 111.876  0.00  0.00    +0.000 C 
ATOM      4  O2  UNL     1      72.843  64.168 111.728  0.00  0.00    +0.000 OA
ATOM      5  C5  UNL     1      72.780  66.523 111.278  0.00  0.00    +0.000 C 
ATOM      6  C6  UNL     1      72.996  66.675 109.753  0.00  0.00    +0.000 C 
ATOM      7  C7  UNL     1      72.119  65.749 108.850  0.00  0.00    +0.000 C 
ATOM      8  C8  UNL     1      70.612  65.988 109.073  0.00  0.00    +0.000 C 
ATOM      9  C9  UNL     1      72.447  65.912 107.312  0.00  0.00    +0.000 C 
ATOM     10  C25 UNL     1      73.477  64.819 106.839  0.00  0.00    +0.000 C 
ATOM     11  C28 UNL     1      72.738  63.489 106.489  0.00  0.00    +0.000 C 
ATOM     12  C29 UNL     1      73.649  62.238 106.490  0.00  0.00    +0.000 C 
ATOM     13  C30 UNL     1      73.144  61.188 105.490  0.00  0.00    +0.000 C 
ATOM     14  C31 UNL     1      73.722  61.655 107.884  0.00  0.00    +0.000 C 
ATOM     15  O12 UNL     1      72.830  60.856 108.281  0.00  0.00    +0.000 OA
ATOM     16  C32 UNL     1      74.775  62.115 108.811  0.00  0.00    +0.000 C 
ATOM     17  C33 UNL     1      74.750  61.811 110.117  0.00  0.00    +0.000 C 
ATOM     18  C34 UNL     1      75.686  62.425 111.088  0.00  0.00    +0.000 C 
ATOM     19  C35 UNL     1      75.238  62.604 112.346  0.00  0.00    +0.000 C 
ATOM     20  C36 UNL     1      75.888  63.482 113.394  0.00  0.00    +0.000 C 
ATOM     21  C46 UNL     1      77.038  62.921 110.639  0.00  0.00    +0.000 C 
ENDROOT
BRANCH   1  23
ATOM     22  C1  UNL     1      75.112  67.097 114.551  0.00  0.00    +0.000 C 
ATOM     23  C2  UNL     1      75.503  65.640 114.798  0.00  0.00    +0.000 C 
ENDBRANCH   1  23
BRANCH   6  24
ATOM     24  O3  UNL     1      74.358  66.494 109.444  0.00  0.00    +0.000 OA
ATOM     25  H10 UNL     1      74.432  66.489 108.450  0.00  0.00    +0.000 HD
ENDBRANCH   6  24
BRANCH   9  26
ATOM     26  O4  UNL     1      72.933  67.237 107.053  0.00  0.00    +0.000 OA
BRANCH  26  27
ATOM     27  C10 UNL     1      71.978  68.107 106.435  0.00  0.00    +0.000 C 
ATOM     28  O5  UNL     1      72.238  68.213 105.035  0.00  0.00    +0.000 OA
ATOM     29  C11 UNL     1      73.180  69.199 104.626  0.00  0.00    +0.000 C 
ATOM     30  C12 UNL     1      74.613  68.667 104.737  0.00  0.00    +0.000 C 
ATOM     31  C13 UNL     1      73.001  70.594 105.293  0.00  0.00    +0.000 C 
ATOM     32  C21 UNL     1      71.692  70.623 106.131  0.00  0.00    +0.000 C 
ATOM     33  C22 UNL     1      71.854  69.479 107.171  0.00  0.00    +0.000 C 
BRANCH  32  34
ATOM     34  N1  UNL     1      70.448  70.435 105.302  0.00  0.00    +0.000 NA
ATOM     35  C23 UNL     1      69.996  71.684 104.649  0.00  0.00    +0.000 C 
ATOM     36  C24 UNL     1      69.329  69.898 106.113  0.00  0.00    +0.000 C 
ENDBRANCH  32  34
BRANCH  33  37
ATOM     37  O10 UNL     1      72.907  69.743 108.069  0.00  0.00    +0.000 OA
ATOM     38  H37 UNL     1      72.610  70.405 108.740  0.00  0.00    +0.000 HD
ENDBRANCH  33  37
BRANCH  31  39
ATOM     39  O6  UNL     1      73.007  71.614 104.302  0.00  0.00    +0.000 OA
BRANCH  39  40
ATOM     40  C14 UNL     1      73.330  71.135 103.010  0.00  0.00    +0.000 C 
ATOM     41  C15 UNL     1      74.670  71.771 102.578  0.00  0.00    +0.000 C 
ATOM     42  C16 UNL     1      74.703  72.157 101.071  0.00  0.00    +0.000 C 
ATOM     43  C17 UNL     1      74.141  73.584 100.866  0.00  0.00    +0.000 C 
ATOM     44  C18 UNL     1      73.879  71.126 100.248  0.00  0.00    +0.000 C 
ATOM     45  C19 UNL     1      72.463  70.876 100.865  0.00  0.00    +0.000 C 
ATOM     46  C20 UNL     1      71.362  71.375  99.928  0.00  0.00    +0.000 C 
ATOM     47  O9  UNL     1      72.293  71.507 102.123  0.00  0.00    +0.000 OA
BRANCH  42  48
ATOM     48  O7  UNL     1      76.030  72.142 100.595  0.00  0.00    +0.000 OA
ATOM     49  H28 UNL     1      76.631  72.396 101.352  0.00  0.00    +0.000 HD
ENDBRANCH  42  48
BRANCH  44  50
ATOM     50  O8  UNL     1      74.569  69.898 100.216  0.00  0.00    +0.000 OA
ATOM     51  H30 UNL     1      75.540  70.101 100.195  0.00  0.00    +0.000 HD
ENDBRANCH  44  50
ENDBRANCH  39  40
ENDBRANCH  31  39
ENDBRANCH  26  27
ENDBRANCH   9  26
BRANCH  10  52
ATOM     52  C26 UNL     1      74.400  65.293 105.680  0.00  0.00    +0.000 C 
BRANCH  52  53
ATOM     53  C27 UNL     1      73.973  64.837 104.317  0.00  0.00    +0.000 C 
ATOM     54  O11 UNL     1      73.612  65.656 103.489  0.00  0.00    +0.000 OA
ENDBRANCH  52  53
ENDBRANCH  10  52
BRANCH  20  55
ATOM     55  C37 UNL     1      76.281  62.614 114.610  0.00  0.00    +0.000 C 
BRANCH  55  56
ATOM     56  O13 UNL     1      76.276  61.232 114.278  0.00  0.00    +0.000 OA
BRANCH  56  57
ATOM     57  C38 UNL     1      77.081  60.472 115.159  0.00  0.00    +0.000 C 
ATOM     58  O14 UNL     1      78.474  60.672 114.903  0.00  0.00    +0.000 OA
ATOM     59  C39 UNL     1      79.021  59.816 113.907  0.00  0.00    +0.000 C 
ATOM     60  C40 UNL     1      78.487  60.148 112.502  0.00  0.00    +0.000 C 
ATOM     61  C41 UNL     1      78.894  58.309 114.273  0.00  0.00    +0.000 C 
ATOM     62  C42 UNL     1      77.835  58.069 115.369  0.00  0.00    +0.000 C 
ATOM     63  C44 UNL     1      76.634  58.989 115.113  0.00  0.00    +0.000 C 
BRANCH  61  64
ATOM     64  O15 UNL     1      80.141  57.823 114.700  0.00  0.00    +0.000 OA
ATOM     65  H66 UNL     1      80.645  57.559 113.887  0.00  0.00    +0.000 HD
ENDBRANCH  61  64
BRANCH  62  66
ATOM     66  O16 UNL     1      78.393  58.357 116.647  0.00  0.00    +0.000 OA
ATOM     67  C43 UNL     1      78.345  57.223 117.482  0.00  0.00    +0.000 C 
ENDBRANCH  62  66
BRANCH  63  68
ATOM     68  O17 UNL     1      75.653  58.757 116.112  0.00  0.00    +0.000 OA
ATOM     69  C45 UNL     1      74.362  58.677 115.543  0.00  0.00    +0.000 C 
ENDBRANCH  63  68
ENDBRANCH  56  57
ENDBRANCH  55  56
ENDBRANCH  20  55
TORSDOF 18
ENDMDL
MODEL 16
REMARK VINA RESULT:      -6.9      3.033     13.082
REMARK  Name = ./S3162.pdb
REMARK  30 active torsions:
REMARK  status: ('A' for Active; 'I' for Inactive)
REMARK    1  A    between atoms: C1_1  and  C2_2
REMARK    2  A    between atoms: C2_2  and  C3_3
REMARK    3  A    between atoms: C6_8  and  O3_9
REMARK    4  A    between atoms: C7_10  and  C8_11
REMARK    5  A    between atoms: C9_12  and  O4_13
REMARK    6  A    between atoms: O4_13  and  C10_14
REMARK    7  A    between atoms: C11_16  and  C12_17
REMARK    8  A    between atoms: C13_18  and  O6_19
REMARK    9  A    between atoms: O6_19  and  C14_20
REMARK   10  A    between atoms: C16_22  and  C17_23
REMARK   11  A    between atoms: C16_22  and  O7_24
REMARK   12  A    between atoms: C18_25  and  O8_26
REMARK   13  A    between atoms: C19_27  and  C20_28
REMARK   14  A    between atoms: C21_30  and  N1_33
REMARK   15  A    between atoms: C22_31  and  O10_32
REMARK   16  A    between atoms: N1_33  and  C23_34
REMARK   17  A    between atoms: N1_33  and  C24_35
REMARK   18  A    between atoms: C25_36  and  C26_37
REMARK   19  A    between atoms: C26_37  and  C27_38
REMARK   20  A    between atoms: C29_41  and  C30_42
REMARK   21  A    between atoms: C34_47  and  C46_64
REMARK   22  A    between atoms: C36_49  and  C37_50
REMARK   23  A    between atoms: C37_50  and  O13_51
REMARK   24  A    between atoms: O13_51  and  C38_52
REMARK   25  A    between atoms: C39_54  and  C40_55
REMARK   26  A    between atoms: C41_56  and  O15_57
REMARK   27  A    between atoms: C42_58  and  O16_59
REMARK   28  A    between atoms: O16_59  and  C43_60
REMARK   29  A    between atoms: C44_61  and  O17_62
REMARK   30  A    between atoms: O17_62  and  C45_63
REMARK                            x       y       z     vdW  Elec       q    Type
REMARK                         _______ _______ _______ _____ _____    ______ ____
ROOT
ATOM      1  C3  UNL     1      69.658  60.354  98.651  0.00  0.00    +0.000 C 
ATOM      2  O1  UNL     1      70.274  60.593  99.923  0.00  0.00    +0.000 OA
ATOM      3  C4  UNL     1      71.557  61.147 100.079  0.00  0.00    +0.000 C 
ATOM      4  O2  UNL     1      72.493  60.844  99.287  0.00  0.00    +0.000 OA
ATOM      5  C5  UNL     1      71.807  62.083 101.222  0.00  0.00    +0.000 C 
ATOM      6  C6  UNL     1      72.550  61.450 102.423  0.00  0.00    +0.000 C 
ATOM      7  C7  UNL     1      74.083  61.220 102.226  0.00  0.00    +0.000 C 
ATOM      8  C8  UNL     1      74.830  62.537 101.935  0.00  0.00    +0.000 C 
ATOM      9  C9  UNL     1      74.755  60.506 103.466  0.00  0.00    +0.000 C 
ATOM     10  C25 UNL     1      74.842  58.951 103.240  0.00  0.00    +0.000 C 
ATOM     11  C28 UNL     1      76.113  58.591 102.408  0.00  0.00    +0.000 C 
ATOM     12  C29 UNL     1      76.050  57.206 101.720  0.00  0.00    +0.000 C 
ATOM     13  C30 UNL     1      77.453  56.598 101.579  0.00  0.00    +0.000 C 
ATOM     14  C31 UNL     1      75.384  57.332 100.368  0.00  0.00    +0.000 C 
ATOM     15  O12 UNL     1      76.063  57.666  99.359  0.00  0.00    +0.000 OA
ATOM     16  C32 UNL     1      73.920  57.173 100.260  0.00  0.00    +0.000 C 
ATOM     17  C33 UNL     1      73.253  57.499  99.143  0.00  0.00    +0.000 C 
ATOM     18  C34 UNL     1      71.773  57.531  99.089  0.00  0.00    +0.000 C 
ATOM     19  C35 UNL     1      71.207  58.426  98.255  0.00  0.00    +0.000 C 
ATOM     20  C36 UNL     1      69.753  58.847  98.274  0.00  0.00    +0.000 C 
ATOM     21  C46 UNL     1      70.954  56.668 100.016  0.00  0.00    +0.000 C 
ENDROOT
BRANCH   1  23
ATOM     22  C1  UNL     1      67.520  60.612 100.065  0.00  0.00    +0.000 C 
ATOM     23  C2  UNL     1      68.208  60.893  98.728  0.00  0.00    +0.000 C 
ENDBRANCH   1  23
BRANCH   6  24
ATOM     24  O3  UNL     1      71.927  60.240 102.785  0.00  0.00    +0.000 OA
ATOM     25  H10 UNL     1      71.243  60.460 103.475  0.00  0.00    +0.000 HD
ENDBRANCH   6  24
BRANCH   9  26
ATOM     26  O4  UNL     1      74.031  60.822 104.664  0.00  0.00    +0.000 OA
BRANCH  26  27
ATOM     27  C10 UNL     1      74.836  61.371 105.714  0.00  0.00    +0.000 C 
ATOM     28  O5  UNL     1      74.590  60.679 106.939  0.00  0.00    +0.000 OA
ATOM     29  C11 UNL     1      73.502  61.139 107.734  0.00  0.00    +0.000 C 
ATOM     30  C12 UNL     1      72.179  60.529 107.256  0.00  0.00    +0.000 C 
ATOM     31  C13 UNL     1      73.425  62.683 107.910  0.00  0.00    +0.000 C 
ATOM     32  C21 UNL     1      74.692  63.355 107.311  0.00  0.00    +0.000 C 
ATOM     33  C22 UNL     1      74.707  62.924 105.817  0.00  0.00    +0.000 C 
BRANCH  32  34
ATOM     34  N1  UNL     1      75.967  62.955 108.008  0.00  0.00    +0.000 NA
ATOM     35  C23 UNL     1      76.024  63.411 109.414  0.00  0.00    +0.000 C 
ATOM     36  C24 UNL     1      77.162  63.472 107.297  0.00  0.00    +0.000 C 
ENDBRANCH  32  34
BRANCH  33  37
ATOM     37  O10 UNL     1      73.606  63.454 105.116  0.00  0.00    +0.000 OA
ATOM     38  H37 UNL     1      72.770  63.070 105.475  0.00  0.00    +0.000 HD
ENDBRANCH  33  37
BRANCH  31  39
ATOM     39  O6  UNL     1      73.265  63.010 109.285  0.00  0.00    +0.000 OA
BRANCH  39  40
ATOM     40  C14 UNL     1      72.484  64.172 109.495  0.00  0.00    +0.000 C 
ATOM     41  C15 UNL     1      71.441  64.267 108.361  0.00  0.00    +0.000 C 
ATOM     42  C16 UNL     1      71.206  65.724 107.869  0.00  0.00    +0.000 C 
ATOM     43  C17 UNL     1      72.217  66.088 106.755  0.00  0.00    +0.000 C 
ATOM     44  C18 UNL     1      71.339  66.709 109.065  0.00  0.00    +0.000 C 
ATOM     45  C19 UNL     1      72.645  66.460 109.891  0.00  0.00    +0.000 C 
ATOM     46  C20 UNL     1      73.598  67.652 109.778  0.00  0.00    +0.000 C 
ATOM     47  O9  UNL     1      73.342  65.297 109.479  0.00  0.00    +0.000 OA
BRANCH  42  48
ATOM     48  O7  UNL     1      69.909  65.854 107.333  0.00  0.00    +0.000 OA
ATOM     49  H28 UNL     1      69.893  65.387 106.449  0.00  0.00    +0.000 HD
ENDBRANCH  42  48
BRANCH  44  50
ATOM     50  O8  UNL     1      70.236  66.546 109.927  0.00  0.00    +0.000 OA
ATOM     51  H30 UNL     1      69.556  67.223 109.674  0.00  0.00    +0.000 HD
ENDBRANCH  44  50
ENDBRANCH  39  40
ENDBRANCH  31  39
ENDBRANCH  26  27
ENDBRANCH   9  26
BRANCH  10  52
ATOM     52  C26 UNL     1      74.755  58.124 104.554  0.00  0.00    +0.000 C 
BRANCH  52  53
ATOM     53  C27 UNL     1      73.473  57.367 104.730  0.00  0.00    +0.000 C 
ATOM     54  O11 UNL     1      72.406  57.949 104.635  0.00  0.00    +0.000 OA
ENDBRANCH  52  53
ENDBRANCH  10  52
BRANCH  20  55
ATOM     55  C37 UNL     1      69.110  58.509  96.911  0.00  0.00    +0.000 C 
BRANCH  55  56
ATOM     56  O13 UNL     1      70.087  58.454  95.881  0.00  0.00    +0.000 OA
BRANCH  56  57
ATOM     57  C38 UNL     1      69.625  57.742  94.748  0.00  0.00    +0.000 C 
ATOM     58  O14 UNL     1      69.797  56.332  94.908  0.00  0.00    +0.000 OA
ATOM     59  C39 UNL     1      71.071  55.842  94.506  0.00  0.00    +0.000 C 
ATOM     60  C40 UNL     1      72.194  56.311  95.450  0.00  0.00    +0.000 C 
ATOM     61  C41 UNL     1      71.375  56.115  93.005  0.00  0.00    +0.000 C 
ATOM     62  C42 UNL     1      70.465  57.217  92.423  0.00  0.00    +0.000 C 
ATOM     63  C44 UNL     1      70.286  58.322  93.472  0.00  0.00    +0.000 C 
BRANCH  61  64
ATOM     64  O15 UNL     1      71.216  54.929  92.271  0.00  0.00    +0.000 OA
ATOM     65  H66 UNL     1      71.742  55.030  91.435  0.00  0.00    +0.000 HD
ENDBRANCH  61  64
BRANCH  62  66
ATOM     66  O16 UNL     1      69.195  56.665  92.091  0.00  0.00    +0.000 OA
ATOM     67  C43 UNL     1      68.925  56.821  90.717  0.00  0.00    +0.000 C 
ENDBRANCH  62  66
BRANCH  63  68
ATOM     68  O17 UNL     1      69.462  59.344  92.932  0.00  0.00    +0.000 OA
ATOM     69  C45 UNL     1      68.157  59.278  93.470  0.00  0.00    +0.000 C 
ENDBRANCH  63  68
ENDBRANCH  56  57
ENDBRANCH  55  56
ENDBRANCH  20  55
TORSDOF 18
ENDMDL
MODEL 17
REMARK VINA RESULT:      -6.8      2.532     13.319
REMARK  Name = ./S3162.pdb
REMARK  30 active torsions:
REMARK  status: ('A' for Active; 'I' for Inactive)
REMARK    1  A    between atoms: C1_1  and  C2_2
REMARK    2  A    between atoms: C2_2  and  C3_3
REMARK    3  A    between atoms: C6_8  and  O3_9
REMARK    4  A    between atoms: C7_10  and  C8_11
REMARK    5  A    between atoms: C9_12  and  O4_13
REMARK    6  A    between atoms: O4_13  and  C10_14
REMARK    7  A    between atoms: C11_16  and  C12_17
REMARK    8  A    between atoms: C13_18  and  O6_19
REMARK    9  A    between atoms: O6_19  and  C14_20
REMARK   10  A    between atoms: C16_22  and  C17_23
REMARK   11  A    between atoms: C16_22  and  O7_24
REMARK   12  A    between atoms: C18_25  and  O8_26
REMARK   13  A    between atoms: C19_27  and  C20_28
REMARK   14  A    between atoms: C21_30  and  N1_33
REMARK   15  A    between atoms: C22_31  and  O10_32
REMARK   16  A    between atoms: N1_33  and  C23_34
REMARK   17  A    between atoms: N1_33  and  C24_35
REMARK   18  A    between atoms: C25_36  and  C26_37
REMARK   19  A    between atoms: C26_37  and  C27_38
REMARK   20  A    between atoms: C29_41  and  C30_42
REMARK   21  A    between atoms: C34_47  and  C46_64
REMARK   22  A    between atoms: C36_49  and  C37_50
REMARK   23  A    between atoms: C37_50  and  O13_51
REMARK   24  A    between atoms: O13_51  and  C38_52
REMARK   25  A    between atoms: C39_54  and  C40_55
REMARK   26  A    between atoms: C41_56  and  O15_57
REMARK   27  A    between atoms: C42_58  and  O16_59
REMARK   28  A    between atoms: O16_59  and  C43_60
REMARK   29  A    between atoms: C44_61  and  O17_62
REMARK   30  A    between atoms: O17_62  and  C45_63
REMARK                            x       y       z     vdW  Elec       q    Type
REMARK                         _______ _______ _______ _____ _____    ______ ____
ROOT
ATOM      1  C3  UNL     1      70.540  60.390  99.774  0.00  0.00    +0.000 C 
ATOM      2  O1  UNL     1      70.900  60.805 101.098  0.00  0.00    +0.000 OA
ATOM      3  C4  UNL     1      71.639  61.968 101.379  0.00  0.00    +0.000 C 
ATOM      4  O2  UNL     1      72.587  62.330 100.628  0.00  0.00    +0.000 OA
ATOM      5  C5  UNL     1      71.301  62.760 102.606  0.00  0.00    +0.000 C 
ATOM      6  C6  UNL     1      72.263  62.540 103.799  0.00  0.00    +0.000 C 
ATOM      7  C7  UNL     1      73.655  63.240 103.683  0.00  0.00    +0.000 C 
ATOM      8  C8  UNL     1      73.522  64.769 103.546  0.00  0.00    +0.000 C 
ATOM      9  C9  UNL     1      74.605  62.910 104.905  0.00  0.00    +0.000 C 
ATOM     10  C25 UNL     1      75.563  61.710 104.563  0.00  0.00    +0.000 C 
ATOM     11  C28 UNL     1      76.820  62.218 103.789  0.00  0.00    +0.000 C 
ATOM     12  C29 UNL     1      77.562  61.119 102.992  0.00  0.00    +0.000 C 
ATOM     13  C30 UNL     1      79.063  61.429 102.893  0.00  0.00    +0.000 C 
ATOM     14  C31 UNL     1      76.954  60.982 101.613  0.00  0.00    +0.000 C 
ATOM     15  O12 UNL     1      77.330  61.741 100.679  0.00  0.00    +0.000 OA
ATOM     16  C32 UNL     1      75.842  60.035 101.400  0.00  0.00    +0.000 C 
ATOM     17  C33 UNL     1      75.117  60.037 100.271  0.00  0.00    +0.000 C 
ATOM     18  C34 UNL     1      73.883  59.231 100.124  0.00  0.00    +0.000 C 
ATOM     19  C35 UNL     1      72.915  59.728  99.329  0.00  0.00    +0.000 C 
ATOM     20  C36 UNL     1      71.479  59.248  99.287  0.00  0.00    +0.000 C 
ATOM     21  C46 UNL     1      73.693  57.967 100.926  0.00  0.00    +0.000 C 
ENDROOT
BRANCH   1  23
ATOM     22  C1  UNL     1      68.135  61.092 100.374  0.00  0.00    +0.000 C 
ATOM     23  C2  UNL     1      69.041  60.002  99.800  0.00  0.00    +0.000 C 
ENDBRANCH   1  23
BRANCH   6  24
ATOM     24  O3  UNL     1      72.437  61.161 104.024  0.00  0.00    +0.000 OA
ATOM     25  H10 UNL     1      71.736  60.882 104.675  0.00  0.00    +0.000 HD
ENDBRANCH   6  24
BRANCH   9  26
ATOM     26  O4  UNL     1      73.819  62.638 106.074  0.00  0.00    +0.000 OA
BRANCH  26  27
ATOM     27  C10 UNL     1      73.108  63.771 106.586  0.00  0.00    +0.000 C 
ATOM     28  O5  UNL     1      74.010  64.850 106.835  0.00  0.00    +0.000 OA
ATOM     29  C11 UNL     1      74.658  64.871 108.102  0.00  0.00    +0.000 C 
ATOM     30  C12 UNL     1      75.906  63.980 108.094  0.00  0.00    +0.000 C 
ATOM     31  C13 UNL     1      73.729  64.595 109.320  0.00  0.00    +0.000 C 
ATOM     32  C21 UNL     1      72.245  64.541 108.859  0.00  0.00    +0.000 C 
ATOM     33  C22 UNL     1      72.194  63.406 107.798  0.00  0.00    +0.000 C 
BRANCH  32  34
ATOM     34  N1  UNL     1      71.749  65.845 108.289  0.00  0.00    +0.000 NA
ATOM     35  C23 UNL     1      71.339  66.811 109.331  0.00  0.00    +0.000 C 
ATOM     36  C24 UNL     1      70.606  65.636 107.366  0.00  0.00    +0.000 C 
ENDBRANCH  32  34
BRANCH  33  37
ATOM     37  O10 UNL     1      72.478  62.151 108.371  0.00  0.00    +0.000 OA
ATOM     38  H37 UNL     1      71.827  61.961 109.089  0.00  0.00    +0.000 HD
ENDBRANCH  33  37
BRANCH  31  39
ATOM     39  O6  UNL     1      73.926  65.586 110.321  0.00  0.00    +0.000 OA
BRANCH  39  40
ATOM     40  C14 UNL     1      73.678  65.113 111.631  0.00  0.00    +0.000 C 
ATOM     41  C15 UNL     1      73.165  66.294 112.484  0.00  0.00    +0.000 C 
ATOM     42  C16 UNL     1      73.719  66.282 113.938  0.00  0.00    +0.000 C 
ATOM     43  C17 UNL     1      75.073  67.028 114.006  0.00  0.00    +0.000 C 
ATOM     44  C18 UNL     1      73.883  64.814 114.424  0.00  0.00    +0.000 C 
ATOM     45  C19 UNL     1      74.650  63.931 113.385  0.00  0.00    +0.000 C 
ATOM     46  C20 UNL     1      75.998  63.474 113.947  0.00  0.00    +0.000 C 
ATOM     47  O9  UNL     1      74.887  64.604 112.161  0.00  0.00    +0.000 OA
BRANCH  42  48
ATOM     48  O7  UNL     1      72.821  66.937 114.805  0.00  0.00    +0.000 OA
ATOM     49  H28 UNL     1      71.900  66.608 114.600  0.00  0.00    +0.000 HD
ENDBRANCH  42  48
BRANCH  44  50
ATOM     50  O8  UNL     1      72.609  64.247 114.628  0.00  0.00    +0.000 OA
ATOM     51  H30 UNL     1      71.957  64.777 114.099  0.00  0.00    +0.000 HD
ENDBRANCH  44  50
ENDBRANCH  39  40
ENDBRANCH  31  39
ENDBRANCH  26  27
ENDBRANCH   9  26
BRANCH  10  52
ATOM     52  C26 UNL     1      75.952  60.850 105.800  0.00  0.00    +0.000 C 
BRANCH  52  53
ATOM     53  C27 UNL     1      75.399  59.457 105.789  0.00  0.00    +0.000 C 
ATOM     54  O11 UNL     1      74.330  59.224 106.328  0.00  0.00    +0.000 OA
ENDBRANCH  52  53
ENDBRANCH  10  52
BRANCH  20  55
ATOM     55  C37 UNL     1      71.155  58.746  97.863  0.00  0.00    +0.000 C 
BRANCH  55  56
ATOM     56  O13 UNL     1      71.543  59.696  96.881  0.00  0.00    +0.000 OA
BRANCH  56  57
ATOM     57  C38 UNL     1      71.226  59.266  95.571  0.00  0.00    +0.000 C 
ATOM     58  O14 UNL     1      70.630  60.315  94.803  0.00  0.00    +0.000 OA
ATOM     59  C39 UNL     1      69.219  60.423  94.945  0.00  0.00    +0.000 C 
ATOM     60  C40 UNL     1      68.815  60.916  96.346  0.00  0.00    +0.000 C 
ATOM     61  C41 UNL     1      68.469  59.132  94.507  0.00  0.00    +0.000 C 
ATOM     62  C42 UNL     1      69.409  57.909  94.456  0.00  0.00    +0.000 C 
ATOM     63  C44 UNL     1      70.376  57.972  95.645  0.00  0.00    +0.000 C 
BRANCH  61  64
ATOM     64  O15 UNL     1      67.882  59.335  93.248  0.00  0.00    +0.000 OA
ATOM     65  H66 UNL     1      68.616  59.545  92.613  0.00  0.00    +0.000 HD
ENDBRANCH  61  64
BRANCH  62  66
ATOM     66  O16 UNL     1      70.148  57.922  93.239  0.00  0.00    +0.000 OA
ATOM     67  C43 UNL     1      69.891  56.760  92.485  0.00  0.00    +0.000 C 
ENDBRANCH  62  66
BRANCH  63  68
ATOM     68  O17 UNL     1      71.230  56.840  95.608  0.00  0.00    +0.000 OA
ATOM     69  C45 UNL     1      70.535  55.669  95.987  0.00  0.00    +0.000 C 
ENDBRANCH  63  68
ENDBRANCH  56  57
ENDBRANCH  55  56
ENDBRANCH  20  55
TORSDOF 18
ENDMDL
MODEL 18
REMARK VINA RESULT:      -6.8      8.850     13.239
REMARK  Name = ./S3162.pdb
REMARK  30 active torsions:
REMARK  status: ('A' for Active; 'I' for Inactive)
REMARK    1  A    between atoms: C1_1  and  C2_2
REMARK    2  A    between atoms: C2_2  and  C3_3
REMARK    3  A    between atoms: C6_8  and  O3_9
REMARK    4  A    between atoms: C7_10  and  C8_11
REMARK    5  A    between atoms: C9_12  and  O4_13
REMARK    6  A    between atoms: O4_13  and  C10_14
REMARK    7  A    between atoms: C11_16  and  C12_17
REMARK    8  A    between atoms: C13_18  and  O6_19
REMARK    9  A    between atoms: O6_19  and  C14_20
REMARK   10  A    between atoms: C16_22  and  C17_23
REMARK   11  A    between atoms: C16_22  and  O7_24
REMARK   12  A    between atoms: C18_25  and  O8_26
REMARK   13  A    between atoms: C19_27  and  C20_28
REMARK   14  A    between atoms: C21_30  and  N1_33
REMARK   15  A    between atoms: C22_31  and  O10_32
REMARK   16  A    between atoms: N1_33  and  C23_34
REMARK   17  A    between atoms: N1_33  and  C24_35
REMARK   18  A    between atoms: C25_36  and  C26_37
REMARK   19  A    between atoms: C26_37  and  C27_38
REMARK   20  A    between atoms: C29_41  and  C30_42
REMARK   21  A    between atoms: C34_47  and  C46_64
REMARK   22  A    between atoms: C36_49  and  C37_50
REMARK   23  A    between atoms: C37_50  and  O13_51
REMARK   24  A    between atoms: O13_51  and  C38_52
REMARK   25  A    between atoms: C39_54  and  C40_55
REMARK   26  A    between atoms: C41_56  and  O15_57
REMARK   27  A    between atoms: C42_58  and  O16_59
REMARK   28  A    between atoms: O16_59  and  C43_60
REMARK   29  A    between atoms: C44_61  and  O17_62
REMARK   30  A    between atoms: O17_62  and  C45_63
REMARK                            x       y       z     vdW  Elec       q    Type
REMARK                         _______ _______ _______ _____ _____    ______ ____
ROOT
ATOM      1  C3  UNL     1      72.586  66.314 108.151  0.00  0.00    +0.000 C 
ATOM      2  O1  UNL     1      71.774  67.493 108.075  0.00  0.00    +0.000 OA
ATOM      3  C4  UNL     1      71.593  68.243 106.900  0.00  0.00    +0.000 C 
ATOM      4  O2  UNL     1      72.548  68.421 106.092  0.00  0.00    +0.000 OA
ATOM      5  C5  UNL     1      70.252  68.857 106.633  0.00  0.00    +0.000 C 
ATOM      6  C6  UNL     1      70.163  70.371 106.941  0.00  0.00    +0.000 C 
ATOM      7  C7  UNL     1      70.845  71.314 105.898  0.00  0.00    +0.000 C 
ATOM      8  C8  UNL     1      70.240  71.150 104.490  0.00  0.00    +0.000 C 
ATOM      9  C9  UNL     1      70.775  72.837 106.318  0.00  0.00    +0.000 C 
ATOM     10  C25 UNL     1      72.090  73.276 107.063  0.00  0.00    +0.000 C 
ATOM     11  C28 UNL     1      73.197  73.664 106.033  0.00  0.00    +0.000 C 
ATOM     12  C29 UNL     1      74.635  73.635 106.604  0.00  0.00    +0.000 C 
ATOM     13  C30 UNL     1      75.530  74.661 105.895  0.00  0.00    +0.000 C 
ATOM     14  C31 UNL     1      75.213  72.243 106.474  0.00  0.00    +0.000 C 
ATOM     15  O12 UNL     1      75.765  71.887 105.398  0.00  0.00    +0.000 OA
ATOM     16  C32 UNL     1      75.025  71.272 107.570  0.00  0.00    +0.000 C 
ATOM     17  C33 UNL     1      75.309  69.970 107.420  0.00  0.00    +0.000 C 
ATOM     18  C34 UNL     1      74.943  68.959 108.439  0.00  0.00    +0.000 C 
ATOM     19  C35 UNL     1      74.654  67.718 107.998  0.00  0.00    +0.000 C 
ATOM     20  C36 UNL     1      73.961  66.640 108.804  0.00  0.00    +0.000 C 
ATOM     21  C46 UNL     1      74.799  69.350 109.888  0.00  0.00    +0.000 C 
ENDROOT
BRANCH   1  23
ATOM     22  C1  UNL     1      70.965  65.792 110.085  0.00  0.00    +0.000 C 
ATOM     23  C2  UNL     1      71.770  65.237 108.909  0.00  0.00    +0.000 C 
ENDBRANCH   1  23
BRANCH   6  24
ATOM     24  O3  UNL     1      70.677  70.627 108.227  0.00  0.00    +0.000 OA
ATOM     25  H10 UNL     1      70.400  69.867 108.807  0.00  0.00    +0.000 HD
ENDBRANCH   6  24
BRANCH   9  26
ATOM     26  O4  UNL     1      69.612  73.068 107.127  0.00  0.00    +0.000 OA
BRANCH  26  27
ATOM     27  C10 UNL     1      68.626  73.909 106.519  0.00  0.00    +0.000 C 
ATOM     28  O5  UNL     1      68.483  75.120 107.260  0.00  0.00    +0.000 OA
ATOM     29  C11 UNL     1      67.577  75.104 108.358  0.00  0.00    +0.000 C 
ATOM     30  C12 UNL     1      68.252  74.546 109.617  0.00  0.00    +0.000 C 
ATOM     31  C13 UNL     1      66.203  74.434 108.065  0.00  0.00    +0.000 C 
ATOM     32  C21 UNL     1      66.083  74.099 106.552  0.00  0.00    +0.000 C 
ATOM     33  C22 UNL     1      67.282  73.158 106.251  0.00  0.00    +0.000 C 
BRANCH  32  34
ATOM     34  N1  UNL     1      66.109  75.318 105.666  0.00  0.00    +0.000 NA
ATOM     35  C23 UNL     1      64.842  76.082 105.698  0.00  0.00    +0.000 C 
ATOM     36  C24 UNL     1      66.407  74.962 104.258  0.00  0.00    +0.000 C 
ENDBRANCH  32  34
BRANCH  33  37
ATOM     37  O10 UNL     1      67.164  71.935 106.939  0.00  0.00    +0.000 OA
ATOM     38  H37 UNL     1      67.130  72.105 107.912  0.00  0.00    +0.000 HD
ENDBRANCH  33  37
BRANCH  31  39
ATOM     39  O6  UNL     1      65.145  75.281 108.496  0.00  0.00    +0.000 OA
BRANCH  39  40
ATOM     40  C14 UNL     1      64.069  74.574 109.086  0.00  0.00    +0.000 C 
ATOM     41  C15 UNL     1      64.645  73.354 109.837  0.00  0.00    +0.000 C 
ATOM     42  C16 UNL     1      63.758  72.082 109.704  0.00  0.00    +0.000 C 
ATOM     43  C17 UNL     1      64.145  71.284 108.436  0.00  0.00    +0.000 C 
ATOM     44  C18 UNL     1      62.259  72.492 109.651  0.00  0.00    +0.000 C 
ATOM     45  C19 UNL     1      61.996  73.630 108.609  0.00  0.00    +0.000 C 
ATOM     46  C20 UNL     1      61.122  73.126 107.459  0.00  0.00    +0.000 C 
ATOM     47  O9  UNL     1      63.190  74.158 108.059  0.00  0.00    +0.000 OA
BRANCH  42  48
ATOM     48  O7  UNL     1      63.946  71.240 110.818  0.00  0.00    +0.000 OA
ATOM     49  H28 UNL     1      63.063  71.132 111.275  0.00  0.00    +0.000 HD
ENDBRANCH  42  48
BRANCH  44  50
ATOM     50  O8  UNL     1      61.858  72.955 110.920  0.00  0.00    +0.000 OA
ATOM     51  H30 UNL     1      61.994  73.938 110.936  0.00  0.00    +0.000 HD
ENDBRANCH  44  50
ENDBRANCH  39  40
ENDBRANCH  31  39
ENDBRANCH  26  27
ENDBRANCH   9  26
BRANCH  10  52
ATOM     52  C26 UNL     1      71.864  74.394 108.121  0.00  0.00    +0.000 C 
BRANCH  52  53
ATOM     53  C27 UNL     1      72.342  74.052 109.501  0.00  0.00    +0.000 C 
ATOM     54  O11 UNL     1      72.894  72.984 109.704  0.00  0.00    +0.000 OA
ENDBRANCH  52  53
ENDBRANCH  10  52
BRANCH  20  55
ATOM     55  C37 UNL     1      74.895  65.415 108.920  0.00  0.00    +0.000 C 
BRANCH  55  56
ATOM     56  O13 UNL     1      75.552  65.388 110.179  0.00  0.00    +0.000 OA
BRANCH  56  57
ATOM     57  C38 UNL     1      74.993  64.421 111.049  0.00  0.00    +0.000 C 
ATOM     58  O14 UNL     1      73.900  64.959 111.798  0.00  0.00    +0.000 OA
ATOM     59  C39 UNL     1      74.275  65.608 113.007  0.00  0.00    +0.000 C 
ATOM     60  C40 UNL     1      75.033  66.923 112.747  0.00  0.00    +0.000 C 
ATOM     61  C41 UNL     1      75.011  64.660 113.997  0.00  0.00    +0.000 C 
ATOM     62  C42 UNL     1      75.558  63.402 113.291  0.00  0.00    +0.000 C 
ATOM     63  C44 UNL     1      76.116  63.802 111.920  0.00  0.00    +0.000 C 
BRANCH  61  64
ATOM     64  O15 UNL     1      74.133  64.284 115.027  0.00  0.00    +0.000 OA
ATOM     65  H66 UNL     1      74.655  64.289 115.872  0.00  0.00    +0.000 HD
ENDBRANCH  61  64
BRANCH  62  66
ATOM     66  O16 UNL     1      74.511  62.452 113.122  0.00  0.00    +0.000 OA
ATOM     67  C43 UNL     1      74.853  61.219 113.712  0.00  0.00    +0.000 C 
ENDBRANCH  62  66
BRANCH  63  68
ATOM     68  O17 UNL     1      76.634  62.649 111.276  0.00  0.00    +0.000 OA
ATOM     69  C45 UNL     1      77.921  62.331 111.766  0.00  0.00    +0.000 C 
ENDBRANCH  63  68
ENDBRANCH  56  57
ENDBRANCH  55  56
ENDBRANCH  20  55
TORSDOF 18
ENDMDL
MODEL 19
REMARK VINA RESULT:      -6.8      3.689      7.133
REMARK  Name = ./S3162.pdb
REMARK  30 active torsions:
REMARK  status: ('A' for Active; 'I' for Inactive)
REMARK    1  A    between atoms: C1_1  and  C2_2
REMARK    2  A    between atoms: C2_2  and  C3_3
REMARK    3  A    between atoms: C6_8  and  O3_9
REMARK    4  A    between atoms: C7_10  and  C8_11
REMARK    5  A    between atoms: C9_12  and  O4_13
REMARK    6  A    between atoms: O4_13  and  C10_14
REMARK    7  A    between atoms: C11_16  and  C12_17
REMARK    8  A    between atoms: C13_18  and  O6_19
REMARK    9  A    between atoms: O6_19  and  C14_20
REMARK   10  A    between atoms: C16_22  and  C17_23
REMARK   11  A    between atoms: C16_22  and  O7_24
REMARK   12  A    between atoms: C18_25  and  O8_26
REMARK   13  A    between atoms: C19_27  and  C20_28
REMARK   14  A    between atoms: C21_30  and  N1_33
REMARK   15  A    between atoms: C22_31  and  O10_32
REMARK   16  A    between atoms: N1_33  and  C23_34
REMARK   17  A    between atoms: N1_33  and  C24_35
REMARK   18  A    between atoms: C25_36  and  C26_37
REMARK   19  A    between atoms: C26_37  and  C27_38
REMARK   20  A    between atoms: C29_41  and  C30_42
REMARK   21  A    between atoms: C34_47  and  C46_64
REMARK   22  A    between atoms: C36_49  and  C37_50
REMARK   23  A    between atoms: C37_50  and  O13_51
REMARK   24  A    between atoms: O13_51  and  C38_52
REMARK   25  A    between atoms: C39_54  and  C40_55
REMARK   26  A    between atoms: C41_56  and  O15_57
REMARK   27  A    between atoms: C42_58  and  O16_59
REMARK   28  A    between atoms: O16_59  and  C43_60
REMARK   29  A    between atoms: C44_61  and  O17_62
REMARK   30  A    between atoms: O17_62  and  C45_63
REMARK                            x       y       z     vdW  Elec       q    Type
REMARK                         _______ _______ _______ _____ _____    ______ ____
ROOT
ATOM      1  C3  UNL     1      75.758  63.959 112.454  0.00  0.00    +0.000 C 
ATOM      2  O1  UNL     1      75.513  63.495 111.120  0.00  0.00    +0.000 OA
ATOM      3  C4  UNL     1      75.995  64.140 109.967  0.00  0.00    +0.000 C 
ATOM      4  O2  UNL     1      76.033  65.401 109.900  0.00  0.00    +0.000 OA
ATOM      5  C5  UNL     1      76.437  63.306 108.803  0.00  0.00    +0.000 C 
ATOM      6  C6  UNL     1      75.414  63.225 107.644  0.00  0.00    +0.000 C 
ATOM      7  C7  UNL     1      75.309  64.497 106.743  0.00  0.00    +0.000 C 
ATOM      8  C8  UNL     1      76.654  64.841 106.073  0.00  0.00    +0.000 C 
ATOM      9  C9  UNL     1      74.195  64.363 105.629  0.00  0.00    +0.000 C 
ATOM     10  C25 UNL     1      72.842  65.010 106.106  0.00  0.00    +0.000 C 
ATOM     11  C28 UNL     1      72.850  66.549 105.842  0.00  0.00    +0.000 C 
ATOM     12  C29 UNL     1      71.826  67.344 106.686  0.00  0.00    +0.000 C 
ATOM     13  C30 UNL     1      71.346  68.595 105.936  0.00  0.00    +0.000 C 
ATOM     14  C31 UNL     1      72.437  67.721 108.017  0.00  0.00    +0.000 C 
ATOM     15  O12 UNL     1      73.142  68.763 108.115  0.00  0.00    +0.000 OA
ATOM     16  C32 UNL     1      72.299  66.806 109.167  0.00  0.00    +0.000 C 
ATOM     17  C33 UNL     1      73.007  66.973 110.294  0.00  0.00    +0.000 C 
ATOM     18  C34 UNL     1      73.025  65.958 111.373  0.00  0.00    +0.000 C 
ATOM     19  C35 UNL     1      74.155  65.851 112.098  0.00  0.00    +0.000 C 
ATOM     20  C36 UNL     1      74.506  64.696 113.013  0.00  0.00    +0.000 C 
ATOM     21  C46 UNL     1      71.858  65.021 111.562  0.00  0.00    +0.000 C 
ENDROOT
BRANCH   1  23
ATOM     22  C1  UNL     1      77.693  62.437 113.216  0.00  0.00    +0.000 C 
ATOM     23  C2  UNL     1      76.195  62.736 113.298  0.00  0.00    +0.000 C 
ENDBRANCH   1  23
BRANCH   6  24
ATOM     24  O3  UNL     1      74.143  62.892 108.152  0.00  0.00    +0.000 OA
ATOM     25  H10 UNL     1      74.278  62.162 108.817  0.00  0.00    +0.000 HD
ENDBRANCH   6  24
BRANCH   9  26
ATOM     26  O4  UNL     1      74.020  62.983 105.276  0.00  0.00    +0.000 OA
BRANCH  26  27
ATOM     27  C10 UNL     1      74.347  62.675 103.916  0.00  0.00    +0.000 C 
ATOM     28  O5  UNL     1      73.207  62.143 103.241  0.00  0.00    +0.000 OA
ATOM     29  C11 UNL     1      72.986  60.741 103.351  0.00  0.00    +0.000 C 
ATOM     30  C12 UNL     1      72.236  60.404 104.645  0.00  0.00    +0.000 C 
ATOM     31  C13 UNL     1      74.252  59.859 103.141  0.00  0.00    +0.000 C 
ATOM     32  C21 UNL     1      75.445  60.738 102.671  0.00  0.00    +0.000 C 
ATOM     33  C22 UNL     1      75.633  61.795 103.794  0.00  0.00    +0.000 C 
BRANCH  32  34
ATOM     34  N1  UNL     1      75.213  61.395 101.335  0.00  0.00    +0.000 NA
ATOM     35  C23 UNL     1      75.378  60.464 100.197  0.00  0.00    +0.000 C 
ATOM     36  C24 UNL     1      76.120  62.551 101.132  0.00  0.00    +0.000 C 
ENDBRANCH  32  34
BRANCH  33  37
ATOM     37  O10 UNL     1      76.033  61.197 105.005  0.00  0.00    +0.000 OA
ATOM     38  H37 UNL     1      75.338  61.345 105.692  0.00  0.00    +0.000 HD
ENDBRANCH  33  37
BRANCH  31  39
ATOM     39  O6  UNL     1      73.974  58.819 102.211  0.00  0.00    +0.000 OA
BRANCH  39  40
ATOM     40  C14 UNL     1      74.348  57.537 102.680  0.00  0.00    +0.000 C 
ATOM     41  C15 UNL     1      74.593  57.630 104.202  0.00  0.00    +0.000 C 
ATOM     42  C16 UNL     1      75.802  56.773 104.678  0.00  0.00    +0.000 C 
ATOM     43  C17 UNL     1      77.114  57.587 104.577  0.00  0.00    +0.000 C 
ATOM     44  C18 UNL     1      75.898  55.480 103.820  0.00  0.00    +0.000 C 
ATOM     45  C19 UNL     1      75.829  55.784 102.286  0.00  0.00    +0.000 C 
ATOM     46  C20 UNL     1      77.152  55.438 101.600  0.00  0.00    +0.000 C 
ATOM     47  O9  UNL     1      75.529  57.141 102.009  0.00  0.00    +0.000 OA
BRANCH  42  48
ATOM     48  O7  UNL     1      75.630  56.396 106.026  0.00  0.00    +0.000 OA
ATOM     49  H28 UNL     1      74.918  55.695 106.060  0.00  0.00    +0.000 HD
ENDBRANCH  42  48
BRANCH  44  50
ATOM     50  O8  UNL     1      74.829  54.623 104.147  0.00  0.00    +0.000 OA
ATOM     51  H30 UNL     1      75.163  53.970 104.815  0.00  0.00    +0.000 HD
ENDBRANCH  44  50
ENDBRANCH  39  40
ENDBRANCH  31  39
ENDBRANCH  26  27
ENDBRANCH   9  26
BRANCH  10  52
ATOM     52  C26 UNL     1      71.579  64.326 105.511  0.00  0.00    +0.000 C 
BRANCH  52  53
ATOM     53  C27 UNL     1      70.753  63.568 106.507  0.00  0.00    +0.000 C 
ATOM     54  O11 UNL     1      71.279  63.104 107.505  0.00  0.00    +0.000 OA
ENDBRANCH  52  53
ENDBRANCH  10  52
BRANCH  20  55
ATOM     55  C37 UNL     1      74.693  65.228 114.451  0.00  0.00    +0.000 C 
BRANCH  55  56
ATOM     56  O13 UNL     1      73.474  65.182 115.179  0.00  0.00    +0.000 OA
BRANCH  56  57
ATOM     57  C38 UNL     1      73.682  64.872 116.544  0.00  0.00    +0.000 C 
ATOM     58  O14 UNL     1      72.840  65.656 117.395  0.00  0.00    +0.000 OA
ATOM     59  C39 UNL     1      73.380  66.921 117.757  0.00  0.00    +0.000 C 
ATOM     60  C40 UNL     1      73.446  67.886 116.559  0.00  0.00    +0.000 C 
ATOM     61  C41 UNL     1      74.728  66.803 118.526  0.00  0.00    +0.000 C 
ATOM     62  C42 UNL     1      75.385  65.420 118.329  0.00  0.00    +0.000 C 
ATOM     63  C44 UNL     1      75.193  64.980 116.872  0.00  0.00    +0.000 C 
BRANCH  61  64
ATOM     64  O15 UNL     1      74.510  67.036 119.894  0.00  0.00    +0.000 OA
ATOM     65  H66 UNL     1      75.238  67.634 120.208  0.00  0.00    +0.000 HD
ENDBRANCH  61  64
BRANCH  62  66
ATOM     66  O16 UNL     1      74.777  64.471 119.199  0.00  0.00    +0.000 OA
ATOM     67  C43 UNL     1      75.711  63.975 120.130  0.00  0.00    +0.000 C 
ENDBRANCH  62  66
BRANCH  63  68
ATOM     68  O17 UNL     1      75.810  63.716 116.686  0.00  0.00    +0.000 OA
ATOM     69  C45 UNL     1      77.217  63.826 116.750  0.00  0.00    +0.000 C 
ENDBRANCH  63  68
ENDBRANCH  56  57
ENDBRANCH  55  56
ENDBRANCH  20  55
TORSDOF 18
ENDMDL
MODEL 20
REMARK VINA RESULT:      -6.7      4.161     13.785
REMARK  Name = ./S3162.pdb
REMARK  30 active torsions:
REMARK  status: ('A' for Active; 'I' for Inactive)
REMARK    1  A    between atoms: C1_1  and  C2_2
REMARK    2  A    between atoms: C2_2  and  C3_3
REMARK    3  A    between atoms: C6_8  and  O3_9
REMARK    4  A    between atoms: C7_10  and  C8_11
REMARK    5  A    between atoms: C9_12  and  O4_13
REMARK    6  A    between atoms: O4_13  and  C10_14
REMARK    7  A    between atoms: C11_16  and  C12_17
REMARK    8  A    between atoms: C13_18  and  O6_19
REMARK    9  A    between atoms: O6_19  and  C14_20
REMARK   10  A    between atoms: C16_22  and  C17_23
REMARK   11  A    between atoms: C16_22  and  O7_24
REMARK   12  A    between atoms: C18_25  and  O8_26
REMARK   13  A    between atoms: C19_27  and  C20_28
REMARK   14  A    between atoms: C21_30  and  N1_33
REMARK   15  A    between atoms: C22_31  and  O10_32
REMARK   16  A    between atoms: N1_33  and  C23_34
REMARK   17  A    between atoms: N1_33  and  C24_35
REMARK   18  A    between atoms: C25_36  and  C26_37
REMARK   19  A    between atoms: C26_37  and  C27_38
REMARK   20  A    between atoms: C29_41  and  C30_42
REMARK   21  A    between atoms: C34_47  and  C46_64
REMARK   22  A    between atoms: C36_49  and  C37_50
REMARK   23  A    between atoms: C37_50  and  O13_51
REMARK   24  A    between atoms: O13_51  and  C38_52
REMARK   25  A    between atoms: C39_54  and  C40_55
REMARK   26  A    between atoms: C41_56  and  O15_57
REMARK   27  A    between atoms: C42_58  and  O16_59
REMARK   28  A    between atoms: O16_59  and  C43_60
REMARK   29  A    between atoms: C44_61  and  O17_62
REMARK   30  A    between atoms: O17_62  and  C45_63
REMARK                            x       y       z     vdW  Elec       q    Type
REMARK                         _______ _______ _______ _____ _____    ______ ____
ROOT
ATOM      1  C3  UNL     1      73.347  60.038 104.585  0.00  0.00    +0.000 C 
ATOM      2  O1  UNL     1      73.776  60.328 105.922  0.00  0.00    +0.000 OA
ATOM      3  C4  UNL     1      73.372  61.466 106.644  0.00  0.00    +0.000 C 
ATOM      4  O2  UNL     1      73.237  62.582 106.068  0.00  0.00    +0.000 OA
ATOM      5  C5  UNL     1      73.133  61.340 108.118  0.00  0.00    +0.000 C 
ATOM      6  C6  UNL     1      74.281  61.879 109.005  0.00  0.00    +0.000 C 
ATOM      7  C7  UNL     1      74.378  63.435 109.114  0.00  0.00    +0.000 C 
ATOM      8  C8  UNL     1      73.091  64.054 109.695  0.00  0.00    +0.000 C 
ATOM      9  C9  UNL     1      75.616  63.908 109.977  0.00  0.00    +0.000 C 
ATOM     10  C25 UNL     1      76.849  64.239 109.057  0.00  0.00    +0.000 C 
ATOM     11  C28 UNL     1      76.743  65.695 108.505  0.00  0.00    +0.000 C 
ATOM     12  C29 UNL     1      77.598  65.960 107.243  0.00  0.00    +0.000 C 
ATOM     13  C30 UNL     1      78.052  67.425 107.182  0.00  0.00    +0.000 C 
ATOM     14  C31 UNL     1      76.814  65.592 106.002  0.00  0.00    +0.000 C 
ATOM     15  O12 UNL     1      76.019  66.426 105.488  0.00  0.00    +0.000 OA
ATOM     16  C32 UNL     1      76.900  64.219 105.468  0.00  0.00    +0.000 C 
ATOM     17  C33 UNL     1      76.060  63.774 104.521  0.00  0.00    +0.000 C 
ATOM     18  C34 UNL     1      76.008  62.349 104.119  0.00  0.00    +0.000 C 
ATOM     19  C35 UNL     1      74.817  61.868 103.711  0.00  0.00    +0.000 C 
ATOM     20  C36 UNL     1      74.464  60.403 103.564  0.00  0.00    +0.000 C 
ATOM     21  C46 UNL     1      77.220  61.465 104.272  0.00  0.00    +0.000 C 
ENDROOT
BRANCH   1  23
ATOM     22  C1  UNL     1      72.212  58.080 105.816  0.00  0.00    +0.000 C 
ATOM     23  C2  UNL     1      72.923  58.549 104.547  0.00  0.00    +0.000 C 
ENDBRANCH   1  23
BRANCH   6  24
ATOM     24  O3  UNL     1      75.511  61.352 108.566  0.00  0.00    +0.000 OA
ATOM     25  H10 UNL     1      75.565  60.418 108.908  0.00  0.00    +0.000 HD
ENDBRANCH   6  24
BRANCH   9  26
ATOM     26  O4  UNL     1      75.943  62.907 110.952  0.00  0.00    +0.000 OA
BRANCH  26  27
ATOM     27  C10 UNL     1      75.724  63.310 112.309  0.00  0.00    +0.000 C 
ATOM     28  O5  UNL     1      76.965  63.372 113.012  0.00  0.00    +0.000 OA
ATOM     29  C11 UNL     1      77.435  62.165 113.603  0.00  0.00    +0.000 C 
ATOM     30  C12 UNL     1      78.190  61.312 112.576  0.00  0.00    +0.000 C 
ATOM     31  C13 UNL     1      76.361  61.356 114.385  0.00  0.00    +0.000 C 
ATOM     32  C21 UNL     1      75.044  62.175 114.489  0.00  0.00    +0.000 C 
ATOM     33  C22 UNL     1      74.627  62.454 113.018  0.00  0.00    +0.000 C 
BRANCH  32  34
ATOM     34  N1  UNL     1      75.197  63.456 115.267  0.00  0.00    +0.000 NA
ATOM     35  C23 UNL     1      74.920  63.292 116.711  0.00  0.00    +0.000 C 
ATOM     36  C24 UNL     1      74.313  64.523 114.738  0.00  0.00    +0.000 C 
ENDBRANCH  32  34
BRANCH  33  37
ATOM     37  O10 UNL     1      74.302  61.264 112.339  0.00  0.00    +0.000 OA
ATOM     38  H37 UNL     1      73.901  61.482 111.463  0.00  0.00    +0.000 HD
ENDBRANCH  33  37
BRANCH  31  39
ATOM     39  O6  UNL     1      76.856  61.003 115.671  0.00  0.00    +0.000 OA
BRANCH  39  40
ATOM     40  C14 UNL     1      78.122  61.567 115.956  0.00  0.00    +0.000 C 
ATOM     41  C15 UNL     1      79.140  60.417 116.121  0.00  0.00    +0.000 C 
ATOM     42  C16 UNL     1      80.170  60.674 117.259  0.00  0.00    +0.000 C 
ATOM     43  C17 UNL     1      79.618  60.167 118.612  0.00  0.00    +0.000 C 
ATOM     44  C18 UNL     1      80.495  62.192 117.339  0.00  0.00    +0.000 C 
ATOM     45  C19 UNL     1      79.200  63.071 117.369  0.00  0.00    +0.000 C 
ATOM     46  C20 UNL     1      79.063  63.796 118.709  0.00  0.00    +0.000 C 
ATOM     47  O9  UNL     1      78.020  62.317 117.151  0.00  0.00    +0.000 OA
BRANCH  42  48
ATOM     48  O7  UNL     1      81.369  59.980 116.994  0.00  0.00    +0.000 OA
ATOM     49  H28 UNL     1      81.309  59.604 116.070  0.00  0.00    +0.000 HD
ENDBRANCH  42  48
BRANCH  44  50
ATOM     50  O8  UNL     1      81.255  62.566 116.213  0.00  0.00    +0.000 OA
ATOM     51  H30 UNL     1      81.291  63.557 116.192  0.00  0.00    +0.000 HD
ENDBRANCH  44  50
ENDBRANCH  39  40
ENDBRANCH  31  39
ENDBRANCH  26  27
ENDBRANCH   9  26
BRANCH  10  52
ATOM     52  C26 UNL     1      78.223  63.975 109.737  0.00  0.00    +0.000 C 
BRANCH  52  53
ATOM     53  C27 UNL     1      79.307  63.533 108.800  0.00  0.00    +0.000 C 
ATOM     54  O11 UNL     1      80.476  63.723 109.091  0.00  0.00    +0.000 OA
ENDBRANCH  52  53
ENDBRANCH  10  52
BRANCH  20  55
ATOM     55  C37 UNL     1      74.076  60.119 102.096  0.00  0.00    +0.000 C 
BRANCH  55  56
ATOM     56  O13 UNL     1      73.094  61.037 101.638  0.00  0.00    +0.000 OA
BRANCH  56  57
ATOM     57  C38 UNL     1      71.910  60.384 101.220  0.00  0.00    +0.000 C 
ATOM     58  O14 UNL     1      72.050  59.830  99.910  0.00  0.00    +0.000 OA
ATOM     59  C39 UNL     1      71.745  60.730  98.851  0.00  0.00    +0.000 C 
ATOM     60  C40 UNL     1      72.789  61.854  98.729  0.00  0.00    +0.000 C 
ATOM     61  C41 UNL     1      70.281  61.254  98.910  0.00  0.00    +0.000 C 
ATOM     62  C42 UNL     1      69.651  61.052 100.305  0.00  0.00    +0.000 C 
ATOM     63  C44 UNL     1      70.707  61.349 101.376  0.00  0.00    +0.000 C 
BRANCH  61  64
ATOM     64  O15 UNL     1      69.508  60.597  97.939  0.00  0.00    +0.000 OA
ATOM     65  H66 UNL     1      69.934  60.773  97.059  0.00  0.00    +0.000 HD
ENDBRANCH  61  64
BRANCH  62  66
ATOM     66  O16 UNL     1      69.201  59.708 100.438  0.00  0.00    +0.000 OA
ATOM     67  C43 UNL     1      67.794  59.645 100.398  0.00  0.00    +0.000 C 
ENDBRANCH  62  66
BRANCH  63  68
ATOM     68  O17 UNL     1      70.125  61.179 102.659  0.00  0.00    +0.000 OA
ATOM     69  C45 UNL     1      70.366  62.306 103.478  0.00  0.00    +0.000 C 
ENDBRANCH  63  68
ENDBRANCH  56  57
ENDBRANCH  55  56
ENDBRANCH  20  55
TORSDOF 18
ENDMDL
