MODEL 1
REMARK VINA RESULT:      -7.8      0.000      0.000
REMARK  Name = ./S3618.pdb
REMARK  28 active torsions:
REMARK  status: ('A' for Active; 'I' for Inactive)
REMARK    1  A    between atoms: C1_1  and  O1_2
REMARK    2  A    between atoms: O1_2  and  C2_3
REMARK    3  A    between atoms: C3_4  and  O14_59
REMARK    4  A    between atoms: C6_9  and  C7_10
REMARK    5  A    between atoms: C13_16  and  O4_17
REMARK    6  A    between atoms: O4_17  and  C14_18
REMARK    7  A    between atoms: C17_21  and  N1_25
REMARK    8  A    between atoms: C18_22  and  C19_23
REMARK    9  A    between atoms: N1_25  and  C20_26
REMARK   10  A    between atoms: N1_25  and  C21_27
REMARK   11  A    between atoms: C22_28  and  C23_29
REMARK   12  A    between atoms: C25_31  and  C26_32
REMARK   13  A    between atoms: C26_32  and  C27_33
REMARK   14  A    between atoms: C28_35  and  O7_36
REMARK   15  A    between atoms: O7_36  and  C29_37
REMARK   16  A    between atoms: C30_39  and  C31_40
REMARK   17  A    between atoms: C32_41  and  O9_42
REMARK   18  A    between atoms: O9_42  and  C33_43
REMARK   19  A    between atoms: C35_45  and  C36_46
REMARK   20  A    between atoms: C35_45  and  O10_47
REMARK   21  A    between atoms: C37_48  and  O11_49
REMARK   22  A    between atoms: C38_50  and  C39_51
REMARK   23  A    between atoms: C40_53  and  N2_56
REMARK   24  A    between atoms: C41_54  and  O13_55
REMARK   25  A    between atoms: N2_56  and  C42_57
REMARK   26  A    between atoms: N2_56  and  C43_58
REMARK   27  A    between atoms: O14_59  and  C44_60
REMARK   28  A    between atoms: C44_60  and  C45_61
REMARK                            x       y       z     vdW  Elec       q    Type
REMARK                         _______ _______ _______ _____ _____    ______ ____
ROOT
ATOM      1  C2  UNL     1      74.110  62.303 104.354  0.00  0.00    +0.000 C 
ATOM      2  C3  UNL     1      73.486  63.585 104.966  0.00  0.00    +0.000 C 
ATOM      3  C4  UNL     1      74.237  64.832 104.442  0.00  0.00    +0.000 C 
ATOM      4  C5  UNL     1      73.650  66.150 104.862  0.00  0.00    +0.000 C 
ATOM      5  O2  UNL     1      74.206  67.214 104.470  0.00  0.00    +0.000 OA
ATOM      6  O3  UNL     1      72.540  66.210 105.713  0.00  0.00    +0.000 OA
ATOM      7  C6  UNL     1      72.175  67.387 106.440  0.00  0.00    +0.000 C 
ATOM      8  C7  UNL     1      70.744  67.236 106.958  0.00  0.00    +0.000 C 
ATOM      9  C8  UNL     1      73.166  67.632 107.595  0.00  0.00    +0.000 C 
ATOM     10  C9  UNL     1      73.502  66.352 108.314  0.00  0.00    +0.000 C 
ATOM     11  C10 UNL     1      74.633  65.689 108.041  0.00  0.00    +0.000 C 
ATOM     12  C11 UNL     1      74.959  64.349 108.569  0.00  0.00    +0.000 C 
ATOM     13  C12 UNL     1      74.037  63.463 108.977  0.00  0.00    +0.000 C 
ATOM     14  C13 UNL     1      74.374  62.069 109.457  0.00  0.00    +0.000 C 
ATOM     15  C22 UNL     1      73.817  61.002 108.453  0.00  0.00    +0.000 C 
ATOM     16  C23 UNL     1      73.640  59.657 109.200  0.00  0.00    +0.000 C 
ATOM     17  C24 UNL     1      74.759  60.886 107.215  0.00  0.00    +0.000 C 
ATOM     18  C25 UNL     1      74.291  60.153 105.914  0.00  0.00    +0.000 C 
ATOM     19  C28 UNL     1      73.454  60.972 104.867  0.00  0.00    +0.000 C 
ENDROOT
BRANCH   1  21
ATOM     20  C1  UNL     1      76.208  62.011 103.370  0.00  0.00    +0.000 C 
ATOM     21  O1  UNL     1      75.514  62.305 104.565  0.00  0.00    +0.000 OA
ENDBRANCH   1  21
BRANCH  14  22
ATOM     22  O4  UNL     1      75.786  61.933 109.612  0.00  0.00    +0.000 OA
BRANCH  22  23
ATOM     23  C14 UNL     1      76.288  62.478 110.822  0.00  0.00    +0.000 C 
ATOM     24  C15 UNL     1      77.824  62.317 110.806  0.00  0.00    +0.000 C 
ATOM     25  C16 UNL     1      78.257  61.165 111.704  0.00  0.00    +0.000 C 
ATOM     26  C17 UNL     1      77.805  61.428 113.163  0.00  0.00    +0.000 C 
ATOM     27  C18 UNL     1      76.326  61.957 113.154  0.00  0.00    +0.000 C 
ATOM     28  C19 UNL     1      76.207  63.404 113.664  0.00  0.00    +0.000 C 
ATOM     29  O5  UNL     1      75.679  61.782 111.902  0.00  0.00    +0.000 OA
BRANCH  26  30
ATOM     30  N1  UNL     1      77.925  60.213 114.027  0.00  0.00    +0.000 NA
ATOM     31  C20 UNL     1      78.895  59.227 113.504  0.00  0.00    +0.000 C 
ATOM     32  C21 UNL     1      78.347  60.579 115.398  0.00  0.00    +0.000 C 
ENDBRANCH  26  30
ENDBRANCH  22  23
ENDBRANCH  14  22
BRANCH  18  33
ATOM     33  C26 UNL     1      73.737  58.712 106.141  0.00  0.00    +0.000 C 
BRANCH  33  34
ATOM     34  C27 UNL     1      74.670  57.576 105.800  0.00  0.00    +0.000 C 
ATOM     35  O6  UNL     1      75.824  57.766 105.450  0.00  0.00    +0.000 OA
ENDBRANCH  33  34
ENDBRANCH  18  33
BRANCH  19  36
ATOM     36  O7  UNL     1      73.330  60.130 103.726  0.00  0.00    +0.000 OA
BRANCH  36  37
ATOM     37  C29 UNL     1      72.909  60.773 102.535  0.00  0.00    +0.000 C 
ATOM     38  O8  UNL     1      71.509  60.961 102.653  0.00  0.00    +0.000 OA
ATOM     39  C30 UNL     1      71.010  61.687 101.553  0.00  0.00    +0.000 C 
ATOM     40  C31 UNL     1      69.587  62.145 101.877  0.00  0.00    +0.000 C 
ATOM     41  C32 UNL     1      71.051  60.799 100.287  0.00  0.00    +0.000 C 
ATOM     42  C40 UNL     1      72.483  60.252 100.023  0.00  0.00    +0.000 C 
ATOM     43  C41 UNL     1      73.232  59.848 101.336  0.00  0.00    +0.000 C 
BRANCH  42  44
ATOM     44  N2  UNL     1      73.258  61.106  99.072  0.00  0.00    +0.000 NA
ATOM     45  C42 UNL     1      72.462  61.970  98.187  0.00  0.00    +0.000 C 
ATOM     46  C43 UNL     1      74.300  61.896  99.758  0.00  0.00    +0.000 C 
ENDBRANCH  42  44
BRANCH  43  47
ATOM     47  O13 UNL     1      72.872  58.532 101.684  0.00  0.00    +0.000 OA
ATOM     48  H67 UNL     1      72.565  58.085 100.851  0.00  0.00    +0.000 HD
ENDBRANCH  43  47
BRANCH  41  49
ATOM     49  O9  UNL     1      70.197  59.679 100.502  0.00  0.00    +0.000 OA
BRANCH  49  50
ATOM     50  C33 UNL     1      69.422  59.326  99.371  0.00  0.00    +0.000 C 
ATOM     51  C34 UNL     1      68.496  58.150  99.755  0.00  0.00    +0.000 C 
ATOM     52  C35 UNL     1      67.147  58.173  98.980  0.00  0.00    +0.000 C 
ATOM     53  C36 UNL     1      66.080  58.929  99.802  0.00  0.00    +0.000 C 
ATOM     54  C37 UNL     1      67.348  58.861  97.601  0.00  0.00    +0.000 C 
ATOM     55  C38 UNL     1      67.961  60.285  97.784  0.00  0.00    +0.000 C 
ATOM     56  C39 UNL     1      68.820  60.751  96.600  0.00  0.00    +0.000 C 
ATOM     57  O12 UNL     1      68.657  60.463  99.012  0.00  0.00    +0.000 OA
BRANCH  52  58
ATOM     58  O10 UNL     1      66.661  56.862  98.802  0.00  0.00    +0.000 OA
ATOM     59  H58 UNL     1      66.482  56.710  97.837  0.00  0.00    +0.000 HD
ENDBRANCH  52  58
BRANCH  54  60
ATOM     60  O11 UNL     1      68.187  58.072  96.791  0.00  0.00    +0.000 OA
ATOM     61  H60 UNL     1      68.647  57.421  97.382  0.00  0.00    +0.000 HD
ENDBRANCH  54  60
ENDBRANCH  49  50
ENDBRANCH  41  49
ENDBRANCH  36  37
ENDBRANCH  19  36
BRANCH   2  62
ATOM     62  O14 UNL     1      72.109  63.679 104.579  0.00  0.00    +0.000 OA
BRANCH  62  63
ATOM     63  C44 UNL     1      71.032  63.388 105.424  0.00  0.00    +0.000 C 
ATOM     64  C45 UNL     1      71.261  63.285 106.893  0.00  0.00    +0.000 C 
ATOM     65  O15 UNL     1      69.881  63.171 104.961  0.00  0.00    +0.000 OA
ENDBRANCH  62  63
ENDBRANCH   2  62
TORSDOF 16
ENDMDL
MODEL 2
REMARK VINA RESULT:      -7.6      4.536     12.736
REMARK  Name = ./S3618.pdb
REMARK  28 active torsions:
REMARK  status: ('A' for Active; 'I' for Inactive)
REMARK    1  A    between atoms: C1_1  and  O1_2
REMARK    2  A    between atoms: O1_2  and  C2_3
REMARK    3  A    between atoms: C3_4  and  O14_59
REMARK    4  A    between atoms: C6_9  and  C7_10
REMARK    5  A    between atoms: C13_16  and  O4_17
REMARK    6  A    between atoms: O4_17  and  C14_18
REMARK    7  A    between atoms: C17_21  and  N1_25
REMARK    8  A    between atoms: C18_22  and  C19_23
REMARK    9  A    between atoms: N1_25  and  C20_26
REMARK   10  A    between atoms: N1_25  and  C21_27
REMARK   11  A    between atoms: C22_28  and  C23_29
REMARK   12  A    between atoms: C25_31  and  C26_32
REMARK   13  A    between atoms: C26_32  and  C27_33
REMARK   14  A    between atoms: C28_35  and  O7_36
REMARK   15  A    between atoms: O7_36  and  C29_37
REMARK   16  A    between atoms: C30_39  and  C31_40
REMARK   17  A    between atoms: C32_41  and  O9_42
REMARK   18  A    between atoms: O9_42  and  C33_43
REMARK   19  A    between atoms: C35_45  and  C36_46
REMARK   20  A    between atoms: C35_45  and  O10_47
REMARK   21  A    between atoms: C37_48  and  O11_49
REMARK   22  A    between atoms: C38_50  and  C39_51
REMARK   23  A    between atoms: C40_53  and  N2_56
REMARK   24  A    between atoms: C41_54  and  O13_55
REMARK   25  A    between atoms: N2_56  and  C42_57
REMARK   26  A    between atoms: N2_56  and  C43_58
REMARK   27  A    between atoms: O14_59  and  C44_60
REMARK   28  A    between atoms: C44_60  and  C45_61
REMARK                            x       y       z     vdW  Elec       q    Type
REMARK                         _______ _______ _______ _____ _____    ______ ____
ROOT
ATOM      1  C2  UNL     1      74.932  63.613 108.811  0.00  0.00    +0.000 C 
ATOM      2  C3  UNL     1      73.924  62.723 108.037  0.00  0.00    +0.000 C 
ATOM      3  C4  UNL     1      74.620  62.096 106.806  0.00  0.00    +0.000 C 
ATOM      4  C5  UNL     1      73.786  61.109 106.040  0.00  0.00    +0.000 C 
ATOM      5  O2  UNL     1      74.286  60.552 105.023  0.00  0.00    +0.000 OA
ATOM      6  O3  UNL     1      72.460  60.843 106.405  0.00  0.00    +0.000 OA
ATOM      7  C6  UNL     1      71.515  60.228 105.523  0.00  0.00    +0.000 C 
ATOM      8  C7  UNL     1      70.310  59.748 106.333  0.00  0.00    +0.000 C 
ATOM      9  C8  UNL     1      71.091  61.217 104.419  0.00  0.00    +0.000 C 
ATOM     10  C9  UNL     1      70.846  62.594 104.976  0.00  0.00    +0.000 C 
ATOM     11  C10 UNL     1      71.783  63.547 104.886  0.00  0.00    +0.000 C 
ATOM     12  C11 UNL     1      71.696  64.863 105.549  0.00  0.00    +0.000 C 
ATOM     13  C12 UNL     1      70.956  65.100 106.643  0.00  0.00    +0.000 C 
ATOM     14  C13 UNL     1      70.921  66.435 107.355  0.00  0.00    +0.000 C 
ATOM     15  C22 UNL     1      71.566  66.305 108.777  0.00  0.00    +0.000 C 
ATOM     16  C23 UNL     1      71.020  67.440 109.679  0.00  0.00    +0.000 C 
ATOM     17  C24 UNL     1      73.122  66.318 108.666  0.00  0.00    +0.000 C 
ATOM     18  C25 UNL     1      74.018  65.878 109.872  0.00  0.00    +0.000 C 
ATOM     19  C28 UNL     1      74.309  64.345 110.052  0.00  0.00    +0.000 C 
ENDROOT
BRANCH   1  21
ATOM     20  C1  UNL     1      76.947  64.538 108.075  0.00  0.00    +0.000 C 
ATOM     21  O1  UNL     1      75.543  64.534 107.918  0.00  0.00    +0.000 OA
ENDBRANCH   1  21
BRANCH  14  22
ATOM     22  O4  UNL     1      71.600  67.421 106.578  0.00  0.00    +0.000 OA
BRANCH  22  23
ATOM     23  C14 UNL     1      70.762  68.472 106.123  0.00  0.00    +0.000 C 
ATOM     24  C15 UNL     1      71.540  69.257 105.043  0.00  0.00    +0.000 C 
ATOM     25  C16 UNL     1      72.073  70.569 105.607  0.00  0.00    +0.000 C 
ATOM     26  C17 UNL     1      70.900  71.449 106.105  0.00  0.00    +0.000 C 
ATOM     27  C18 UNL     1      69.893  70.553 106.912  0.00  0.00    +0.000 C 
ATOM     28  C19 UNL     1      68.516  70.443 106.233  0.00  0.00    +0.000 C 
ATOM     29  O5  UNL     1      70.423  69.279 107.244  0.00  0.00    +0.000 OA
BRANCH  26  30
ATOM     30  N1  UNL     1      71.364  72.601 106.938  0.00  0.00    +0.000 NA
ATOM     31  C20 UNL     1      70.453  72.903 108.064  0.00  0.00    +0.000 C 
ATOM     32  C21 UNL     1      72.707  72.338 107.504  0.00  0.00    +0.000 C 
ENDBRANCH  26  30
ENDBRANCH  22  23
ENDBRANCH  14  22
BRANCH  18  33
ATOM     33  C26 UNL     1      73.700  66.599 111.218  0.00  0.00    +0.000 C 
BRANCH  33  34
ATOM     34  C27 UNL     1      74.663  67.682 111.640  0.00  0.00    +0.000 C 
ATOM     35  O6  UNL     1      74.869  67.944 112.814  0.00  0.00    +0.000 OA
ENDBRANCH  33  34
ENDBRANCH  18  33
BRANCH  19  36
ATOM     36  O7  UNL     1      75.280  64.255 111.089  0.00  0.00    +0.000 OA
BRANCH  36  37
ATOM     37  C29 UNL     1      74.791  63.818 112.347  0.00  0.00    +0.000 C 
ATOM     38  O8  UNL     1      75.427  64.619 113.326  0.00  0.00    +0.000 OA
ATOM     39  C30 UNL     1      74.927  64.324 114.611  0.00  0.00    +0.000 C 
ATOM     40  C31 UNL     1      75.388  65.419 115.576  0.00  0.00    +0.000 C 
ATOM     41  C32 UNL     1      75.426  62.928 115.050  0.00  0.00    +0.000 C 
ATOM     42  C40 UNL     1      75.042  61.835 114.012  0.00  0.00    +0.000 C 
ATOM     43  C41 UNL     1      75.176  62.329 112.533  0.00  0.00    +0.000 C 
BRANCH  42  44
ATOM     44  N2  UNL     1      73.762  61.143 114.350  0.00  0.00    +0.000 NA
ATOM     45  C42 UNL     1      73.697  59.712 114.017  0.00  0.00    +0.000 C 
ATOM     46  C43 UNL     1      73.369  61.360 115.757  0.00  0.00    +0.000 C 
ENDBRANCH  42  44
BRANCH  43  47
ATOM     47  O13 UNL     1      76.508  62.160 112.110  0.00  0.00    +0.000 OA
ATOM     48  H67 UNL     1      77.032  61.881 112.906  0.00  0.00    +0.000 HD
ENDBRANCH  43  47
BRANCH  41  49
ATOM     49  O9  UNL     1      76.848  62.967 115.127  0.00  0.00    +0.000 OA
BRANCH  49  50
ATOM     50  C33 UNL     1      77.434  61.737 115.512  0.00  0.00    +0.000 C 
ATOM     51  C34 UNL     1      78.970  61.907 115.532  0.00  0.00    +0.000 C 
ATOM     52  C35 UNL     1      79.656  61.014 116.605  0.00  0.00    +0.000 C 
ATOM     53  C36 UNL     1      79.820  61.804 117.922  0.00  0.00    +0.000 C 
ATOM     54  C37 UNL     1      78.801  59.739 116.850  0.00  0.00    +0.000 C 
ATOM     55  C38 UNL     1      77.339  60.126 117.235  0.00  0.00    +0.000 C 
ATOM     56  C39 UNL     1      76.289  59.084 116.824  0.00  0.00    +0.000 C 
ATOM     57  O12 UNL     1      76.952  61.427 116.807  0.00  0.00    +0.000 OA
BRANCH  52  58
ATOM     58  O10 UNL     1      80.954  60.655 116.188  0.00  0.00    +0.000 OA
ATOM     59  H58 UNL     1      81.572  61.412 116.362  0.00  0.00    +0.000 HD
ENDBRANCH  52  58
BRANCH  54  60
ATOM     60  O11 UNL     1      78.802  58.935 115.693  0.00  0.00    +0.000 OA
ATOM     61  H60 UNL     1      79.717  58.963 115.309  0.00  0.00    +0.000 HD
ENDBRANCH  54  60
ENDBRANCH  49  50
ENDBRANCH  41  49
ENDBRANCH  36  37
ENDBRANCH  19  36
BRANCH   2  62
ATOM     62  O14 UNL     1      73.462  61.670 108.892  0.00  0.00    +0.000 OA
BRANCH  62  63
ATOM     63  C44 UNL     1      74.227  60.553 109.251  0.00  0.00    +0.000 C 
ATOM     64  C45 UNL     1      73.597  59.203 109.251  0.00  0.00    +0.000 C 
ATOM     65  O15 UNL     1      75.427  60.676 109.612  0.00  0.00    +0.000 OA
ENDBRANCH  62  63
ENDBRANCH   2  62
TORSDOF 16
ENDMDL
MODEL 3
REMARK VINA RESULT:      -7.6      3.919     11.023
REMARK  Name = ./S3618.pdb
REMARK  28 active torsions:
REMARK  status: ('A' for Active; 'I' for Inactive)
REMARK    1  A    between atoms: C1_1  and  O1_2
REMARK    2  A    between atoms: O1_2  and  C2_3
REMARK    3  A    between atoms: C3_4  and  O14_59
REMARK    4  A    between atoms: C6_9  and  C7_10
REMARK    5  A    between atoms: C13_16  and  O4_17
REMARK    6  A    between atoms: O4_17  and  C14_18
REMARK    7  A    between atoms: C17_21  and  N1_25
REMARK    8  A    between atoms: C18_22  and  C19_23
REMARK    9  A    between atoms: N1_25  and  C20_26
REMARK   10  A    between atoms: N1_25  and  C21_27
REMARK   11  A    between atoms: C22_28  and  C23_29
REMARK   12  A    between atoms: C25_31  and  C26_32
REMARK   13  A    between atoms: C26_32  and  C27_33
REMARK   14  A    between atoms: C28_35  and  O7_36
REMARK   15  A    between atoms: O7_36  and  C29_37
REMARK   16  A    between atoms: C30_39  and  C31_40
REMARK   17  A    between atoms: C32_41  and  O9_42
REMARK   18  A    between atoms: O9_42  and  C33_43
REMARK   19  A    between atoms: C35_45  and  C36_46
REMARK   20  A    between atoms: C35_45  and  O10_47
REMARK   21  A    between atoms: C37_48  and  O11_49
REMARK   22  A    between atoms: C38_50  and  C39_51
REMARK   23  A    between atoms: C40_53  and  N2_56
REMARK   24  A    between atoms: C41_54  and  O13_55
REMARK   25  A    between atoms: N2_56  and  C42_57
REMARK   26  A    between atoms: N2_56  and  C43_58
REMARK   27  A    between atoms: O14_59  and  C44_60
REMARK   28  A    between atoms: C44_60  and  C45_61
REMARK                            x       y       z     vdW  Elec       q    Type
REMARK                         _______ _______ _______ _____ _____    ______ ____
ROOT
ATOM      1  C2  UNL     1      74.988  61.062 103.870  0.00  0.00    +0.000 C 
ATOM      2  C3  UNL     1      74.087  62.078 104.622  0.00  0.00    +0.000 C 
ATOM      3  C4  UNL     1      73.784  61.554 106.046  0.00  0.00    +0.000 C 
ATOM      4  C5  UNL     1      73.023  62.506 106.924  0.00  0.00    +0.000 C 
ATOM      5  O2  UNL     1      72.741  62.150 108.102  0.00  0.00    +0.000 OA
ATOM      6  O3  UNL     1      72.584  63.744 106.440  0.00  0.00    +0.000 OA
ATOM      7  C6  UNL     1      71.557  64.512 107.075  0.00  0.00    +0.000 C 
ATOM      8  C7  UNL     1      71.585  65.940 106.529  0.00  0.00    +0.000 C 
ATOM      9  C8  UNL     1      70.180  63.853 106.852  0.00  0.00    +0.000 C 
ATOM     10  C9  UNL     1      70.022  63.374 105.433  0.00  0.00    +0.000 C 
ATOM     11  C10 UNL     1      70.221  62.087 105.118  0.00  0.00    +0.000 C 
ATOM     12  C11 UNL     1      70.254  61.566 103.737  0.00  0.00    +0.000 C 
ATOM     13  C12 UNL     1      70.550  62.315 102.663  0.00  0.00    +0.000 C 
ATOM     14  C13 UNL     1      70.645  61.761 101.259  0.00  0.00    +0.000 C 
ATOM     15  C22 UNL     1      72.123  61.841 100.745  0.00  0.00    +0.000 C 
ATOM     16  C23 UNL     1      72.115  61.840  99.196  0.00  0.00    +0.000 C 
ATOM     17  C24 UNL     1      72.965  60.674 101.346  0.00  0.00    +0.000 C 
ATOM     18  C25 UNL     1      74.529  60.691 101.274  0.00  0.00    +0.000 C 
ATOM     19  C28 UNL     1      75.309  61.474 102.390  0.00  0.00    +0.000 C 
ENDROOT
BRANCH   1  21
ATOM     20  C1  UNL     1      75.342  58.814 104.397  0.00  0.00    +0.000 C 
ATOM     21  O1  UNL     1      74.407  59.767 103.935  0.00  0.00    +0.000 OA
ENDBRANCH   1  21
BRANCH  14  22
ATOM     22  O4  UNL     1      70.170  60.415 101.232  0.00  0.00    +0.000 OA
BRANCH  22  23
ATOM     23  C14 UNL     1      69.587  60.035  99.995  0.00  0.00    +0.000 C 
ATOM     24  C15 UNL     1      68.408  60.996  99.719  0.00  0.00    +0.000 C 
ATOM     25  C16 UNL     1      67.076  60.315 100.010  0.00  0.00    +0.000 C 
ATOM     26  C17 UNL     1      66.911  59.063  99.112  0.00  0.00    +0.000 C 
ATOM     27  C18 UNL     1      68.262  58.262  99.096  0.00  0.00    +0.000 C 
ATOM     28  C19 UNL     1      68.921  58.230  97.706  0.00  0.00    +0.000 C 
ATOM     29  O5  UNL     1      69.171  58.680 100.104  0.00  0.00    +0.000 OA
BRANCH  26  30
ATOM     30  N1  UNL     1      65.783  58.187  99.555  0.00  0.00    +0.000 NA
ATOM     31  C20 UNL     1      66.121  56.748  99.516  0.00  0.00    +0.000 C 
ATOM     32  C21 UNL     1      65.369  58.516 100.938  0.00  0.00    +0.000 C 
ENDBRANCH  26  30
ENDBRANCH  22  23
ENDBRANCH  14  22
BRANCH  18  33
ATOM     33  C26 UNL     1      75.114  60.923  99.846  0.00  0.00    +0.000 C 
BRANCH  33  34
ATOM     34  C27 UNL     1      75.499  59.686  99.072  0.00  0.00    +0.000 C 
ATOM     35  O6  UNL     1      76.622  59.527  98.620  0.00  0.00    +0.000 OA
ENDBRANCH  33  34
ENDBRANCH  18  33
BRANCH  19  36
ATOM     36  O7  UNL     1      76.685  61.168 102.187  0.00  0.00    +0.000 OA
BRANCH  36  37
ATOM     37  C29 UNL     1      77.601  62.149 102.644  0.00  0.00    +0.000 C 
ATOM     38  O8  UNL     1      78.734  62.066 101.797  0.00  0.00    +0.000 OA
ATOM     39  C30 UNL     1      79.666  63.076 102.113  0.00  0.00    +0.000 C 
ATOM     40  C31 UNL     1      80.696  63.158 100.984  0.00  0.00    +0.000 C 
ATOM     41  C32 UNL     1      80.330  62.757 103.472  0.00  0.00    +0.000 C 
ATOM     42  C40 UNL     1      79.269  62.574 104.594  0.00  0.00    +0.000 C 
ATOM     43  C41 UNL     1      77.993  61.813 104.105  0.00  0.00    +0.000 C 
BRANCH  42  44
ATOM     44  N2  UNL     1      79.019  63.831 105.361  0.00  0.00    +0.000 NA
ATOM     45  C42 UNL     1      78.094  63.718 106.499  0.00  0.00    +0.000 C 
ATOM     46  C43 UNL     1      80.275  64.482 105.786  0.00  0.00    +0.000 C 
ENDBRANCH  42  44
BRANCH  43  47
ATOM     47  O13 UNL     1      78.221  60.427 104.194  0.00  0.00    +0.000 OA
ATOM     48  H67 UNL     1      77.615  60.078 104.900  0.00  0.00    +0.000 HD
ENDBRANCH  43  47
BRANCH  41  49
ATOM     49  O9  UNL     1      81.037  61.528 103.344  0.00  0.00    +0.000 OA
BRANCH  49  50
ATOM     50  C33 UNL     1      81.659  61.098 104.542  0.00  0.00    +0.000 C 
ATOM     51  C34 UNL     1      81.161  59.673 104.872  0.00  0.00    +0.000 C 
ATOM     52  C35 UNL     1      82.234  58.820 105.608  0.00  0.00    +0.000 C 
ATOM     53  C36 UNL     1      83.054  58.006 104.583  0.00  0.00    +0.000 C 
ATOM     54  C37 UNL     1      83.173  59.752 106.426  0.00  0.00    +0.000 C 
ATOM     55  C38 UNL     1      83.800  60.843 105.502  0.00  0.00    +0.000 C 
ATOM     56  C39 UNL     1      84.132  62.155 106.225  0.00  0.00    +0.000 C 
ATOM     57  O12 UNL     1      83.056  61.095 104.315  0.00  0.00    +0.000 OA
BRANCH  52  58
ATOM     58  O10 UNL     1      81.617  57.884 106.462  0.00  0.00    +0.000 OA
ATOM     59  H58 UNL     1      80.644  58.074 106.504  0.00  0.00    +0.000 HD
ENDBRANCH  52  58
BRANCH  54  60
ATOM     60  O11 UNL     1      82.450  60.358 107.472  0.00  0.00    +0.000 OA
ATOM     61  H60 UNL     1      82.802  59.997 108.327  0.00  0.00    +0.000 HD
ENDBRANCH  54  60
ENDBRANCH  49  50
ENDBRANCH  41  49
ENDBRANCH  36  37
ENDBRANCH  19  36
BRANCH   2  62
ATOM     62  O14 UNL     1      74.769  63.334 104.728  0.00  0.00    +0.000 OA
BRANCH  62  63
ATOM     63  C44 UNL     1      74.522  64.437 103.901  0.00  0.00    +0.000 C 
ATOM     64  C45 UNL     1      75.623  65.401 103.618  0.00  0.00    +0.000 C 
ATOM     65  O15 UNL     1      73.376  64.650 103.426  0.00  0.00    +0.000 OA
ENDBRANCH  62  63
ENDBRANCH   2  62
TORSDOF 16
ENDMDL
MODEL 4
REMARK VINA RESULT:      -7.5      4.252     10.263
REMARK  Name = ./S3618.pdb
REMARK  28 active torsions:
REMARK  status: ('A' for Active; 'I' for Inactive)
REMARK    1  A    between atoms: C1_1  and  O1_2
REMARK    2  A    between atoms: O1_2  and  C2_3
REMARK    3  A    between atoms: C3_4  and  O14_59
REMARK    4  A    between atoms: C6_9  and  C7_10
REMARK    5  A    between atoms: C13_16  and  O4_17
REMARK    6  A    between atoms: O4_17  and  C14_18
REMARK    7  A    between atoms: C17_21  and  N1_25
REMARK    8  A    between atoms: C18_22  and  C19_23
REMARK    9  A    between atoms: N1_25  and  C20_26
REMARK   10  A    between atoms: N1_25  and  C21_27
REMARK   11  A    between atoms: C22_28  and  C23_29
REMARK   12  A    between atoms: C25_31  and  C26_32
REMARK   13  A    between atoms: C26_32  and  C27_33
REMARK   14  A    between atoms: C28_35  and  O7_36
REMARK   15  A    between atoms: O7_36  and  C29_37
REMARK   16  A    between atoms: C30_39  and  C31_40
REMARK   17  A    between atoms: C32_41  and  O9_42
REMARK   18  A    between atoms: O9_42  and  C33_43
REMARK   19  A    between atoms: C35_45  and  C36_46
REMARK   20  A    between atoms: C35_45  and  O10_47
REMARK   21  A    between atoms: C37_48  and  O11_49
REMARK   22  A    between atoms: C38_50  and  C39_51
REMARK   23  A    between atoms: C40_53  and  N2_56
REMARK   24  A    between atoms: C41_54  and  O13_55
REMARK   25  A    between atoms: N2_56  and  C42_57
REMARK   26  A    between atoms: N2_56  and  C43_58
REMARK   27  A    between atoms: O14_59  and  C44_60
REMARK   28  A    between atoms: C44_60  and  C45_61
REMARK                            x       y       z     vdW  Elec       q    Type
REMARK                         _______ _______ _______ _____ _____    ______ ____
ROOT
ATOM      1  C2  UNL     1      74.992  61.132 103.669  0.00  0.00    +0.000 C 
ATOM      2  C3  UNL     1      74.120  62.148 104.454  0.00  0.00    +0.000 C 
ATOM      3  C4  UNL     1      73.887  61.631 105.894  0.00  0.00    +0.000 C 
ATOM      4  C5  UNL     1      73.161  62.584 106.800  0.00  0.00    +0.000 C 
ATOM      5  O2  UNL     1      72.936  62.234 107.993  0.00  0.00    +0.000 OA
ATOM      6  O3  UNL     1      72.691  63.816 106.329  0.00  0.00    +0.000 OA
ATOM      7  C6  UNL     1      71.689  64.581 107.007  0.00  0.00    +0.000 C 
ATOM      8  C7  UNL     1      71.682  66.006 106.451  0.00  0.00    +0.000 C 
ATOM      9  C8  UNL     1      70.309  63.912 106.852  0.00  0.00    +0.000 C 
ATOM     10  C9  UNL     1      70.088  63.422 105.445  0.00  0.00    +0.000 C 
ATOM     11  C10 UNL     1      70.281  62.134 105.129  0.00  0.00    +0.000 C 
ATOM     12  C11 UNL     1      70.254  61.604 103.752  0.00  0.00    +0.000 C 
ATOM     13  C12 UNL     1      70.494  62.347 102.661  0.00  0.00    +0.000 C 
ATOM     14  C13 UNL     1      70.528  61.784 101.257  0.00  0.00    +0.000 C 
ATOM     15  C22 UNL     1      71.980  61.871 100.675  0.00  0.00    +0.000 C 
ATOM     16  C23 UNL     1      71.900  61.859  99.128  0.00  0.00    +0.000 C 
ATOM     17  C24 UNL     1      72.857  60.713 101.243  0.00  0.00    +0.000 C 
ATOM     18  C25 UNL     1      74.416  60.740 101.099  0.00  0.00    +0.000 C 
ATOM     19  C28 UNL     1      75.242  61.536 102.173  0.00  0.00    +0.000 C 
ENDROOT
BRANCH   1  21
ATOM     20  C1  UNL     1      75.398  58.881 104.140  0.00  0.00    +0.000 C 
ATOM     21  O1  UNL     1      74.424  59.834 103.769  0.00  0.00    +0.000 OA
ENDBRANCH   1  21
BRANCH  14  22
ATOM     22  O4  UNL     1      70.062  60.435 101.261  0.00  0.00    +0.000 OA
BRANCH  22  23
ATOM     23  C14 UNL     1      69.489  60.021 100.030  0.00  0.00    +0.000 C 
ATOM     24  C15 UNL     1      68.274  60.934  99.749  0.00  0.00    +0.000 C 
ATOM     25  C16 UNL     1      66.969  60.209 100.052  0.00  0.00    +0.000 C 
ATOM     26  C17 UNL     1      66.847  58.942  99.168  0.00  0.00    +0.000 C 
ATOM     27  C18 UNL     1      68.226  58.190  99.156  0.00  0.00    +0.000 C 
ATOM     28  C19 UNL     1      68.881  58.168  97.764  0.00  0.00    +0.000 C 
ATOM     29  O5  UNL     1      69.122  58.652 100.155  0.00  0.00    +0.000 OA
BRANCH  26  30
ATOM     30  N1  UNL     1      65.753  58.030  99.625  0.00  0.00    +0.000 NA
ATOM     31  C20 UNL     1      65.995  56.616  99.267  0.00  0.00    +0.000 C 
ATOM     32  C21 UNL     1      65.585  58.101 101.094  0.00  0.00    +0.000 C 
ENDBRANCH  26  30
ENDBRANCH  22  23
ENDBRANCH  14  22
BRANCH  18  33
ATOM     33  C26 UNL     1      74.933  60.966  99.644  0.00  0.00    +0.000 C 
BRANCH  33  34
ATOM     34  C27 UNL     1      75.428  59.743  98.913  0.00  0.00    +0.000 C 
ATOM     35  O6  UNL     1      76.603  59.596  98.616  0.00  0.00    +0.000 OA
ENDBRANCH  33  34
ENDBRANCH  18  33
BRANCH  19  36
ATOM     36  O7  UNL     1      76.608  61.238 101.908  0.00  0.00    +0.000 OA
BRANCH  36  37
ATOM     37  C29 UNL     1      77.505  62.330 102.029  0.00  0.00    +0.000 C 
ATOM     38  O8  UNL     1      76.842  63.457 101.484  0.00  0.00    +0.000 OA
ATOM     39  C30 UNL     1      77.621  64.620 101.650  0.00  0.00    +0.000 C 
ATOM     40  C31 UNL     1      76.745  65.840 101.356  0.00  0.00    +0.000 C 
ATOM     41  C32 UNL     1      78.848  64.558 100.711  0.00  0.00    +0.000 C 
ATOM     42  C40 UNL     1      79.678  63.263 100.946  0.00  0.00    +0.000 C 
ATOM     43  C41 UNL     1      78.783  62.008 101.215  0.00  0.00    +0.000 C 
BRANCH  42  44
ATOM     44  N2  UNL     1      80.808  63.469 101.901  0.00  0.00    +0.000 NA
ATOM     45  C42 UNL     1      81.023  64.852 102.355  0.00  0.00    +0.000 C 
ATOM     46  C43 UNL     1      80.730  62.557 103.059  0.00  0.00    +0.000 C 
ENDBRANCH  42  44
BRANCH  43  47
ATOM     47  O13 UNL     1      78.393  61.448  99.984  0.00  0.00    +0.000 OA
ATOM     48  H67 UNL     1      78.816  61.995  99.269  0.00  0.00    +0.000 HD
ENDBRANCH  43  47
BRANCH  41  49
ATOM     49  O9  UNL     1      78.378  64.528  99.367  0.00  0.00    +0.000 OA
BRANCH  49  50
ATOM     50  C33 UNL     1      78.753  65.661  98.605  0.00  0.00    +0.000 C 
ATOM     51  C34 UNL     1      80.073  65.345  97.867  0.00  0.00    +0.000 C 
ATOM     52  C35 UNL     1      80.184  66.078  96.499  0.00  0.00    +0.000 C 
ATOM     53  C36 UNL     1      79.649  65.170  95.370  0.00  0.00    +0.000 C 
ATOM     54  C37 UNL     1      79.375  67.404  96.549  0.00  0.00    +0.000 C 
ATOM     55  C38 UNL     1      77.896  67.128  96.965  0.00  0.00    +0.000 C 
ATOM     56  C39 UNL     1      77.228  68.295  97.704  0.00  0.00    +0.000 C 
ATOM     57  O12 UNL     1      77.713  65.909  97.676  0.00  0.00    +0.000 OA
BRANCH  52  58
ATOM     58  O10 UNL     1      81.534  66.344  96.193  0.00  0.00    +0.000 OA
ATOM     59  H58 UNL     1      82.095  66.136  96.986  0.00  0.00    +0.000 HD
ENDBRANCH  52  58
BRANCH  54  60
ATOM     60  O11 UNL     1      79.977  68.297  97.458  0.00  0.00    +0.000 OA
ATOM     61  H60 UNL     1      80.956  68.277  97.293  0.00  0.00    +0.000 HD
ENDBRANCH  54  60
ENDBRANCH  49  50
ENDBRANCH  41  49
ENDBRANCH  36  37
ENDBRANCH  19  36
BRANCH   2  62
ATOM     62  O14 UNL     1      74.797  63.409 104.521  0.00  0.00    +0.000 OA
BRANCH  62  63
ATOM     63  C44 UNL     1      74.372  64.567 103.859  0.00  0.00    +0.000 C 
ATOM     64  C45 UNL     1      74.775  65.902 104.387  0.00  0.00    +0.000 C 
ATOM     65  O15 UNL     1      73.621  64.502 102.851  0.00  0.00    +0.000 OA
ENDBRANCH  62  63
ENDBRANCH   2  62
TORSDOF 16
ENDMDL
MODEL 5
REMARK VINA RESULT:      -7.4      2.528     12.339
REMARK  Name = ./S3618.pdb
REMARK  28 active torsions:
REMARK  status: ('A' for Active; 'I' for Inactive)
REMARK    1  A    between atoms: C1_1  and  O1_2
REMARK    2  A    between atoms: O1_2  and  C2_3
REMARK    3  A    between atoms: C3_4  and  O14_59
REMARK    4  A    between atoms: C6_9  and  C7_10
REMARK    5  A    between atoms: C13_16  and  O4_17
REMARK    6  A    between atoms: O4_17  and  C14_18
REMARK    7  A    between atoms: C17_21  and  N1_25
REMARK    8  A    between atoms: C18_22  and  C19_23
REMARK    9  A    between atoms: N1_25  and  C20_26
REMARK   10  A    between atoms: N1_25  and  C21_27
REMARK   11  A    between atoms: C22_28  and  C23_29
REMARK   12  A    between atoms: C25_31  and  C26_32
REMARK   13  A    between atoms: C26_32  and  C27_33
REMARK   14  A    between atoms: C28_35  and  O7_36
REMARK   15  A    between atoms: O7_36  and  C29_37
REMARK   16  A    between atoms: C30_39  and  C31_40
REMARK   17  A    between atoms: C32_41  and  O9_42
REMARK   18  A    between atoms: O9_42  and  C33_43
REMARK   19  A    between atoms: C35_45  and  C36_46
REMARK   20  A    between atoms: C35_45  and  O10_47
REMARK   21  A    between atoms: C37_48  and  O11_49
REMARK   22  A    between atoms: C38_50  and  C39_51
REMARK   23  A    between atoms: C40_53  and  N2_56
REMARK   24  A    between atoms: C41_54  and  O13_55
REMARK   25  A    between atoms: N2_56  and  C42_57
REMARK   26  A    between atoms: N2_56  and  C43_58
REMARK   27  A    between atoms: O14_59  and  C44_60
REMARK   28  A    between atoms: C44_60  and  C45_61
REMARK                            x       y       z     vdW  Elec       q    Type
REMARK                         _______ _______ _______ _____ _____    ______ ____
ROOT
ATOM      1  C2  UNL     1      73.665  64.043 108.949  0.00  0.00    +0.000 C 
ATOM      2  C3  UNL     1      74.432  65.035 108.036  0.00  0.00    +0.000 C 
ATOM      3  C4  UNL     1      73.719  66.409 108.044  0.00  0.00    +0.000 C 
ATOM      4  C5  UNL     1      74.434  67.498 107.296  0.00  0.00    +0.000 C 
ATOM      5  O2  UNL     1      73.915  68.649 107.260  0.00  0.00    +0.000 OA
ATOM      6  O3  UNL     1      75.624  67.242 106.605  0.00  0.00    +0.000 OA
ATOM      7  C6  UNL     1      76.138  68.108 105.587  0.00  0.00    +0.000 C 
ATOM      8  C7  UNL     1      77.600  67.750 105.313  0.00  0.00    +0.000 C 
ATOM      9  C8  UNL     1      75.285  67.996 104.308  0.00  0.00    +0.000 C 
ATOM     10  C9  UNL     1      74.935  66.563 104.002  0.00  0.00    +0.000 C 
ATOM     11  C10 UNL     1      73.740  66.062 104.339  0.00  0.00    +0.000 C 
ATOM     12  C11 UNL     1      73.378  64.634 104.233  0.00  0.00    +0.000 C 
ATOM     13  C12 UNL     1      74.273  63.634 104.239  0.00  0.00    +0.000 C 
ATOM     14  C13 UNL     1      73.891  62.171 104.194  0.00  0.00    +0.000 C 
ATOM     15  C22 UNL     1      74.272  61.471 105.543  0.00  0.00    +0.000 C 
ATOM     16  C23 UNL     1      74.430  59.951 105.291  0.00  0.00    +0.000 C 
ATOM     17  C24 UNL     1      73.206  61.795 106.636  0.00  0.00    +0.000 C 
ATOM     18  C25 UNL     1      73.493  61.509 108.148  0.00  0.00    +0.000 C 
ATOM     19  C28 UNL     1      74.276  62.597 108.967  0.00  0.00    +0.000 C 
ENDROOT
BRANCH   1  21
ATOM     20  C1  UNL     1      71.483  64.516 109.636  0.00  0.00    +0.000 C 
ATOM     21  O1  UNL     1      72.292  64.022 108.588  0.00  0.00    +0.000 OA
ENDBRANCH   1  21
BRANCH  14  22
ATOM     22  O4  UNL     1      72.495  62.039 103.929  0.00  0.00    +0.000 OA
BRANCH  22  23
ATOM     23  C14 UNL     1      72.159  62.135 102.553  0.00  0.00    +0.000 C 
ATOM     24  C15 UNL     1      70.811  62.884 102.452  0.00  0.00    +0.000 C 
ATOM     25  C16 UNL     1      69.671  61.914 102.172  0.00  0.00    +0.000 C 
ATOM     26  C17 UNL     1      69.921  61.170 100.837  0.00  0.00    +0.000 C 
ATOM     27  C18 UNL     1      71.424  60.718 100.775  0.00  0.00    +0.000 C 
ATOM     28  C19 UNL     1      72.212  61.415  99.652  0.00  0.00    +0.000 C 
ATOM     29  O5  UNL     1      72.088  60.815 102.026  0.00  0.00    +0.000 OA
BRANCH  26  30
ATOM     30  N1  UNL     1      69.010  59.998 100.655  0.00  0.00    +0.000 NA
ATOM     31  C20 UNL     1      67.647  60.386 100.236  0.00  0.00    +0.000 C 
ATOM     32  C21 UNL     1      69.546  59.064  99.638  0.00  0.00    +0.000 C 
ENDBRANCH  26  30
ENDBRANCH  22  23
ENDBRANCH  14  22
BRANCH  18  33
ATOM     33  C26 UNL     1      73.967  60.056 108.459  0.00  0.00    +0.000 C 
BRANCH  33  34
ATOM     34  C27 UNL     1      72.887  59.059 108.802  0.00  0.00    +0.000 C 
ATOM     35  O6  UNL     1      72.728  58.641 109.938  0.00  0.00    +0.000 OA
ENDBRANCH  33  34
ENDBRANCH  18  33
BRANCH  19  36
ATOM     36  O7  UNL     1      74.229  62.168 110.324  0.00  0.00    +0.000 OA
BRANCH  36  37
ATOM     37  C29 UNL     1      75.073  62.874 111.218  0.00  0.00    +0.000 C 
ATOM     38  O8  UNL     1      76.380  62.363 111.025  0.00  0.00    +0.000 OA
ATOM     39  C30 UNL     1      77.313  63.077 111.804  0.00  0.00    +0.000 C 
ATOM     40  C31 UNL     1      78.722  62.721 111.325  0.00  0.00    +0.000 C 
ATOM     41  C32 UNL     1      77.112  62.728 113.297  0.00  0.00    +0.000 C 
ATOM     42  C40 UNL     1      75.649  62.996 113.751  0.00  0.00    +0.000 C 
ATOM     43  C41 UNL     1      74.594  62.602 112.665  0.00  0.00    +0.000 C 
BRANCH  42  44
ATOM     44  N2  UNL     1      75.474  64.349 114.362  0.00  0.00    +0.000 NA
ATOM     45  C42 UNL     1      74.361  65.154 113.836  0.00  0.00    +0.000 C 
ATOM     46  C43 UNL     1      75.410  64.288 115.836  0.00  0.00    +0.000 C 
ENDBRANCH  42  44
BRANCH  43  47
ATOM     47  O13 UNL     1      74.302  61.230 112.784  0.00  0.00    +0.000 OA
ATOM     48  H67 UNL     1      73.773  60.975 111.982  0.00  0.00    +0.000 HD
ENDBRANCH  43  47
BRANCH  41  49
ATOM     49  O9  UNL     1      77.366  61.337 113.467  0.00  0.00    +0.000 OA
BRANCH  49  50
ATOM     50  C33 UNL     1      78.348  61.051 114.447  0.00  0.00    +0.000 C 
ATOM     51  C34 UNL     1      78.701  62.359 115.190  0.00  0.00    +0.000 C 
ATOM     52  C35 UNL     1      79.098  62.115 116.674  0.00  0.00    +0.000 C 
ATOM     53  C36 UNL     1      77.856  62.251 117.582  0.00  0.00    +0.000 C 
ATOM     54  C37 UNL     1      79.718  60.697 116.824  0.00  0.00    +0.000 C 
ATOM     55  C38 UNL     1      78.739  59.611 116.277  0.00  0.00    +0.000 C 
ATOM     56  C39 UNL     1      79.440  58.361 115.729  0.00  0.00    +0.000 C 
ATOM     57  O12 UNL     1      77.788  60.107 115.342  0.00  0.00    +0.000 OA
BRANCH  52  58
ATOM     58  O10 UNL     1      80.017  63.094 117.104  0.00  0.00    +0.000 OA
ATOM     59  H58 UNL     1      80.850  62.647 117.406  0.00  0.00    +0.000 HD
ENDBRANCH  52  58
BRANCH  54  60
ATOM     60  O11 UNL     1      80.945  60.638 116.133  0.00  0.00    +0.000 OA
ATOM     61  H60 UNL     1      81.585  61.229 116.609  0.00  0.00    +0.000 HD
ENDBRANCH  54  60
ENDBRANCH  49  50
ENDBRANCH  41  49
ENDBRANCH  36  37
ENDBRANCH  19  36
BRANCH   2  62
ATOM     62  O14 UNL     1      75.767  65.205 108.529  0.00  0.00    +0.000 OA
BRANCH  62  63
ATOM     63  C44 UNL     1      76.902  64.628 107.946  0.00  0.00    +0.000 C 
ATOM     64  C45 UNL     1      76.786  63.973 106.612  0.00  0.00    +0.000 C 
ATOM     65  O15 UNL     1      78.008  64.617 108.547  0.00  0.00    +0.000 OA
ENDBRANCH  62  63
ENDBRANCH   2  62
TORSDOF 16
ENDMDL
MODEL 6
REMARK VINA RESULT:      -7.4      2.730     11.455
REMARK  Name = ./S3618.pdb
REMARK  28 active torsions:
REMARK  status: ('A' for Active; 'I' for Inactive)
REMARK    1  A    between atoms: C1_1  and  O1_2
REMARK    2  A    between atoms: O1_2  and  C2_3
REMARK    3  A    between atoms: C3_4  and  O14_59
REMARK    4  A    between atoms: C6_9  and  C7_10
REMARK    5  A    between atoms: C13_16  and  O4_17
REMARK    6  A    between atoms: O4_17  and  C14_18
REMARK    7  A    between atoms: C17_21  and  N1_25
REMARK    8  A    between atoms: C18_22  and  C19_23
REMARK    9  A    between atoms: N1_25  and  C20_26
REMARK   10  A    between atoms: N1_25  and  C21_27
REMARK   11  A    between atoms: C22_28  and  C23_29
REMARK   12  A    between atoms: C25_31  and  C26_32
REMARK   13  A    between atoms: C26_32  and  C27_33
REMARK   14  A    between atoms: C28_35  and  O7_36
REMARK   15  A    between atoms: O7_36  and  C29_37
REMARK   16  A    between atoms: C30_39  and  C31_40
REMARK   17  A    between atoms: C32_41  and  O9_42
REMARK   18  A    between atoms: O9_42  and  C33_43
REMARK   19  A    between atoms: C35_45  and  C36_46
REMARK   20  A    between atoms: C35_45  and  O10_47
REMARK   21  A    between atoms: C37_48  and  O11_49
REMARK   22  A    between atoms: C38_50  and  C39_51
REMARK   23  A    between atoms: C40_53  and  N2_56
REMARK   24  A    between atoms: C41_54  and  O13_55
REMARK   25  A    between atoms: N2_56  and  C42_57
REMARK   26  A    between atoms: N2_56  and  C43_58
REMARK   27  A    between atoms: O14_59  and  C44_60
REMARK   28  A    between atoms: C44_60  and  C45_61
REMARK                            x       y       z     vdW  Elec       q    Type
REMARK                         _______ _______ _______ _____ _____    ______ ____
ROOT
ATOM      1  C2  UNL     1      76.653  59.988 103.841  0.00  0.00    +0.000 C 
ATOM      2  C3  UNL     1      76.386  58.464 103.719  0.00  0.00    +0.000 C 
ATOM      3  C4  UNL     1      77.689  57.738 103.308  0.00  0.00    +0.000 C 
ATOM      4  C5  UNL     1      77.598  56.239 103.278  0.00  0.00    +0.000 C 
ATOM      5  O2  UNL     1      78.622  55.575 102.954  0.00  0.00    +0.000 OA
ATOM      6  O3  UNL     1      76.392  55.581 103.550  0.00  0.00    +0.000 OA
ATOM      7  C6  UNL     1      76.141  54.222 103.176  0.00  0.00    +0.000 C 
ATOM      8  C7  UNL     1      74.917  53.709 103.936  0.00  0.00    +0.000 C 
ATOM      9  C8  UNL     1      75.940  54.115 101.652  0.00  0.00    +0.000 C 
ATOM     10  C9  UNL     1      75.078  55.233 101.129  0.00  0.00    +0.000 C 
ATOM     11  C10 UNL     1      75.626  56.314 100.558  0.00  0.00    +0.000 C 
ATOM     12  C11 UNL     1      74.872  57.524 100.176  0.00  0.00    +0.000 C 
ATOM     13  C12 UNL     1      73.709  57.887 100.736  0.00  0.00    +0.000 C 
ATOM     14  C13 UNL     1      72.974  59.162 100.384  0.00  0.00    +0.000 C 
ATOM     15  C22 UNL     1      72.968  60.138 101.609  0.00  0.00    +0.000 C 
ATOM     16  C23 UNL     1      71.777  61.118 101.463  0.00  0.00    +0.000 C 
ATOM     17  C24 UNL     1      74.341  60.870 101.721  0.00  0.00    +0.000 C 
ATOM     18  C25 UNL     1      74.736  61.645 103.023  0.00  0.00    +0.000 C 
ATOM     19  C28 UNL     1      75.376  60.827 104.201  0.00  0.00    +0.000 C 
ENDROOT
BRANCH   1  21
ATOM     20  C1  UNL     1      78.422  61.225 102.949  0.00  0.00    +0.000 C 
ATOM     21  O1  UNL     1      77.269  60.463 102.653  0.00  0.00    +0.000 OA
ENDBRANCH   1  21
BRANCH  14  22
ATOM     22  O4  UNL     1      73.580  59.777  99.247  0.00  0.00    +0.000 OA
BRANCH  22  23
ATOM     23  C14 UNL     1      72.766  59.765  98.085  0.00  0.00    +0.000 C 
ATOM     24  C15 UNL     1      72.507  61.234  97.680  0.00  0.00    +0.000 C 
ATOM     25  C16 UNL     1      71.101  61.665  98.078  0.00  0.00    +0.000 C 
ATOM     26  C17 UNL     1      70.050  60.768  97.376  0.00  0.00    +0.000 C 
ATOM     27  C18 UNL     1      70.512  59.269  97.468  0.00  0.00    +0.000 C 
ATOM     28  C19 UNL     1      70.831  58.658  96.093  0.00  0.00    +0.000 C 
ATOM     29  O5  UNL     1      71.567  59.066  98.395  0.00  0.00    +0.000 OA
BRANCH  26  30
ATOM     30  N1  UNL     1      68.680  60.934  97.952  0.00  0.00    +0.000 NA
ATOM     31  C20 UNL     1      67.758  59.843  97.571  0.00  0.00    +0.000 C 
ATOM     32  C21 UNL     1      68.731  60.985  99.431  0.00  0.00    +0.000 C 
ENDBRANCH  26  30
ENDBRANCH  22  23
ENDBRANCH  14  22
BRANCH  18  33
ATOM     33  C26 UNL     1      73.680  62.686 103.508  0.00  0.00    +0.000 C 
BRANCH  33  34
ATOM     34  C27 UNL     1      74.015  64.138 103.273  0.00  0.00    +0.000 C 
ATOM     35  O6  UNL     1      73.860  64.987 104.136  0.00  0.00    +0.000 OA
ENDBRANCH  33  34
ENDBRANCH  18  33
BRANCH  19  36
ATOM     36  O7  UNL     1      75.799  61.794 105.157  0.00  0.00    +0.000 OA
BRANCH  36  37
ATOM     37  C29 UNL     1      75.492  61.490 106.508  0.00  0.00    +0.000 C 
ATOM     38  O8  UNL     1      74.122  61.133 106.540  0.00  0.00    +0.000 OA
ATOM     39  C30 UNL     1      73.746  60.715 107.832  0.00  0.00    +0.000 C 
ATOM     40  C31 UNL     1      72.377  60.037 107.747  0.00  0.00    +0.000 C 
ATOM     41  C32 UNL     1      73.720  61.937 108.781  0.00  0.00    +0.000 C 
ATOM     42  C40 UNL     1      75.085  62.682 108.784  0.00  0.00    +0.000 C 
ATOM     43  C41 UNL     1      75.740  62.757 107.365  0.00  0.00    +0.000 C 
BRANCH  42  44
ATOM     44  N2  UNL     1      75.985  62.232 109.889  0.00  0.00    +0.000 NA
ATOM     45  C42 UNL     1      77.272  62.935 109.998  0.00  0.00    +0.000 C 
ATOM     46  C43 UNL     1      75.296  62.222 111.196  0.00  0.00    +0.000 C 
ENDBRANCH  42  44
BRANCH  43  47
ATOM     47  O13 UNL     1      75.218  63.867 106.674  0.00  0.00    +0.000 OA
ATOM     48  H67 UNL     1      75.042  63.572 105.742  0.00  0.00    +0.000 HD
ENDBRANCH  43  47
BRANCH  41  49
ATOM     49  O9  UNL     1      72.734  62.848 108.306  0.00  0.00    +0.000 OA
BRANCH  49  50
ATOM     50  C33 UNL     1      72.725  64.088 108.990  0.00  0.00    +0.000 C 
ATOM     51  C34 UNL     1      72.519  65.219 107.958  0.00  0.00    +0.000 C 
ATOM     52  C35 UNL     1      71.743  66.432 108.547  0.00  0.00    +0.000 C 
ATOM     53  C36 UNL     1      70.231  66.274 108.275  0.00  0.00    +0.000 C 
ATOM     54  C37 UNL     1      72.005  66.528 110.077  0.00  0.00    +0.000 C 
ATOM     55  C38 UNL     1      71.640  65.182 110.779  0.00  0.00    +0.000 C 
ATOM     56  C39 UNL     1      72.459  64.899 112.047  0.00  0.00    +0.000 C 
ATOM     57  O12 UNL     1      71.650  64.054 109.911  0.00  0.00    +0.000 OA
BRANCH  52  58
ATOM     58  O10 UNL     1      72.142  67.626 107.912  0.00  0.00    +0.000 OA
ATOM     59  H58 UNL     1      73.080  67.829 108.162  0.00  0.00    +0.000 HD
ENDBRANCH  52  58
BRANCH  54  60
ATOM     60  O11 UNL     1      73.357  66.847 110.311  0.00  0.00    +0.000 OA
ATOM     61  H60 UNL     1      73.582  67.628 109.741  0.00  0.00    +0.000 HD
ENDBRANCH  54  60
ENDBRANCH  49  50
ENDBRANCH  41  49
ENDBRANCH  36  37
ENDBRANCH  19  36
BRANCH   2  62
ATOM     62  O14 UNL     1      75.953  57.951 104.986  0.00  0.00    +0.000 OA
BRANCH  62  63
ATOM     63  C44 UNL     1      74.628  57.614 105.287  0.00  0.00    +0.000 C 
ATOM     64  C45 UNL     1      73.615  57.579 104.195  0.00  0.00    +0.000 C 
ATOM     65  O15 UNL     1      74.269  57.379 106.471  0.00  0.00    +0.000 OA
ENDBRANCH  62  63
ENDBRANCH   2  62
TORSDOF 16
ENDMDL
MODEL 7
REMARK VINA RESULT:      -7.3      4.184     11.136
REMARK  Name = ./S3618.pdb
REMARK  28 active torsions:
REMARK  status: ('A' for Active; 'I' for Inactive)
REMARK    1  A    between atoms: C1_1  and  O1_2
REMARK    2  A    between atoms: O1_2  and  C2_3
REMARK    3  A    between atoms: C3_4  and  O14_59
REMARK    4  A    between atoms: C6_9  and  C7_10
REMARK    5  A    between atoms: C13_16  and  O4_17
REMARK    6  A    between atoms: O4_17  and  C14_18
REMARK    7  A    between atoms: C17_21  and  N1_25
REMARK    8  A    between atoms: C18_22  and  C19_23
REMARK    9  A    between atoms: N1_25  and  C20_26
REMARK   10  A    between atoms: N1_25  and  C21_27
REMARK   11  A    between atoms: C22_28  and  C23_29
REMARK   12  A    between atoms: C25_31  and  C26_32
REMARK   13  A    between atoms: C26_32  and  C27_33
REMARK   14  A    between atoms: C28_35  and  O7_36
REMARK   15  A    between atoms: O7_36  and  C29_37
REMARK   16  A    between atoms: C30_39  and  C31_40
REMARK   17  A    between atoms: C32_41  and  O9_42
REMARK   18  A    between atoms: O9_42  and  C33_43
REMARK   19  A    between atoms: C35_45  and  C36_46
REMARK   20  A    between atoms: C35_45  and  O10_47
REMARK   21  A    between atoms: C37_48  and  O11_49
REMARK   22  A    between atoms: C38_50  and  C39_51
REMARK   23  A    between atoms: C40_53  and  N2_56
REMARK   24  A    between atoms: C41_54  and  O13_55
REMARK   25  A    between atoms: N2_56  and  C42_57
REMARK   26  A    between atoms: N2_56  and  C43_58
REMARK   27  A    between atoms: O14_59  and  C44_60
REMARK   28  A    between atoms: C44_60  and  C45_61
REMARK                            x       y       z     vdW  Elec       q    Type
REMARK                         _______ _______ _______ _____ _____    ______ ____
ROOT
ATOM      1  C2  UNL     1      72.945  64.078 106.881  0.00  0.00    +0.000 C 
ATOM      2  C3  UNL     1      74.018  64.792 106.018  0.00  0.00    +0.000 C 
ATOM      3  C4  UNL     1      73.345  65.873 105.138  0.00  0.00    +0.000 C 
ATOM      4  C5  UNL     1      74.293  66.726 104.345  0.00  0.00    +0.000 C 
ATOM      5  O2  UNL     1      73.819  67.632 103.604  0.00  0.00    +0.000 OA
ATOM      6  O3  UNL     1      75.674  66.496 104.376  0.00  0.00    +0.000 OA
ATOM      7  C6  UNL     1      76.573  67.001 103.383  0.00  0.00    +0.000 C 
ATOM      8  C7  UNL     1      78.007  66.897 103.904  0.00  0.00    +0.000 C 
ATOM      9  C8  UNL     1      76.399  66.227 102.061  0.00  0.00    +0.000 C 
ATOM     10  C9  UNL     1      76.265  64.747 102.301  0.00  0.00    +0.000 C 
ATOM     11  C10 UNL     1      75.060  64.161 102.315  0.00  0.00    +0.000 C 
ATOM     12  C11 UNL     1      74.824  62.758 102.709  0.00  0.00    +0.000 C 
ATOM     13  C12 UNL     1      75.643  62.059 103.510  0.00  0.00    +0.000 C 
ATOM     14  C13 UNL     1      75.362  60.642 103.961  0.00  0.00    +0.000 C 
ATOM     15  C22 UNL     1      75.103  60.609 105.506  0.00  0.00    +0.000 C 
ATOM     16  C23 UNL     1      75.398  59.182 106.032  0.00  0.00    +0.000 C 
ATOM     17  C24 UNL     1      73.649  61.079 105.819  0.00  0.00    +0.000 C 
ATOM     18  C25 UNL     1      73.223  61.459 107.276  0.00  0.00    +0.000 C 
ATOM     19  C28 UNL     1      73.518  62.920 107.773  0.00  0.00    +0.000 C 
ENDROOT
BRANCH   1  21
ATOM     20  C1  UNL     1      70.631  63.991 106.576  0.00  0.00    +0.000 C 
ATOM     21  O1  UNL     1      71.888  63.619 106.050  0.00  0.00    +0.000 OA
ENDBRANCH   1  21
BRANCH  14  22
ATOM     22  O4  UNL     1      74.243  60.115 103.248  0.00  0.00    +0.000 OA
BRANCH  22  23
ATOM     23  C14 UNL     1      74.579  59.084 102.332  0.00  0.00    +0.000 C 
ATOM     24  C15 UNL     1      73.695  57.860 102.661  0.00  0.00    +0.000 C 
ATOM     25  C16 UNL     1      74.493  56.801 103.410  0.00  0.00    +0.000 C 
ATOM     26  C17 UNL     1      75.688  56.326 102.546  0.00  0.00    +0.000 C 
ATOM     27  C18 UNL     1      76.382  57.577 101.898  0.00  0.00    +0.000 C 
ATOM     28  C19 UNL     1      76.267  57.595 100.364  0.00  0.00    +0.000 C 
ATOM     29  O5  UNL     1      75.967  58.806 102.474  0.00  0.00    +0.000 OA
BRANCH  26  30
ATOM     30  N1  UNL     1      76.677  55.522 103.330  0.00  0.00    +0.000 NA
ATOM     31  C20 UNL     1      77.653  56.360 104.058  0.00  0.00    +0.000 C 
ATOM     32  C21 UNL     1      75.991  54.664 104.323  0.00  0.00    +0.000 C 
ENDBRANCH  26  30
ENDBRANCH  22  23
ENDBRANCH  14  22
BRANCH  18  33
ATOM     33  C26 UNL     1      73.540  60.375 108.352  0.00  0.00    +0.000 C 
BRANCH  33  34
ATOM     34  C27 UNL     1      72.577  59.216 108.439  0.00  0.00    +0.000 C 
ATOM     35  O6  UNL     1      72.531  58.483 109.414  0.00  0.00    +0.000 OA
ENDBRANCH  33  34
ENDBRANCH  18  33
BRANCH  19  36
ATOM     36  O7  UNL     1      72.869  63.038 109.034  0.00  0.00    +0.000 OA
BRANCH  36  37
ATOM     37  C29 UNL     1      73.545  63.829 109.998  0.00  0.00    +0.000 C 
ATOM     38  O8  UNL     1      73.999  62.939 111.002  0.00  0.00    +0.000 OA
ATOM     39  C30 UNL     1      74.775  63.623 111.959  0.00  0.00    +0.000 C 
ATOM     40  C31 UNL     1      75.506  62.591 112.822  0.00  0.00    +0.000 C 
ATOM     41  C32 UNL     1      73.858  64.532 112.810  0.00  0.00    +0.000 C 
ATOM     42  C40 UNL     1      73.041  65.509 111.918  0.00  0.00    +0.000 C 
ATOM     43  C41 UNL     1      72.540  64.846 110.591  0.00  0.00    +0.000 C 
BRANCH  42  44
ATOM     44  N2  UNL     1      73.702  66.841 111.766  0.00  0.00    +0.000 NA
ATOM     45  C42 UNL     1      74.791  67.130 112.711  0.00  0.00    +0.000 C 
ATOM     46  C43 UNL     1      74.149  67.084 110.380  0.00  0.00    +0.000 C 
ENDBRANCH  42  44
BRANCH  43  47
ATOM     47  O13 UNL     1      71.328  64.175 110.842  0.00  0.00    +0.000 OA
ATOM     48  H67 UNL     1      71.190  64.183 111.826  0.00  0.00    +0.000 HD
ENDBRANCH  43  47
BRANCH  41  49
ATOM     49  O9  UNL     1      72.929  63.704 113.503  0.00  0.00    +0.000 OA
BRANCH  49  50
ATOM     50  C33 UNL     1      72.772  64.041 114.869  0.00  0.00    +0.000 C 
ATOM     51  C34 UNL     1      72.489  62.748 115.667  0.00  0.00    +0.000 C 
ATOM     52  C35 UNL     1      73.047  62.807 117.118  0.00  0.00    +0.000 C 
ATOM     53  C36 UNL     1      74.468  62.204 117.161  0.00  0.00    +0.000 C 
ATOM     54  C37 UNL     1      73.077  64.282 117.608  0.00  0.00    +0.000 C 
ATOM     55  C38 UNL     1      73.888  65.172 116.615  0.00  0.00    +0.000 C 
ATOM     56  C39 UNL     1      73.429  66.636 116.573  0.00  0.00    +0.000 C 
ATOM     57  O12 UNL     1      73.982  64.636 115.300  0.00  0.00    +0.000 OA
BRANCH  52  58
ATOM     58  O10 UNL     1      72.254  62.025 117.981  0.00  0.00    +0.000 OA
ATOM     59  H58 UNL     1      71.997  61.186 117.517  0.00  0.00    +0.000 HD
ENDBRANCH  52  58
BRANCH  54  60
ATOM     60  O11 UNL     1      71.761  64.769 117.734  0.00  0.00    +0.000 OA
ATOM     61  H60 UNL     1      71.244  64.438 116.954  0.00  0.00    +0.000 HD
ENDBRANCH  54  60
ENDBRANCH  49  50
ENDBRANCH  41  49
ENDBRANCH  36  37
ENDBRANCH  19  36
BRANCH   2  62
ATOM     62  O14 UNL     1      74.977  65.426 106.874  0.00  0.00    +0.000 OA
BRANCH  62  63
ATOM     63  C44 UNL     1      76.162  64.823 107.312  0.00  0.00    +0.000 C 
ATOM     64  C45 UNL     1      76.893  63.898 106.400  0.00  0.00    +0.000 C 
ATOM     65  O15 UNL     1      76.598  65.015 108.478  0.00  0.00    +0.000 OA
ENDBRANCH  62  63
ENDBRANCH   2  62
TORSDOF 16
ENDMDL
MODEL 8
REMARK VINA RESULT:      -7.3      4.304     10.487
REMARK  Name = ./S3618.pdb
REMARK  28 active torsions:
REMARK  status: ('A' for Active; 'I' for Inactive)
REMARK    1  A    between atoms: C1_1  and  O1_2
REMARK    2  A    between atoms: O1_2  and  C2_3
REMARK    3  A    between atoms: C3_4  and  O14_59
REMARK    4  A    between atoms: C6_9  and  C7_10
REMARK    5  A    between atoms: C13_16  and  O4_17
REMARK    6  A    between atoms: O4_17  and  C14_18
REMARK    7  A    between atoms: C17_21  and  N1_25
REMARK    8  A    between atoms: C18_22  and  C19_23
REMARK    9  A    between atoms: N1_25  and  C20_26
REMARK   10  A    between atoms: N1_25  and  C21_27
REMARK   11  A    between atoms: C22_28  and  C23_29
REMARK   12  A    between atoms: C25_31  and  C26_32
REMARK   13  A    between atoms: C26_32  and  C27_33
REMARK   14  A    between atoms: C28_35  and  O7_36
REMARK   15  A    between atoms: O7_36  and  C29_37
REMARK   16  A    between atoms: C30_39  and  C31_40
REMARK   17  A    between atoms: C32_41  and  O9_42
REMARK   18  A    between atoms: O9_42  and  C33_43
REMARK   19  A    between atoms: C35_45  and  C36_46
REMARK   20  A    between atoms: C35_45  and  O10_47
REMARK   21  A    between atoms: C37_48  and  O11_49
REMARK   22  A    between atoms: C38_50  and  C39_51
REMARK   23  A    between atoms: C40_53  and  N2_56
REMARK   24  A    between atoms: C41_54  and  O13_55
REMARK   25  A    between atoms: N2_56  and  C42_57
REMARK   26  A    between atoms: N2_56  and  C43_58
REMARK   27  A    between atoms: O14_59  and  C44_60
REMARK   28  A    between atoms: C44_60  and  C45_61
REMARK                            x       y       z     vdW  Elec       q    Type
REMARK                         _______ _______ _______ _____ _____    ______ ____
ROOT
ATOM      1  C2  UNL     1      75.502  61.180 104.351  0.00  0.00    +0.000 C 
ATOM      2  C3  UNL     1      74.458  62.140 104.980  0.00  0.00    +0.000 C 
ATOM      3  C4  UNL     1      74.006  61.591 106.355  0.00  0.00    +0.000 C 
ATOM      4  C5  UNL     1      73.088  62.494 107.128  0.00  0.00    +0.000 C 
ATOM      5  O2  UNL     1      72.678  62.116 108.261  0.00  0.00    +0.000 OA
ATOM      6  O3  UNL     1      72.646  63.709 106.591  0.00  0.00    +0.000 OA
ATOM      7  C6  UNL     1      71.505  64.415 107.090  0.00  0.00    +0.000 C 
ATOM      8  C7  UNL     1      71.524  65.846 106.551  0.00  0.00    +0.000 C 
ATOM      9  C8  UNL     1      70.207  63.684 106.694  0.00  0.00    +0.000 C 
ATOM     10  C9  UNL     1      70.257  63.205 105.268  0.00  0.00    +0.000 C 
ATOM     11  C10 UNL     1      70.565  61.933 104.981  0.00  0.00    +0.000 C 
ATOM     12  C11 UNL     1      70.803  61.424 103.616  0.00  0.00    +0.000 C 
ATOM     13  C12 UNL     1      71.190  62.194 102.588  0.00  0.00    +0.000 C 
ATOM     14  C13 UNL     1      71.494  61.655 101.207  0.00  0.00    +0.000 C 
ATOM     15  C22 UNL     1      73.018  61.820 100.886  0.00  0.00    +0.000 C 
ATOM     16  C23 UNL     1      73.207  61.828  99.348  0.00  0.00    +0.000 C 
ATOM     17  C24 UNL     1      73.841  60.696 101.589  0.00  0.00    +0.000 C 
ATOM     18  C25 UNL     1      75.398  60.800 101.717  0.00  0.00    +0.000 C 
ATOM     19  C28 UNL     1      75.985  61.618 102.923  0.00  0.00    +0.000 C 
ENDROOT
BRANCH   1  21
ATOM     20  C1  UNL     1      75.919  58.948 104.899  0.00  0.00    +0.000 C 
ATOM     21  O1  UNL     1      74.990  59.855 104.342  0.00  0.00    +0.000 OA
ENDBRANCH   1  21
BRANCH  14  22
ATOM     22  O4  UNL     1      71.102  60.285 101.121  0.00  0.00    +0.000 OA
BRANCH  22  23
ATOM     23  C14 UNL     1      70.095  60.034 100.152  0.00  0.00    +0.000 C 
ATOM     24  C15 UNL     1      70.520  58.785  99.349  0.00  0.00    +0.000 C 
ATOM     25  C16 UNL     1      71.065  59.180  97.982  0.00  0.00    +0.000 C 
ATOM     26  C17 UNL     1      69.982  59.939  97.176  0.00  0.00    +0.000 C 
ATOM     27  C18 UNL     1      69.278  60.982  98.116  0.00  0.00    +0.000 C 
ATOM     28  C19 UNL     1      67.792  60.664  98.353  0.00  0.00    +0.000 C 
ATOM     29  O5  UNL     1      69.975  61.192  99.335  0.00  0.00    +0.000 OA
BRANCH  26  30
ATOM     30  N1  UNL     1      70.540  60.614  95.964  0.00  0.00    +0.000 NA
ATOM     31  C20 UNL     1      71.995  60.403  95.804  0.00  0.00    +0.000 C 
ATOM     32  C21 UNL     1      69.876  60.126  94.733  0.00  0.00    +0.000 C 
ENDBRANCH  26  30
ENDBRANCH  22  23
ENDBRANCH  14  22
BRANCH  18  33
ATOM     33  C26 UNL     1      76.146  61.072 100.376  0.00  0.00    +0.000 C 
BRANCH  33  34
ATOM     34  C27 UNL     1      76.467  59.864  99.531  0.00  0.00    +0.000 C 
ATOM     35  O6  UNL     1      75.678  59.414  98.716  0.00  0.00    +0.000 OA
ENDBRANCH  33  34
ENDBRANCH  18  33
BRANCH  19  36
ATOM     36  O7  UNL     1      77.390  61.390 102.897  0.00  0.00    +0.000 OA
BRANCH  36  37
ATOM     37  C29 UNL     1      78.199  62.551 102.987  0.00  0.00    +0.000 C 
ATOM     38  O8  UNL     1      77.439  63.614 102.441  0.00  0.00    +0.000 OA
ATOM     39  C30 UNL     1      78.125  64.838 102.578  0.00  0.00    +0.000 C 
ATOM     40  C31 UNL     1      77.149  65.979 102.285  0.00  0.00    +0.000 C 
ATOM     41  C32 UNL     1      79.336  64.860 101.617  0.00  0.00    +0.000 C 
ATOM     42  C40 UNL     1      80.271  63.640 101.853  0.00  0.00    +0.000 C 
ATOM     43  C41 UNL     1      79.484  62.321 102.154  0.00  0.00    +0.000 C 
BRANCH  42  44
ATOM     44  N2  UNL     1      81.397  63.948 102.784  0.00  0.00    +0.000 NA
ATOM     45  C42 UNL     1      82.452  62.927 102.879  0.00  0.00    +0.000 C 
ATOM     46  C43 UNL     1      81.990  65.274 102.518  0.00  0.00    +0.000 C 
ENDBRANCH  42  44
BRANCH  43  47
ATOM     47  O13 UNL     1      79.119  61.714 100.937  0.00  0.00    +0.000 OA
ATOM     48  H67 UNL     1      79.613  60.854 100.882  0.00  0.00    +0.000 HD
ENDBRANCH  43  47
BRANCH  41  49
ATOM     49  O9  UNL     1      78.846  64.775 100.283  0.00  0.00    +0.000 OA
BRANCH  49  50
ATOM     50  C33 UNL     1      79.711  65.347  99.318  0.00  0.00    +0.000 C 
ATOM     51  C34 UNL     1      79.454  64.663  97.957  0.00  0.00    +0.000 C 
ATOM     52  C35 UNL     1      79.692  65.619  96.753  0.00  0.00    +0.000 C 
ATOM     53  C36 UNL     1      78.368  66.306  96.355  0.00  0.00    +0.000 C 
ATOM     54  C37 UNL     1      80.756  66.687  97.135  0.00  0.00    +0.000 C 
ATOM     55  C38 UNL     1      80.327  67.446  98.431  0.00  0.00    +0.000 C 
ATOM     56  C39 UNL     1      81.505  67.964  99.268  0.00  0.00    +0.000 C 
ATOM     57  O12 UNL     1      79.407  66.728  99.246  0.00  0.00    +0.000 OA
BRANCH  52  58
ATOM     58  O10 UNL     1      80.121  64.891  95.625  0.00  0.00    +0.000 OA
ATOM     59  H58 UNL     1      80.512  65.518  94.962  0.00  0.00    +0.000 HD
ENDBRANCH  52  58
BRANCH  54  60
ATOM     60  O11 UNL     1      82.007  66.068  97.326  0.00  0.00    +0.000 OA
ATOM     61  H60 UNL     1      82.174  66.027  98.304  0.00  0.00    +0.000 HD
ENDBRANCH  54  60
ENDBRANCH  49  50
ENDBRANCH  41  49
ENDBRANCH  36  37
ENDBRANCH  19  36
BRANCH   2  62
ATOM     62  O14 UNL     1      75.050  63.431 105.172  0.00  0.00    +0.000 OA
BRANCH  62  63
ATOM     63  C44 UNL     1      74.616  64.599 104.533  0.00  0.00    +0.000 C 
ATOM     64  C45 UNL     1      73.801  64.494 103.290  0.00  0.00    +0.000 C 
ATOM     65  O15 UNL     1      74.937  65.736 104.968  0.00  0.00    +0.000 OA
ENDBRANCH  62  63
ENDBRANCH   2  62
TORSDOF 16
ENDMDL
MODEL 9
REMARK VINA RESULT:      -7.2      4.365     11.506
REMARK  Name = ./S3618.pdb
REMARK  28 active torsions:
REMARK  status: ('A' for Active; 'I' for Inactive)
REMARK    1  A    between atoms: C1_1  and  O1_2
REMARK    2  A    between atoms: O1_2  and  C2_3
REMARK    3  A    between atoms: C3_4  and  O14_59
REMARK    4  A    between atoms: C6_9  and  C7_10
REMARK    5  A    between atoms: C13_16  and  O4_17
REMARK    6  A    between atoms: O4_17  and  C14_18
REMARK    7  A    between atoms: C17_21  and  N1_25
REMARK    8  A    between atoms: C18_22  and  C19_23
REMARK    9  A    between atoms: N1_25  and  C20_26
REMARK   10  A    between atoms: N1_25  and  C21_27
REMARK   11  A    between atoms: C22_28  and  C23_29
REMARK   12  A    between atoms: C25_31  and  C26_32
REMARK   13  A    between atoms: C26_32  and  C27_33
REMARK   14  A    between atoms: C28_35  and  O7_36
REMARK   15  A    between atoms: O7_36  and  C29_37
REMARK   16  A    between atoms: C30_39  and  C31_40
REMARK   17  A    between atoms: C32_41  and  O9_42
REMARK   18  A    between atoms: O9_42  and  C33_43
REMARK   19  A    between atoms: C35_45  and  C36_46
REMARK   20  A    between atoms: C35_45  and  O10_47
REMARK   21  A    between atoms: C37_48  and  O11_49
REMARK   22  A    between atoms: C38_50  and  C39_51
REMARK   23  A    between atoms: C40_53  and  N2_56
REMARK   24  A    between atoms: C41_54  and  O13_55
REMARK   25  A    between atoms: N2_56  and  C42_57
REMARK   26  A    between atoms: N2_56  and  C43_58
REMARK   27  A    between atoms: O14_59  and  C44_60
REMARK   28  A    between atoms: C44_60  and  C45_61
REMARK                            x       y       z     vdW  Elec       q    Type
REMARK                         _______ _______ _______ _____ _____    ______ ____
ROOT
ATOM      1  C2  UNL     1      75.451  60.798 104.296  0.00  0.00    +0.000 C 
ATOM      2  C3  UNL     1      74.461  61.834 104.893  0.00  0.00    +0.000 C 
ATOM      3  C4  UNL     1      73.950  61.335 106.265  0.00  0.00    +0.000 C 
ATOM      4  C5  UNL     1      73.079  62.308 107.009  0.00  0.00    +0.000 C 
ATOM      5  O2  UNL     1      72.625  61.974 108.139  0.00  0.00    +0.000 OA
ATOM      6  O3  UNL     1      72.728  63.541 106.447  0.00  0.00    +0.000 OA
ATOM      7  C6  UNL     1      71.627  64.327 106.915  0.00  0.00    +0.000 C 
ATOM      8  C7  UNL     1      71.749  65.746 106.357  0.00  0.00    +0.000 C 
ATOM      9  C8  UNL     1      70.291  63.676 106.504  0.00  0.00    +0.000 C 
ATOM     10  C9  UNL     1      70.335  63.174 105.085  0.00  0.00    +0.000 C 
ATOM     11  C10 UNL     1      70.564  61.881 104.822  0.00  0.00    +0.000 C 
ATOM     12  C11 UNL     1      70.793  61.337 103.469  0.00  0.00    +0.000 C 
ATOM     13  C12 UNL     1      71.248  62.065 102.438  0.00  0.00    +0.000 C 
ATOM     14  C13 UNL     1      71.541  61.487 101.071  0.00  0.00    +0.000 C 
ATOM     15  C22 UNL     1      73.078  61.547 100.776  0.00  0.00    +0.000 C 
ATOM     16  C23 UNL     1      73.295  61.520  99.243  0.00  0.00    +0.000 C 
ATOM     17  C24 UNL     1      73.813  60.383 101.510  0.00  0.00    +0.000 C 
ATOM     18  C25 UNL     1      75.370  60.387 101.666  0.00  0.00    +0.000 C 
ATOM     19  C28 UNL     1      75.988  61.182 102.872  0.00  0.00    +0.000 C 
ENDROOT
BRANCH   1  21
ATOM     20  C1  UNL     1      75.720  58.549 104.865  0.00  0.00    +0.000 C 
ATOM     21  O1  UNL     1      74.855  59.509 104.296  0.00  0.00    +0.000 OA
ENDBRANCH   1  21
BRANCH  14  22
ATOM     22  O4  UNL     1      71.061  60.144 100.996  0.00  0.00    +0.000 OA
BRANCH  22  23
ATOM     23  C14 UNL     1      70.077  59.940  99.994  0.00  0.00    +0.000 C 
ATOM     24  C15 UNL     1      70.492  58.696  99.177  0.00  0.00    +0.000 C 
ATOM     25  C16 UNL     1      71.087  59.103  97.835  0.00  0.00    +0.000 C 
ATOM     26  C17 UNL     1      70.048  59.906  97.014  0.00  0.00    +0.000 C 
ATOM     27  C18 UNL     1      69.344  60.949  97.956  0.00  0.00    +0.000 C 
ATOM     28  C19 UNL     1      67.844  60.666  98.143  0.00  0.00    +0.000 C 
ATOM     29  O5  UNL     1      70.011  61.116  99.198  0.00  0.00    +0.000 OA
BRANCH  26  30
ATOM     30  N1  UNL     1      70.658  60.591  95.832  0.00  0.00    +0.000 NA
ATOM     31  C20 UNL     1      70.255  59.987  94.544  0.00  0.00    +0.000 C 
ATOM     32  C21 UNL     1      70.279  62.022  95.797  0.00  0.00    +0.000 C 
ENDBRANCH  26  30
ENDBRANCH  22  23
ENDBRANCH  14  22
BRANCH  18  33
ATOM     33  C26 UNL     1      76.159  60.590 100.336  0.00  0.00    +0.000 C 
BRANCH  33  34
ATOM     34  C27 UNL     1      76.446  59.346  99.531  0.00  0.00    +0.000 C 
ATOM     35  O6  UNL     1      76.658  59.386  98.330  0.00  0.00    +0.000 OA
ENDBRANCH  33  34
ENDBRANCH  18  33
BRANCH  19  36
ATOM     36  O7  UNL     1      77.375  60.863 102.876  0.00  0.00    +0.000 OA
BRANCH  36  37
ATOM     37  C29 UNL     1      78.236  61.885 103.349  0.00  0.00    +0.000 C 
ATOM     38  O8  UNL     1      79.165  62.142 102.310  0.00  0.00    +0.000 OA
ATOM     39  C30 UNL     1      80.006  63.221 102.650  0.00  0.00    +0.000 C 
ATOM     40  C31 UNL     1      80.755  63.670 101.394  0.00  0.00    +0.000 C 
ATOM     41  C32 UNL     1      80.979  62.783 103.769  0.00  0.00    +0.000 C 
ATOM     42  C40 UNL     1      80.212  62.231 105.005  0.00  0.00    +0.000 C 
ATOM     43  C41 UNL     1      78.968  61.367 104.612  0.00  0.00    +0.000 C 
BRANCH  42  44
ATOM     44  N2  UNL     1      79.972  63.274 106.047  0.00  0.00    +0.000 NA
ATOM     45  C42 UNL     1      78.564  63.570 106.350  0.00  0.00    +0.000 C 
ATOM     46  C43 UNL     1      80.716  62.996 107.292  0.00  0.00    +0.000 C 
ENDBRANCH  42  44
BRANCH  43  47
ATOM     47  O13 UNL     1      79.384  60.044 104.370  0.00  0.00    +0.000 OA
ATOM     48  H67 UNL     1      78.589  59.461 104.503  0.00  0.00    +0.000 HD
ENDBRANCH  43  47
BRANCH  41  49
ATOM     49  O9  UNL     1      81.793  61.729 103.264  0.00  0.00    +0.000 OA
BRANCH  49  50
ATOM     50  C33 UNL     1      82.779  61.281 104.175  0.00  0.00    +0.000 C 
ATOM     51  C34 UNL     1      82.831  59.737 104.127  0.00  0.00    +0.000 C 
ATOM     52  C35 UNL     1      84.255  59.178 104.411  0.00  0.00    +0.000 C 
ATOM     53  C36 UNL     1      85.017  58.977 103.083  0.00  0.00    +0.000 C 
ATOM     54  C37 UNL     1      85.031  60.163 105.330  0.00  0.00    +0.000 C 
ATOM     55  C38 UNL     1      85.060  61.591 104.700  0.00  0.00    +0.000 C 
ATOM     56  C39 UNL     1      85.139  62.725 105.731  0.00  0.00    +0.000 C 
ATOM     57  O12 UNL     1      84.017  61.832 103.763  0.00  0.00    +0.000 OA
BRANCH  52  58
ATOM     58  O10 UNL     1      84.171  57.909 105.021  0.00  0.00    +0.000 OA
ATOM     59  H58 UNL     1      83.458  57.381 104.576  0.00  0.00    +0.000 HD
ENDBRANCH  52  58
BRANCH  54  60
ATOM     60  O11 UNL     1      84.426  60.205 106.602  0.00  0.00    +0.000 OA
ATOM     61  H60 UNL     1      84.900  59.552 107.180  0.00  0.00    +0.000 HD
ENDBRANCH  54  60
ENDBRANCH  49  50
ENDBRANCH  41  49
ENDBRANCH  36  37
ENDBRANCH  19  36
BRANCH   2  62
ATOM     62  O14 UNL     1      75.134  63.086 105.077  0.00  0.00    +0.000 OA
BRANCH  62  63
ATOM     63  C44 UNL     1      75.139  64.123 104.137  0.00  0.00    +0.000 C 
ATOM     64  C45 UNL     1      73.884  64.453 103.404  0.00  0.00    +0.000 C 
ATOM     65  O15 UNL     1      76.195  64.754 103.870  0.00  0.00    +0.000 OA
ENDBRANCH  62  63
ENDBRANCH   2  62
TORSDOF 16
ENDMDL
MODEL 10
REMARK VINA RESULT:      -7.2      3.205     11.698
REMARK  Name = ./S3618.pdb
REMARK  28 active torsions:
REMARK  status: ('A' for Active; 'I' for Inactive)
REMARK    1  A    between atoms: C1_1  and  O1_2
REMARK    2  A    between atoms: O1_2  and  C2_3
REMARK    3  A    between atoms: C3_4  and  O14_59
REMARK    4  A    between atoms: C6_9  and  C7_10
REMARK    5  A    between atoms: C13_16  and  O4_17
REMARK    6  A    between atoms: O4_17  and  C14_18
REMARK    7  A    between atoms: C17_21  and  N1_25
REMARK    8  A    between atoms: C18_22  and  C19_23
REMARK    9  A    between atoms: N1_25  and  C20_26
REMARK   10  A    between atoms: N1_25  and  C21_27
REMARK   11  A    between atoms: C22_28  and  C23_29
REMARK   12  A    between atoms: C25_31  and  C26_32
REMARK   13  A    between atoms: C26_32  and  C27_33
REMARK   14  A    between atoms: C28_35  and  O7_36
REMARK   15  A    between atoms: O7_36  and  C29_37
REMARK   16  A    between atoms: C30_39  and  C31_40
REMARK   17  A    between atoms: C32_41  and  O9_42
REMARK   18  A    between atoms: O9_42  and  C33_43
REMARK   19  A    between atoms: C35_45  and  C36_46
REMARK   20  A    between atoms: C35_45  and  O10_47
REMARK   21  A    between atoms: C37_48  and  O11_49
REMARK   22  A    between atoms: C38_50  and  C39_51
REMARK   23  A    between atoms: C40_53  and  N2_56
REMARK   24  A    between atoms: C41_54  and  O13_55
REMARK   25  A    between atoms: N2_56  and  C42_57
REMARK   26  A    between atoms: N2_56  and  C43_58
REMARK   27  A    between atoms: O14_59  and  C44_60
REMARK   28  A    between atoms: C44_60  and  C45_61
REMARK                            x       y       z     vdW  Elec       q    Type
REMARK                         _______ _______ _______ _____ _____    ______ ____
ROOT
ATOM      1  C2  UNL     1      73.158  63.600 106.997  0.00  0.00    +0.000 C 
ATOM      2  C3  UNL     1      74.178  64.216 106.003  0.00  0.00    +0.000 C 
ATOM      3  C4  UNL     1      73.506  65.361 105.208  0.00  0.00    +0.000 C 
ATOM      4  C5  UNL     1      74.424  66.126 104.298  0.00  0.00    +0.000 C 
ATOM      5  O2  UNL     1      73.949  67.077 103.617  0.00  0.00    +0.000 OA
ATOM      6  O3  UNL     1      75.771  65.766 104.159  0.00  0.00    +0.000 OA
ATOM      7  C6  UNL     1      76.583  66.190 103.059  0.00  0.00    +0.000 C 
ATOM      8  C7  UNL     1      78.055  65.949 103.398  0.00  0.00    +0.000 C 
ATOM      9  C8  UNL     1      76.174  65.445 101.773  0.00  0.00    +0.000 C 
ATOM     10  C9  UNL     1      75.932  63.982 102.037  0.00  0.00    +0.000 C 
ATOM     11  C10 UNL     1      74.689  63.512 102.203  0.00  0.00    +0.000 C 
ATOM     12  C11 UNL     1      74.372  62.135 102.632  0.00  0.00    +0.000 C 
ATOM     13  C12 UNL     1      75.214  61.357 103.328  0.00  0.00    +0.000 C 
ATOM     14  C13 UNL     1      74.859  59.971 103.819  0.00  0.00    +0.000 C 
ATOM     15  C22 UNL     1      74.793  59.952 105.384  0.00  0.00    +0.000 C 
ATOM     16  C23 UNL     1      75.015  58.501 105.877  0.00  0.00    +0.000 C 
ATOM     17  C24 UNL     1      73.439  60.555 105.872  0.00  0.00    +0.000 C 
ATOM     18  C25 UNL     1      73.235  60.965 107.369  0.00  0.00    +0.000 C 
ATOM     19  C28 UNL     1      73.725  62.388 107.817  0.00  0.00    +0.000 C 
ENDROOT
BRANCH   1  21
ATOM     20  C1  UNL     1      70.833  63.812 106.931  0.00  0.00    +0.000 C 
ATOM     21  O1  UNL     1      71.968  63.248 106.307  0.00  0.00    +0.000 OA
ENDBRANCH   1  21
BRANCH  14  22
ATOM     22  O4  UNL     1      73.616  59.556 103.253  0.00  0.00    +0.000 OA
BRANCH  22  23
ATOM     23  C14 UNL     1      73.724  58.436 102.387  0.00  0.00    +0.000 C 
ATOM     24  C15 UNL     1      75.148  58.443 101.789  0.00  0.00    +0.000 C 
ATOM     25  C16 UNL     1      75.130  58.949 100.352  0.00  0.00    +0.000 C 
ATOM     26  C17 UNL     1      74.234  58.036  99.478  0.00  0.00    +0.000 C 
ATOM     27  C18 UNL     1      72.908  57.720 100.258  0.00  0.00    +0.000 C 
ATOM     28  C19 UNL     1      72.765  56.229 100.612  0.00  0.00    +0.000 C 
ATOM     29  O5  UNL     1      72.715  58.554 101.391  0.00  0.00    +0.000 OA
BRANCH  26  30
ATOM     30  N1  UNL     1      73.929  58.642  98.145  0.00  0.00    +0.000 NA
ATOM     31  C20 UNL     1      74.164  57.711  97.020  0.00  0.00    +0.000 C 
ATOM     32  C21 UNL     1      72.517  59.084  98.076  0.00  0.00    +0.000 C 
ENDBRANCH  26  30
ENDBRANCH  22  23
ENDBRANCH  14  22
BRANCH  18  33
ATOM     33  C26 UNL     1      73.579  59.849 108.404  0.00  0.00    +0.000 C 
BRANCH  33  34
ATOM     34  C27 UNL     1      72.510  58.814 108.653  0.00  0.00    +0.000 C 
ATOM     35  O6  UNL     1      72.422  58.214 109.712  0.00  0.00    +0.000 OA
ENDBRANCH  33  34
ENDBRANCH  18  33
BRANCH  19  36
ATOM     36  O7  UNL     1      73.252  62.559 109.149  0.00  0.00    +0.000 OA
BRANCH  36  37
ATOM     37  C29 UNL     1      74.001  63.455 109.953  0.00  0.00    +0.000 C 
ATOM     38  O8  UNL     1      74.331  62.752 111.138  0.00  0.00    +0.000 OA
ATOM     39  C30 UNL     1      75.166  63.532 111.963  0.00  0.00    +0.000 C 
ATOM     40  C31 UNL     1      75.757  62.632 113.050  0.00  0.00    +0.000 C 
ATOM     41  C32 UNL     1      74.349  64.698 112.568  0.00  0.00    +0.000 C 
ATOM     42  C40 UNL     1      73.667  65.549 111.459  0.00  0.00    +0.000 C 
ATOM     43  C41 UNL     1      73.112  64.680 110.281  0.00  0.00    +0.000 C 
BRANCH  42  44
ATOM     44  N2  UNL     1      74.482  66.736 111.061  0.00  0.00    +0.000 NA
ATOM     45  C42 UNL     1      73.893  67.605 110.031  0.00  0.00    +0.000 C 
ATOM     46  C43 UNL     1      74.901  67.538 112.228  0.00  0.00    +0.000 C 
ENDBRANCH  42  44
BRANCH  43  47
ATOM     47  O13 UNL     1      71.826  64.217 110.616  0.00  0.00    +0.000 OA
ATOM     48  H67 UNL     1      71.800  64.124 111.605  0.00  0.00    +0.000 HD
ENDBRANCH  43  47
BRANCH  41  49
ATOM     49  O9  UNL     1      73.318  64.144 113.380  0.00  0.00    +0.000 OA
BRANCH  49  50
ATOM     50  C33 UNL     1      73.200  64.756 114.651  0.00  0.00    +0.000 C 
ATOM     51  C34 UNL     1      72.892  63.663 115.699  0.00  0.00    +0.000 C 
ATOM     52  C35 UNL     1      73.482  63.996 117.100  0.00  0.00    +0.000 C 
ATOM     53  C36 UNL     1      74.883  63.364 117.245  0.00  0.00    +0.000 C 
ATOM     54  C37 UNL     1      73.569  65.538 117.279  0.00  0.00    +0.000 C 
ATOM     55  C38 UNL     1      74.388  66.178 116.114  0.00  0.00    +0.000 C 
ATOM     56  C39 UNL     1      73.975  67.619 115.781  0.00  0.00    +0.000 C 
ATOM     57  O12 UNL     1      74.437  65.383 114.935  0.00  0.00    +0.000 OA
BRANCH  52  58
ATOM     58  O10 UNL     1      72.682  63.435 118.115  0.00  0.00    +0.000 OA
ATOM     59  H58 UNL     1      72.412  62.518 117.847  0.00  0.00    +0.000 HD
ENDBRANCH  52  58
BRANCH  54  60
ATOM     60  O11 UNL     1      72.272  66.087 117.320  0.00  0.00    +0.000 OA
ATOM     61  H60 UNL     1      71.697  65.459 117.830  0.00  0.00    +0.000 HD
ENDBRANCH  54  60
ENDBRANCH  49  50
ENDBRANCH  41  49
ENDBRANCH  36  37
ENDBRANCH  19  36
BRANCH   2  62
ATOM     62  O14 UNL     1      75.291  64.752 106.731  0.00  0.00    +0.000 OA
BRANCH  62  63
ATOM     63  C44 UNL     1      76.466  64.042 107.007  0.00  0.00    +0.000 C 
ATOM     64  C45 UNL     1      77.031  63.130 105.972  0.00  0.00    +0.000 C 
ATOM     65  O15 UNL     1      77.030  64.129 108.129  0.00  0.00    +0.000 OA
ENDBRANCH  62  63
ENDBRANCH   2  62
TORSDOF 16
ENDMDL
MODEL 11
REMARK VINA RESULT:      -7.2      3.070     12.078
REMARK  Name = ./S3618.pdb
REMARK  28 active torsions:
REMARK  status: ('A' for Active; 'I' for Inactive)
REMARK    1  A    between atoms: C1_1  and  O1_2
REMARK    2  A    between atoms: O1_2  and  C2_3
REMARK    3  A    between atoms: C3_4  and  O14_59
REMARK    4  A    between atoms: C6_9  and  C7_10
REMARK    5  A    between atoms: C13_16  and  O4_17
REMARK    6  A    between atoms: O4_17  and  C14_18
REMARK    7  A    between atoms: C17_21  and  N1_25
REMARK    8  A    between atoms: C18_22  and  C19_23
REMARK    9  A    between atoms: N1_25  and  C20_26
REMARK   10  A    between atoms: N1_25  and  C21_27
REMARK   11  A    between atoms: C22_28  and  C23_29
REMARK   12  A    between atoms: C25_31  and  C26_32
REMARK   13  A    between atoms: C26_32  and  C27_33
REMARK   14  A    between atoms: C28_35  and  O7_36
REMARK   15  A    between atoms: O7_36  and  C29_37
REMARK   16  A    between atoms: C30_39  and  C31_40
REMARK   17  A    between atoms: C32_41  and  O9_42
REMARK   18  A    between atoms: O9_42  and  C33_43
REMARK   19  A    between atoms: C35_45  and  C36_46
REMARK   20  A    between atoms: C35_45  and  O10_47
REMARK   21  A    between atoms: C37_48  and  O11_49
REMARK   22  A    between atoms: C38_50  and  C39_51
REMARK   23  A    between atoms: C40_53  and  N2_56
REMARK   24  A    between atoms: C41_54  and  O13_55
REMARK   25  A    between atoms: N2_56  and  C42_57
REMARK   26  A    between atoms: N2_56  and  C43_58
REMARK   27  A    between atoms: O14_59  and  C44_60
REMARK   28  A    between atoms: C44_60  and  C45_61
REMARK                            x       y       z     vdW  Elec       q    Type
REMARK                         _______ _______ _______ _____ _____    ______ ____
ROOT
ATOM      1  C2  UNL     1      74.220  61.111 106.518  0.00  0.00    +0.000 C 
ATOM      2  C3  UNL     1      74.588  59.799 105.776  0.00  0.00    +0.000 C 
ATOM      3  C4  UNL     1      76.124  59.702 105.619  0.00  0.00    +0.000 C 
ATOM      4  C5  UNL     1      76.621  58.414 105.028  0.00  0.00    +0.000 C 
ATOM      5  O2  UNL     1      77.864  58.258 104.871  0.00  0.00    +0.000 OA
ATOM      6  O3  UNL     1      75.730  57.419 104.605  0.00  0.00    +0.000 OA
ATOM      7  C6  UNL     1      76.102  56.366 103.710  0.00  0.00    +0.000 C 
ATOM      8  C7  UNL     1      75.037  55.269 103.754  0.00  0.00    +0.000 C 
ATOM      9  C8  UNL     1      76.279  56.917 102.281  0.00  0.00    +0.000 C 
ATOM     10  C9  UNL     1      75.184  57.887 101.923  0.00  0.00    +0.000 C 
ATOM     11  C10 UNL     1      75.384  59.209 102.006  0.00  0.00    +0.000 C 
ATOM     12  C11 UNL     1      74.322  60.221 101.841  0.00  0.00    +0.000 C 
ATOM     13  C12 UNL     1      73.019  59.977 102.047  0.00  0.00    +0.000 C 
ATOM     14  C13 UNL     1      71.944  61.035 101.937  0.00  0.00    +0.000 C 
ATOM     15  C22 UNL     1      71.310  61.309 103.344  0.00  0.00    +0.000 C 
ATOM     16  C23 UNL     1      69.893  61.905 103.147  0.00  0.00    +0.000 C 
ATOM     17  C24 UNL     1      72.243  62.234 104.184  0.00  0.00    +0.000 C 
ATOM     18  C25 UNL     1      72.031  62.404 105.726  0.00  0.00    +0.000 C 
ATOM     19  C28 UNL     1      72.675  61.336 106.680  0.00  0.00    +0.000 C 
ENDROOT
BRANCH   1  21
ATOM     20  C1  UNL     1      75.918  62.710 106.643  0.00  0.00    +0.000 C 
ATOM     21  O1  UNL     1      74.840  62.216 105.876  0.00  0.00    +0.000 OA
ENDBRANCH   1  21
BRANCH  14  22
ATOM     22  O4  UNL     1      72.491  62.233 101.386  0.00  0.00    +0.000 OA
BRANCH  22  23
ATOM     23  C14 UNL     1      72.029  62.526 100.076  0.00  0.00    +0.000 C 
ATOM     24  C15 UNL     1      70.605  61.944  99.940  0.00  0.00    +0.000 C 
ATOM     25  C16 UNL     1      70.622  60.654  99.130  0.00  0.00    +0.000 C 
ATOM     26  C17 UNL     1      71.179  60.924  97.710  0.00  0.00    +0.000 C 
ATOM     27  C18 UNL     1      72.447  61.845  97.824  0.00  0.00    +0.000 C 
ATOM     28  C19 UNL     1      72.243  63.225  97.177  0.00  0.00    +0.000 C 
ATOM     29  O5  UNL     1      72.943  61.950  99.150  0.00  0.00    +0.000 OA
BRANCH  26  30
ATOM     30  N1  UNL     1      71.507  59.664  96.975  0.00  0.00    +0.000 NA
ATOM     31  C20 UNL     1      70.426  58.658  97.044  0.00  0.00    +0.000 C 
ATOM     32  C21 UNL     1      71.774  59.941  95.545  0.00  0.00    +0.000 C 
ENDBRANCH  26  30
ENDBRANCH  22  23
ENDBRANCH  14  22
BRANCH  18  33
ATOM     33  C26 UNL     1      70.581  62.800 106.145  0.00  0.00    +0.000 C 
BRANCH  33  34
ATOM     34  C27 UNL     1      70.290  64.278 106.233  0.00  0.00    +0.000 C 
ATOM     35  O6  UNL     1      69.963  64.813 107.280  0.00  0.00    +0.000 OA
ENDBRANCH  33  34
ENDBRANCH  18  33
BRANCH  19  36
ATOM     36  O7  UNL     1      72.486  61.833 108.001  0.00  0.00    +0.000 OA
BRANCH  36  37
ATOM     37  C29 UNL     1      73.530  62.654 108.499  0.00  0.00    +0.000 C 
ATOM     38  O8  UNL     1      74.018  62.020 109.667  0.00  0.00    +0.000 OA
ATOM     39  C30 UNL     1      75.131  62.714 110.183  0.00  0.00    +0.000 C 
ATOM     40  C31 UNL     1      75.816  61.830 111.227  0.00  0.00    +0.000 C 
ATOM     41  C32 UNL     1      74.665  64.058 110.788  0.00  0.00    +0.000 C 
ATOM     42  C40 UNL     1      73.879  64.908 109.749  0.00  0.00    +0.000 C 
ATOM     43  C41 UNL     1      72.939  64.043 108.844  0.00  0.00    +0.000 C 
BRANCH  42  44
ATOM     44  N2  UNL     1      74.749  65.887 109.031  0.00  0.00    +0.000 NA
ATOM     45  C42 UNL     1      74.058  67.033 108.419  0.00  0.00    +0.000 C 
ATOM     46  C43 UNL     1      75.870  66.355 109.871  0.00  0.00    +0.000 C 
ENDBRANCH  42  44
BRANCH  43  47
ATOM     47  O13 UNL     1      71.712  63.851 109.506  0.00  0.00    +0.000 OA
ATOM     48  H67 UNL     1      71.089  63.441 108.849  0.00  0.00    +0.000 HD
ENDBRANCH  43  47
BRANCH  41  49
ATOM     49  O9  UNL     1      73.781  63.776 111.869  0.00  0.00    +0.000 OA
BRANCH  49  50
ATOM     50  C33 UNL     1      73.734  64.795 112.850  0.00  0.00    +0.000 C 
ATOM     51  C34 UNL     1      73.079  64.222 114.127  0.00  0.00    +0.000 C 
ATOM     52  C35 UNL     1      73.633  64.874 115.427  0.00  0.00    +0.000 C 
ATOM     53  C36 UNL     1      74.808  64.037 115.977  0.00  0.00    +0.000 C 
ATOM     54  C37 UNL     1      74.103  66.325 115.126  0.00  0.00    +0.000 C 
ATOM     55  C38 UNL     1      75.141  66.332 113.960  0.00  0.00    +0.000 C 
ATOM     56  C39 UNL     1      75.141  67.626 113.134  0.00  0.00    +0.000 C 
ATOM     57  O12 UNL     1      75.068  65.192 113.111  0.00  0.00    +0.000 OA
BRANCH  52  58
ATOM     58  O10 UNL     1      72.643  64.884 116.431  0.00  0.00    +0.000 OA
ATOM     59  H58 UNL     1      72.889  65.551 117.123  0.00  0.00    +0.000 HD
ENDBRANCH  52  58
BRANCH  54  60
ATOM     60  O11 UNL     1      72.993  67.127 114.793  0.00  0.00    +0.000 OA
ATOM     61  H60 UNL     1      72.274  66.929 115.449  0.00  0.00    +0.000 HD
ENDBRANCH  54  60
ENDBRANCH  49  50
ENDBRANCH  41  49
ENDBRANCH  36  37
ENDBRANCH  19  36
BRANCH   2  62
ATOM     62  O14 UNL     1      74.130  58.675 106.538  0.00  0.00    +0.000 OA
BRANCH  62  63
ATOM     63  C44 UNL     1      72.904  58.029 106.331  0.00  0.00    +0.000 C 
ATOM     64  C45 UNL     1      72.455  57.741 104.939  0.00  0.00    +0.000 C 
ATOM     65  O15 UNL     1      72.157  57.725 107.297  0.00  0.00    +0.000 OA
ENDBRANCH  62  63
ENDBRANCH   2  62
TORSDOF 16
ENDMDL
MODEL 12
REMARK VINA RESULT:      -7.2      6.619     13.428
REMARK  Name = ./S3618.pdb
REMARK  28 active torsions:
REMARK  status: ('A' for Active; 'I' for Inactive)
REMARK    1  A    between atoms: C1_1  and  O1_2
REMARK    2  A    between atoms: O1_2  and  C2_3
REMARK    3  A    between atoms: C3_4  and  O14_59
REMARK    4  A    between atoms: C6_9  and  C7_10
REMARK    5  A    between atoms: C13_16  and  O4_17
REMARK    6  A    between atoms: O4_17  and  C14_18
REMARK    7  A    between atoms: C17_21  and  N1_25
REMARK    8  A    between atoms: C18_22  and  C19_23
REMARK    9  A    between atoms: N1_25  and  C20_26
REMARK   10  A    between atoms: N1_25  and  C21_27
REMARK   11  A    between atoms: C22_28  and  C23_29
REMARK   12  A    between atoms: C25_31  and  C26_32
REMARK   13  A    between atoms: C26_32  and  C27_33
REMARK   14  A    between atoms: C28_35  and  O7_36
REMARK   15  A    between atoms: O7_36  and  C29_37
REMARK   16  A    between atoms: C30_39  and  C31_40
REMARK   17  A    between atoms: C32_41  and  O9_42
REMARK   18  A    between atoms: O9_42  and  C33_43
REMARK   19  A    between atoms: C35_45  and  C36_46
REMARK   20  A    between atoms: C35_45  and  O10_47
REMARK   21  A    between atoms: C37_48  and  O11_49
REMARK   22  A    between atoms: C38_50  and  C39_51
REMARK   23  A    between atoms: C40_53  and  N2_56
REMARK   24  A    between atoms: C41_54  and  O13_55
REMARK   25  A    between atoms: N2_56  and  C42_57
REMARK   26  A    between atoms: N2_56  and  C43_58
REMARK   27  A    between atoms: O14_59  and  C44_60
REMARK   28  A    between atoms: C44_60  and  C45_61
REMARK                            x       y       z     vdW  Elec       q    Type
REMARK                         _______ _______ _______ _____ _____    ______ ____
ROOT
ATOM      1  C2  UNL     1      75.129  69.365 108.773  0.00  0.00    +0.000 C 
ATOM      2  C3  UNL     1      74.136  70.088 107.824  0.00  0.00    +0.000 C 
ATOM      3  C4  UNL     1      73.076  70.847 108.659  0.00  0.00    +0.000 C 
ATOM      4  C5  UNL     1      72.128  71.694 107.860  0.00  0.00    +0.000 C 
ATOM      5  O2  UNL     1      71.236  72.346 108.471  0.00  0.00    +0.000 OA
ATOM      6  O3  UNL     1      72.188  71.727 106.461  0.00  0.00    +0.000 OA
ATOM      7  C6  UNL     1      71.109  72.193 105.643  0.00  0.00    +0.000 C 
ATOM      8  C7  UNL     1      71.626  72.449 104.227  0.00  0.00    +0.000 C 
ATOM      9  C8  UNL     1      69.957  71.168 105.643  0.00  0.00    +0.000 C 
ATOM     10  C9  UNL     1      70.472  69.759 105.516  0.00  0.00    +0.000 C 
ATOM     11  C10 UNL     1      70.607  68.978 106.596  0.00  0.00    +0.000 C 
ATOM     12  C11 UNL     1      71.260  67.653 106.587  0.00  0.00    +0.000 C 
ATOM     13  C12 UNL     1      72.168  67.275 105.676  0.00  0.00    +0.000 C 
ATOM     14  C13 UNL     1      72.880  65.940 105.709  0.00  0.00    +0.000 C 
ATOM     15  C22 UNL     1      74.406  66.148 105.995  0.00  0.00    +0.000 C 
ATOM     16  C23 UNL     1      75.187  64.921 105.462  0.00  0.00    +0.000 C 
ATOM     17  C24 UNL     1      74.639  66.398 107.517  0.00  0.00    +0.000 C 
ATOM     18  C25 UNL     1      76.004  66.959 108.040  0.00  0.00    +0.000 C 
ATOM     19  C28 UNL     1      76.216  68.516 108.024  0.00  0.00    +0.000 C 
ENDROOT
BRANCH   1  21
ATOM     20  C1  UNL     1      75.022  68.614 110.982  0.00  0.00    +0.000 C 
ATOM     21  O1  UNL     1      74.409  68.577 109.710  0.00  0.00    +0.000 OA
ENDBRANCH   1  21
BRANCH  14  22
ATOM     22  O4  UNL     1      72.289  65.096 106.697  0.00  0.00    +0.000 OA
BRANCH  22  23
ATOM     23  C14 UNL     1      71.586  63.986 106.160  0.00  0.00    +0.000 C 
ATOM     24  C15 UNL     1      72.017  62.732 106.953  0.00  0.00    +0.000 C 
ATOM     25  C16 UNL     1      73.000  61.892 106.146  0.00  0.00    +0.000 C 
ATOM     26  C17 UNL     1      72.343  61.434 104.820  0.00  0.00    +0.000 C 
ATOM     27  C18 UNL     1      71.576  62.647 104.181  0.00  0.00    +0.000 C 
ATOM     28  C19 UNL     1      70.054  62.425 104.122  0.00  0.00    +0.000 C 
ATOM     29  O5  UNL     1      71.906  63.892 104.778  0.00  0.00    +0.000 OA
BRANCH  26  30
ATOM     30  N1  UNL     1      73.338  60.873 103.854  0.00  0.00    +0.000 NA
ATOM     31  C20 UNL     1      73.288  59.398 103.766  0.00  0.00    +0.000 C 
ATOM     32  C21 UNL     1      73.116  61.413 102.493  0.00  0.00    +0.000 C 
ENDBRANCH  26  30
ENDBRANCH  22  23
ENDBRANCH  14  22
BRANCH  18  33
ATOM     33  C26 UNL     1      77.261  66.169 107.560  0.00  0.00    +0.000 C 
BRANCH  33  34
ATOM     34  C27 UNL     1      77.603  64.921 108.335  0.00  0.00    +0.000 C 
ATOM     35  O6  UNL     1      77.900  63.875 107.781  0.00  0.00    +0.000 OA
ENDBRANCH  33  34
ENDBRANCH  18  33
BRANCH  19  36
ATOM     36  O7  UNL     1      77.439  68.747 108.714  0.00  0.00    +0.000 OA
BRANCH  36  37
ATOM     37  C29 UNL     1      78.151  69.909 108.322  0.00  0.00    +0.000 C 
ATOM     38  O8  UNL     1      79.389  69.464 107.797  0.00  0.00    +0.000 OA
ATOM     39  C30 UNL     1      80.131  70.548 107.286  0.00  0.00    +0.000 C 
ATOM     40  C31 UNL     1      81.286  69.997 106.447  0.00  0.00    +0.000 C 
ATOM     41  C32 UNL     1      80.640  71.421 108.456  0.00  0.00    +0.000 C 
ATOM     42  C40 UNL     1      79.469  71.894 109.364  0.00  0.00    +0.000 C 
ATOM     43  C41 UNL     1      78.380  70.790 109.575  0.00  0.00    +0.000 C 
BRANCH  42  44
ATOM     44  N2  UNL     1      78.957  73.246 108.986  0.00  0.00    +0.000 NA
ATOM     45  C42 UNL     1      79.907  74.120 108.282  0.00  0.00    +0.000 C 
ATOM     46  C43 UNL     1      77.684  73.169 108.241  0.00  0.00    +0.000 C 
ENDBRANCH  42  44
BRANCH  43  47
ATOM     47  O13 UNL     1      78.771  69.955 110.638  0.00  0.00    +0.000 OA
ATOM     48  H67 UNL     1      79.749  70.084 110.764  0.00  0.00    +0.000 HD
ENDBRANCH  43  47
BRANCH  41  49
ATOM     49  O9  UNL     1      81.511  70.628 109.256  0.00  0.00    +0.000 OA
BRANCH  49  50
ATOM     50  C33 UNL     1      82.625  71.338 109.766  0.00  0.00    +0.000 C 
ATOM     51  C34 UNL     1      83.789  70.344 109.979  0.00  0.00    +0.000 C 
ATOM     52  C35 UNL     1      85.183  71.001 109.770  0.00  0.00    +0.000 C 
ATOM     53  C36 UNL     1      85.643  70.810 108.308  0.00  0.00    +0.000 C 
ATOM     54  C37 UNL     1      85.104  72.516 110.112  0.00  0.00    +0.000 C 
ATOM     55  C38 UNL     1      83.981  73.208 109.277  0.00  0.00    +0.000 C 
ATOM     56  C39 UNL     1      83.347  74.422 109.970  0.00  0.00    +0.000 C 
ATOM     57  O12 UNL     1      82.978  72.316 108.804  0.00  0.00    +0.000 OA
BRANCH  52  58
ATOM     58  O10 UNL     1      86.150  70.371 110.580  0.00  0.00    +0.000 OA
ATOM     59  H58 UNL     1      87.051  70.530 110.194  0.00  0.00    +0.000 HD
ENDBRANCH  52  58
BRANCH  54  60
ATOM     60  O11 UNL     1      84.857  72.682 111.489  0.00  0.00    +0.000 OA
ATOM     61  H60 UNL     1      85.036  73.632 111.713  0.00  0.00    +0.000 HD
ENDBRANCH  54  60
ENDBRANCH  49  50
ENDBRANCH  41  49
ENDBRANCH  36  37
ENDBRANCH  19  36
BRANCH   2  62
ATOM     62  O14 UNL     1      74.849  71.033 107.016  0.00  0.00    +0.000 OA
BRANCH  62  63
ATOM     63  C44 UNL     1      75.368  70.749 105.747  0.00  0.00    +0.000 C 
ATOM     64  C45 UNL     1      74.631  69.819 104.845  0.00  0.00    +0.000 C 
ATOM     65  O15 UNL     1      76.467  71.235 105.370  0.00  0.00    +0.000 OA
ENDBRANCH  62  63
ENDBRANCH   2  62
TORSDOF 16
ENDMDL
MODEL 13
REMARK VINA RESULT:      -7.2      3.176     11.822
REMARK  Name = ./S3618.pdb
REMARK  28 active torsions:
REMARK  status: ('A' for Active; 'I' for Inactive)
REMARK    1  A    between atoms: C1_1  and  O1_2
REMARK    2  A    between atoms: O1_2  and  C2_3
REMARK    3  A    between atoms: C3_4  and  O14_59
REMARK    4  A    between atoms: C6_9  and  C7_10
REMARK    5  A    between atoms: C13_16  and  O4_17
REMARK    6  A    between atoms: O4_17  and  C14_18
REMARK    7  A    between atoms: C17_21  and  N1_25
REMARK    8  A    between atoms: C18_22  and  C19_23
REMARK    9  A    between atoms: N1_25  and  C20_26
REMARK   10  A    between atoms: N1_25  and  C21_27
REMARK   11  A    between atoms: C22_28  and  C23_29
REMARK   12  A    between atoms: C25_31  and  C26_32
REMARK   13  A    between atoms: C26_32  and  C27_33
REMARK   14  A    between atoms: C28_35  and  O7_36
REMARK   15  A    between atoms: O7_36  and  C29_37
REMARK   16  A    between atoms: C30_39  and  C31_40
REMARK   17  A    between atoms: C32_41  and  O9_42
REMARK   18  A    between atoms: O9_42  and  C33_43
REMARK   19  A    between atoms: C35_45  and  C36_46
REMARK   20  A    between atoms: C35_45  and  O10_47
REMARK   21  A    between atoms: C37_48  and  O11_49
REMARK   22  A    between atoms: C38_50  and  C39_51
REMARK   23  A    between atoms: C40_53  and  N2_56
REMARK   24  A    between atoms: C41_54  and  O13_55
REMARK   25  A    between atoms: N2_56  and  C42_57
REMARK   26  A    between atoms: N2_56  and  C43_58
REMARK   27  A    between atoms: O14_59  and  C44_60
REMARK   28  A    between atoms: C44_60  and  C45_61
REMARK                            x       y       z     vdW  Elec       q    Type
REMARK                         _______ _______ _______ _____ _____    ______ ____
ROOT
ATOM      1  C2  UNL     1      73.373  64.631 106.804  0.00  0.00    +0.000 C 
ATOM      2  C3  UNL     1      74.715  64.928 106.083  0.00  0.00    +0.000 C 
ATOM      3  C4  UNL     1      74.720  66.389 105.574  0.00  0.00    +0.000 C 
ATOM      4  C5  UNL     1      76.017  66.844 104.966  0.00  0.00    +0.000 C 
ATOM      5  O2  UNL     1      76.100  68.026 104.529  0.00  0.00    +0.000 OA
ATOM      6  O3  UNL     1      77.101  65.968 104.832  0.00  0.00    +0.000 OA
ATOM      7  C6  UNL     1      78.197  66.211 103.943  0.00  0.00    +0.000 C 
ATOM      8  C7  UNL     1      79.356  65.283 104.310  0.00  0.00    +0.000 C 
ATOM      9  C8  UNL     1      77.755  66.006 102.480  0.00  0.00    +0.000 C 
ATOM     10  C9  UNL     1      76.895  64.780 102.330  0.00  0.00    +0.000 C 
ATOM     11  C10 UNL     1      75.560  64.880 102.278  0.00  0.00    +0.000 C 
ATOM     12  C11 UNL     1      74.639  63.726 102.303  0.00  0.00    +0.000 C 
ATOM     13  C12 UNL     1      74.953  62.532 102.826  0.00  0.00    +0.000 C 
ATOM     14  C13 UNL     1      73.983  61.374 102.906  0.00  0.00    +0.000 C 
ATOM     15  C22 UNL     1      73.637  61.061 104.402  0.00  0.00    +0.000 C 
ATOM     16  C23 UNL     1      73.157  59.592 104.508  0.00  0.00    +0.000 C 
ATOM     17  C24 UNL     1      72.584  62.080 104.936  0.00  0.00    +0.000 C 
ATOM     18  C25 UNL     1      72.301  62.216 106.469  0.00  0.00    +0.000 C 
ATOM     19  C28 UNL     1      73.241  63.151 107.312  0.00  0.00    +0.000 C 
ENDROOT
BRANCH   1  21
ATOM     20  C1  UNL     1      71.331  65.756 106.667  0.00  0.00    +0.000 C 
ATOM     21  O1  UNL     1      72.286  64.990 105.963  0.00  0.00    +0.000 OA
ENDBRANCH   1  21
BRANCH  14  22
ATOM     22  O4  UNL     1      72.801  61.675 102.165  0.00  0.00    +0.000 OA
BRANCH  22  23
ATOM     23  C14 UNL     1      72.571  60.801 101.070  0.00  0.00    +0.000 C 
ATOM     24  C15 UNL     1      72.879  61.583  99.774  0.00  0.00    +0.000 C 
ATOM     25  C16 UNL     1      71.593  62.016  99.082  0.00  0.00    +0.000 C 
ATOM     26  C17 UNL     1      70.742  60.773  98.716  0.00  0.00    +0.000 C 
ATOM     27  C18 UNL     1      70.732  59.781  99.934  0.00  0.00    +0.000 C 
ATOM     28  C19 UNL     1      71.431  58.446  99.622  0.00  0.00    +0.000 C 
ATOM     29  O5  UNL     1      71.218  60.365 101.133  0.00  0.00    +0.000 OA
BRANCH  26  30
ATOM     30  N1  UNL     1      69.346  61.133  98.318  0.00  0.00    +0.000 NA
ATOM     31  C20 UNL     1      68.919  60.480  97.062  0.00  0.00    +0.000 C 
ATOM     32  C21 UNL     1      68.381  60.754  99.375  0.00  0.00    +0.000 C 
ENDBRANCH  26  30
ENDBRANCH  22  23
ENDBRANCH  14  22
BRANCH  18  33
ATOM     33  C26 UNL     1      71.971  60.874 107.194  0.00  0.00    +0.000 C 
BRANCH  33  34
ATOM     34  C27 UNL     1      73.107  60.220 107.942  0.00  0.00    +0.000 C 
ATOM     35  O6  UNL     1      73.024  59.936 109.126  0.00  0.00    +0.000 OA
ENDBRANCH  33  34
ENDBRANCH  18  33
BRANCH  19  36
ATOM     36  O7  UNL     1      72.650  63.231 108.604  0.00  0.00    +0.000 OA
BRANCH  36  37
ATOM     37  C29 UNL     1      73.375  63.985 109.562  0.00  0.00    +0.000 C 
ATOM     38  O8  UNL     1      73.921  63.052 110.478  0.00  0.00    +0.000 OA
ATOM     39  C30 UNL     1      74.747  63.703 111.418  0.00  0.00    +0.000 C 
ATOM     40  C31 UNL     1      75.561  62.645 112.165  0.00  0.00    +0.000 C 
ATOM     41  C32 UNL     1      73.872  64.537 112.382  0.00  0.00    +0.000 C 
ATOM     42  C40 UNL     1      72.970  65.540 111.607  0.00  0.00    +0.000 C 
ATOM     43  C41 UNL     1      72.391  64.939 110.283  0.00  0.00    +0.000 C 
BRANCH  42  44
ATOM     44  N2  UNL     1      73.588  66.896 111.487  0.00  0.00    +0.000 NA
ATOM     45  C42 UNL     1      74.622  67.222 112.481  0.00  0.00    +0.000 C 
ATOM     46  C43 UNL     1      74.087  67.159 110.123  0.00  0.00    +0.000 C 
ENDBRANCH  42  44
BRANCH  43  47
ATOM     47  O13 UNL     1      71.216  64.223 110.578  0.00  0.00    +0.000 OA
ATOM     48  H67 UNL     1      70.474  64.669 110.091  0.00  0.00    +0.000 HD
ENDBRANCH  43  47
BRANCH  41  49
ATOM     49  O9  UNL     1      73.015  63.647 113.089  0.00  0.00    +0.000 OA
BRANCH  49  50
ATOM     50  C33 UNL     1      72.885  63.950 114.466  0.00  0.00    +0.000 C 
ATOM     51  C34 UNL     1      72.631  62.636 115.239  0.00  0.00    +0.000 C 
ATOM     52  C35 UNL     1      73.221  62.666 116.678  0.00  0.00    +0.000 C 
ATOM     53  C36 UNL     1      74.647  62.073 116.675  0.00  0.00    +0.000 C 
ATOM     54  C37 UNL     1      73.250  64.129 117.202  0.00  0.00    +0.000 C 
ATOM     55  C38 UNL     1      74.032  65.049 116.212  0.00  0.00    +0.000 C 
ATOM     56  C39 UNL     1      73.561  66.510 116.215  0.00  0.00    +0.000 C 
ATOM     57  O12 UNL     1      74.101  64.544 114.883  0.00  0.00    +0.000 OA
BRANCH  52  58
ATOM     58  O10 UNL     1      72.453  61.857 117.541  0.00  0.00    +0.000 OA
ATOM     59  H58 UNL     1      71.869  61.266 116.998  0.00  0.00    +0.000 HD
ENDBRANCH  52  58
BRANCH  54  60
ATOM     60  O11 UNL     1      71.934  64.603 117.369  0.00  0.00    +0.000 OA
ATOM     61  H60 UNL     1      71.853  65.449 116.855  0.00  0.00    +0.000 HD
ENDBRANCH  54  60
ENDBRANCH  49  50
ENDBRANCH  41  49
ENDBRANCH  36  37
ENDBRANCH  19  36
BRANCH   2  62
ATOM     62  O14 UNL     1      75.800  64.756 107.003  0.00  0.00    +0.000 OA
BRANCH  62  63
ATOM     63  C44 UNL     1      76.509  63.560 107.169  0.00  0.00    +0.000 C 
ATOM     64  C45 UNL     1      76.816  62.719 105.977  0.00  0.00    +0.000 C 
ATOM     65  O15 UNL     1      76.856  63.162 108.312  0.00  0.00    +0.000 OA
ENDBRANCH  62  63
ENDBRANCH   2  62
TORSDOF 16
ENDMDL
MODEL 14
REMARK VINA RESULT:      -7.2      4.554     11.377
REMARK  Name = ./S3618.pdb
REMARK  28 active torsions:
REMARK  status: ('A' for Active; 'I' for Inactive)
REMARK    1  A    between atoms: C1_1  and  O1_2
REMARK    2  A    between atoms: O1_2  and  C2_3
REMARK    3  A    between atoms: C3_4  and  O14_59
REMARK    4  A    between atoms: C6_9  and  C7_10
REMARK    5  A    between atoms: C13_16  and  O4_17
REMARK    6  A    between atoms: O4_17  and  C14_18
REMARK    7  A    between atoms: C17_21  and  N1_25
REMARK    8  A    between atoms: C18_22  and  C19_23
REMARK    9  A    between atoms: N1_25  and  C20_26
REMARK   10  A    between atoms: N1_25  and  C21_27
REMARK   11  A    between atoms: C22_28  and  C23_29
REMARK   12  A    between atoms: C25_31  and  C26_32
REMARK   13  A    between atoms: C26_32  and  C27_33
REMARK   14  A    between atoms: C28_35  and  O7_36
REMARK   15  A    between atoms: O7_36  and  C29_37
REMARK   16  A    between atoms: C30_39  and  C31_40
REMARK   17  A    between atoms: C32_41  and  O9_42
REMARK   18  A    between atoms: O9_42  and  C33_43
REMARK   19  A    between atoms: C35_45  and  C36_46
REMARK   20  A    between atoms: C35_45  and  O10_47
REMARK   21  A    between atoms: C37_48  and  O11_49
REMARK   22  A    between atoms: C38_50  and  C39_51
REMARK   23  A    between atoms: C40_53  and  N2_56
REMARK   24  A    between atoms: C41_54  and  O13_55
REMARK   25  A    between atoms: N2_56  and  C42_57
REMARK   26  A    between atoms: N2_56  and  C43_58
REMARK   27  A    between atoms: O14_59  and  C44_60
REMARK   28  A    between atoms: C44_60  and  C45_61
REMARK                            x       y       z     vdW  Elec       q    Type
REMARK                         _______ _______ _______ _____ _____    ______ ____
ROOT
ATOM      1  C2  UNL     1      75.536  60.948 104.637  0.00  0.00    +0.000 C 
ATOM      2  C3  UNL     1      74.506  61.975 105.176  0.00  0.00    +0.000 C 
ATOM      3  C4  UNL     1      73.941  61.485 106.530  0.00  0.00    +0.000 C 
ATOM      4  C5  UNL     1      73.023  62.453 107.222  0.00  0.00    +0.000 C 
ATOM      5  O2  UNL     1      72.524  62.125 108.335  0.00  0.00    +0.000 OA
ATOM      6  O3  UNL     1      72.679  63.674 106.630  0.00  0.00    +0.000 OA
ATOM      7  C6  UNL     1      71.547  64.449 107.039  0.00  0.00    +0.000 C 
ATOM      8  C7  UNL     1      71.673  65.863 106.470  0.00  0.00    +0.000 C 
ATOM      9  C8  UNL     1      70.241  63.773 106.577  0.00  0.00    +0.000 C 
ATOM     10  C9  UNL     1      70.356  63.255 105.168  0.00  0.00    +0.000 C 
ATOM     11  C10 UNL     1      70.615  61.963 104.931  0.00  0.00    +0.000 C 
ATOM     12  C11 UNL     1      70.912  61.406 103.596  0.00  0.00    +0.000 C 
ATOM     13  C12 UNL     1      71.403  62.129 102.578  0.00  0.00    +0.000 C 
ATOM     14  C13 UNL     1      71.764  61.540 101.232  0.00  0.00    +0.000 C 
ATOM     15  C22 UNL     1      73.312  61.620 101.006  0.00  0.00    +0.000 C 
ATOM     16  C23 UNL     1      73.598  61.579  99.484  0.00  0.00    +0.000 C 
ATOM     17  C24 UNL     1      74.030  60.476 101.786  0.00  0.00    +0.000 C 
ATOM     18  C25 UNL     1      75.579  60.505 102.011  0.00  0.00    +0.000 C 
ATOM     19  C28 UNL     1      76.131  61.324 103.233  0.00  0.00    +0.000 C 
ENDROOT
BRANCH   1  21
ATOM     20  C1  UNL     1      75.807  58.712 105.255  0.00  0.00    +0.000 C 
ATOM     21  O1  UNL     1      74.959  59.650 104.625  0.00  0.00    +0.000 OA
ENDBRANCH   1  21
BRANCH  14  22
ATOM     22  O4  UNL     1      71.309  60.189 101.152  0.00  0.00    +0.000 OA
BRANCH  22  23
ATOM     23  C14 UNL     1      70.258  59.991 100.219  0.00  0.00    +0.000 C 
ATOM     24  C15 UNL     1      70.590  58.721  99.404  0.00  0.00    +0.000 C 
ATOM     25  C16 UNL     1      71.108  59.085  98.019  0.00  0.00    +0.000 C 
ATOM     26  C17 UNL     1      70.039  59.899  97.248  0.00  0.00    +0.000 C 
ATOM     27  C18 UNL     1      69.423  60.978  98.209  0.00  0.00    +0.000 C 
ATOM     28  C19 UNL     1      67.931  60.738  98.497  0.00  0.00    +0.000 C 
ATOM     29  O5  UNL     1      70.171  61.153  99.403  0.00  0.00    +0.000 OA
BRANCH  26  30
ATOM     30  N1  UNL     1      70.590  60.544  96.016  0.00  0.00    +0.000 NA
ATOM     31  C20 UNL     1      70.274  61.986  95.930  0.00  0.00    +0.000 C 
ATOM     32  C21 UNL     1      72.063  60.401  95.958  0.00  0.00    +0.000 C 
ENDBRANCH  26  30
ENDBRANCH  22  23
ENDBRANCH  14  22
BRANCH  18  33
ATOM     33  C26 UNL     1      76.423  60.705 100.715  0.00  0.00    +0.000 C 
BRANCH  33  34
ATOM     34  C27 UNL     1      76.611  59.487  99.844  0.00  0.00    +0.000 C 
ATOM     35  O6  UNL     1      76.641  59.560  98.626  0.00  0.00    +0.000 OA
ENDBRANCH  33  34
ENDBRANCH  18  33
BRANCH  19  36
ATOM     36  O7  UNL     1      77.521  61.026 103.303  0.00  0.00    +0.000 OA
BRANCH  36  37
ATOM     37  C29 UNL     1      78.345  62.067 103.802  0.00  0.00    +0.000 C 
ATOM     38  O8  UNL     1      78.698  62.868 102.688  0.00  0.00    +0.000 OA
ATOM     39  C30 UNL     1      79.440  63.993 103.101  0.00  0.00    +0.000 C 
ATOM     40  C31 UNL     1      79.513  64.983 101.936  0.00  0.00    +0.000 C 
ATOM     41  C32 UNL     1      80.847  63.543 103.558  0.00  0.00    +0.000 C 
ATOM     42  C40 UNL     1      80.764  62.461 104.672  0.00  0.00    +0.000 C 
ATOM     43  C41 UNL     1      79.608  61.433 104.435  0.00  0.00    +0.000 C 
BRANCH  42  44
ATOM     44  N2  UNL     1      80.841  63.042 106.047  0.00  0.00    +0.000 NA
ATOM     45  C42 UNL     1      79.575  63.536 106.608  0.00  0.00    +0.000 C 
ATOM     46  C43 UNL     1      81.502  62.128 106.999  0.00  0.00    +0.000 C 
ENDBRANCH  42  44
BRANCH  43  47
ATOM     47  O13 UNL     1      80.067  60.413 103.580  0.00  0.00    +0.000 OA
ATOM     48  H67 UNL     1      80.361  59.660 104.158  0.00  0.00    +0.000 HD
ENDBRANCH  43  47
BRANCH  41  49
ATOM     49  O9  UNL     1      81.512  62.960 102.442  0.00  0.00    +0.000 OA
BRANCH  49  50
ATOM     50  C33 UNL     1      82.831  63.437 102.249  0.00  0.00    +0.000 C 
ATOM     51  C34 UNL     1      83.057  63.669 100.738  0.00  0.00    +0.000 C 
ATOM     52  C35 UNL     1      84.044  64.837 100.453  0.00  0.00    +0.000 C 
ATOM     53  C36 UNL     1      83.261  66.155 100.265  0.00  0.00    +0.000 C 
ATOM     54  C37 UNL     1      85.047  64.975 101.633  0.00  0.00    +0.000 C 
ATOM     55  C38 UNL     1      84.283  65.148 102.983  0.00  0.00    +0.000 C 
ATOM     56  C39 UNL     1      85.042  64.607 104.202  0.00  0.00    +0.000 C 
ATOM     57  O12 UNL     1      82.948  64.656 102.961  0.00  0.00    +0.000 OA
BRANCH  52  58
ATOM     58  O10 UNL     1      84.740  64.609  99.249  0.00  0.00    +0.000 OA
ATOM     59  H58 UNL     1      84.866  65.474  98.777  0.00  0.00    +0.000 HD
ENDBRANCH  52  58
BRANCH  54  60
ATOM     60  O11 UNL     1      85.878  63.838 101.687  0.00  0.00    +0.000 OA
ATOM     61  H60 UNL     1      86.742  64.079 101.263  0.00  0.00    +0.000 HD
ENDBRANCH  54  60
ENDBRANCH  49  50
ENDBRANCH  41  49
ENDBRANCH  36  37
ENDBRANCH  19  36
BRANCH   2  62
ATOM     62  O14 UNL     1      75.151  63.240 105.375  0.00  0.00    +0.000 OA
BRANCH  62  63
ATOM     63  C44 UNL     1      75.190  64.263 104.420  0.00  0.00    +0.000 C 
ATOM     64  C45 UNL     1      74.019  64.471 103.522  0.00  0.00    +0.000 C 
ATOM     65  O15 UNL     1      76.214  64.982 104.279  0.00  0.00    +0.000 OA
ENDBRANCH  62  63
ENDBRANCH   2  62
TORSDOF 16
ENDMDL
MODEL 15
REMARK VINA RESULT:      -7.1      5.069     10.356
REMARK  Name = ./S3618.pdb
REMARK  28 active torsions:
REMARK  status: ('A' for Active; 'I' for Inactive)
REMARK    1  A    between atoms: C1_1  and  O1_2
REMARK    2  A    between atoms: O1_2  and  C2_3
REMARK    3  A    between atoms: C3_4  and  O14_59
REMARK    4  A    between atoms: C6_9  and  C7_10
REMARK    5  A    between atoms: C13_16  and  O4_17
REMARK    6  A    between atoms: O4_17  and  C14_18
REMARK    7  A    between atoms: C17_21  and  N1_25
REMARK    8  A    between atoms: C18_22  and  C19_23
REMARK    9  A    between atoms: N1_25  and  C20_26
REMARK   10  A    between atoms: N1_25  and  C21_27
REMARK   11  A    between atoms: C22_28  and  C23_29
REMARK   12  A    between atoms: C25_31  and  C26_32
REMARK   13  A    between atoms: C26_32  and  C27_33
REMARK   14  A    between atoms: C28_35  and  O7_36
REMARK   15  A    between atoms: O7_36  and  C29_37
REMARK   16  A    between atoms: C30_39  and  C31_40
REMARK   17  A    between atoms: C32_41  and  O9_42
REMARK   18  A    between atoms: O9_42  and  C33_43
REMARK   19  A    between atoms: C35_45  and  C36_46
REMARK   20  A    between atoms: C35_45  and  O10_47
REMARK   21  A    between atoms: C37_48  and  O11_49
REMARK   22  A    between atoms: C38_50  and  C39_51
REMARK   23  A    between atoms: C40_53  and  N2_56
REMARK   24  A    between atoms: C41_54  and  O13_55
REMARK   25  A    between atoms: N2_56  and  C42_57
REMARK   26  A    between atoms: N2_56  and  C43_58
REMARK   27  A    between atoms: O14_59  and  C44_60
REMARK   28  A    between atoms: C44_60  and  C45_61
REMARK                            x       y       z     vdW  Elec       q    Type
REMARK                         _______ _______ _______ _____ _____    ______ ____
ROOT
ATOM      1  C2  UNL     1      75.486  67.671 109.991  0.00  0.00    +0.000 C 
ATOM      2  C3  UNL     1      76.412  68.450 109.020  0.00  0.00    +0.000 C 
ATOM      3  C4  UNL     1      77.287  69.444 109.820  0.00  0.00    +0.000 C 
ATOM      4  C5  UNL     1      78.321  70.173 109.009  0.00  0.00    +0.000 C 
ATOM      5  O2  UNL     1      79.076  71.000 109.592  0.00  0.00    +0.000 OA
ATOM      6  O3  UNL     1      78.418  69.988 107.624  0.00  0.00    +0.000 OA
ATOM      7  C6  UNL     1      79.097  70.905 106.760  0.00  0.00    +0.000 C 
ATOM      8  C7  UNL     1      79.341  70.234 105.407  0.00  0.00    +0.000 C 
ATOM      9  C8  UNL     1      78.277  72.201 106.603  0.00  0.00    +0.000 C 
ATOM     10  C9  UNL     1      76.811  71.907 106.422  0.00  0.00    +0.000 C 
ATOM     11  C10 UNL     1      75.962  71.992 107.454  0.00  0.00    +0.000 C 
ATOM     12  C11 UNL     1      74.551  71.559 107.406  0.00  0.00    +0.000 C 
ATOM     13  C12 UNL     1      74.078  70.647 106.544  0.00  0.00    +0.000 C 
ATOM     14  C13 UNL     1      72.645  70.162 106.542  0.00  0.00    +0.000 C 
ATOM     15  C22 UNL     1      72.585  68.652 106.957  0.00  0.00    +0.000 C 
ATOM     16  C23 UNL     1      71.277  68.033 106.404  0.00  0.00    +0.000 C 
ATOM     17  C24 UNL     1      72.711  68.515 108.506  0.00  0.00    +0.000 C 
ATOM     18  C25 UNL     1      73.012  67.129 109.168  0.00  0.00    +0.000 C 
ATOM     19  C28 UNL     1      74.511  66.672 109.272  0.00  0.00    +0.000 C 
ENDROOT
BRANCH   1  21
ATOM     20  C1  UNL     1      74.744  68.139 112.155  0.00  0.00    +0.000 C 
ATOM     21  O1  UNL     1      74.777  68.585 110.815  0.00  0.00    +0.000 OA
ENDBRANCH   1  21
BRANCH  14  22
ATOM     22  O4  UNL     1      71.857  70.963 107.424  0.00  0.00    +0.000 OA
BRANCH  22  23
ATOM     23  C14 UNL     1      71.068  71.940 106.763  0.00  0.00    +0.000 C 
ATOM     24  C15 UNL     1      69.593  71.491 106.857  0.00  0.00    +0.000 C 
ATOM     25  C16 UNL     1      69.120  70.905 105.532  0.00  0.00    +0.000 C 
ATOM     26  C17 UNL     1      69.241  71.964 104.408  0.00  0.00    +0.000 C 
ATOM     27  C18 UNL     1      70.625  72.696 104.540  0.00  0.00    +0.000 C 
ATOM     28  C19 UNL     1      70.480  74.189 104.882  0.00  0.00    +0.000 C 
ATOM     29  O5  UNL     1      71.523  72.036 105.419  0.00  0.00    +0.000 OA
BRANCH  26  30
ATOM     30  N1  UNL     1      69.087  71.370 103.044  0.00  0.00    +0.000 NA
ATOM     31  C20 UNL     1      70.350  70.818 102.509  0.00  0.00    +0.000 C 
ATOM     32  C21 UNL     1      68.086  70.279 103.053  0.00  0.00    +0.000 C 
ENDBRANCH  26  30
ENDBRANCH  22  23
ENDBRANCH  14  22
BRANCH  18  33
ATOM     33  C26 UNL     1      72.054  65.976 108.734  0.00  0.00    +0.000 C 
BRANCH  33  34
ATOM     34  C27 UNL     1      71.134  65.433 109.800  0.00  0.00    +0.000 C 
ATOM     35  O6  UNL     1      71.300  64.332 110.300  0.00  0.00    +0.000 OA
ENDBRANCH  33  34
ENDBRANCH  18  33
BRANCH  19  36
ATOM     36  O7  UNL     1      74.502  65.491 110.068  0.00  0.00    +0.000 OA
BRANCH  36  37
ATOM     37  C29 UNL     1      75.465  64.511 109.717  0.00  0.00    +0.000 C 
ATOM     38  O8  UNL     1      75.237  64.192 108.356  0.00  0.00    +0.000 OA
ATOM     39  C30 UNL     1      76.215  63.293 107.885  0.00  0.00    +0.000 C 
ATOM     40  C31 UNL     1      76.132  63.236 106.359  0.00  0.00    +0.000 C 
ATOM     41  C32 UNL     1      75.986  61.903 108.522  0.00  0.00    +0.000 C 
ATOM     42  C40 UNL     1      75.970  61.985 110.076  0.00  0.00    +0.000 C 
ATOM     43  C41 UNL     1      75.243  63.264 110.609  0.00  0.00    +0.000 C 
BRANCH  42  44
ATOM     44  N2  UNL     1      77.306  61.699 110.681  0.00  0.00    +0.000 NA
ATOM     45  C42 UNL     1      78.390  62.621 110.310  0.00  0.00    +0.000 C 
ATOM     46  C43 UNL     1      77.231  61.560 112.149  0.00  0.00    +0.000 C 
ENDBRANCH  42  44
BRANCH  43  47
ATOM     47  O13 UNL     1      73.860  63.012 110.680  0.00  0.00    +0.000 OA
ATOM     48  H67 UNL     1      73.713  62.424 111.469  0.00  0.00    +0.000 HD
ENDBRANCH  43  47
BRANCH  41  49
ATOM     49  O9  UNL     1      74.710  61.427 108.104  0.00  0.00    +0.000 OA
BRANCH  49  50
ATOM     50  C33 UNL     1      74.760  60.199 107.402  0.00  0.00    +0.000 C 
ATOM     51  C34 UNL     1      73.550  59.337 107.828  0.00  0.00    +0.000 C 
ATOM     52  C35 UNL     1      73.042  58.412 106.684  0.00  0.00    +0.000 C 
ATOM     53  C36 UNL     1      71.920  59.119 105.894  0.00  0.00    +0.000 C 
ATOM     54  C37 UNL     1      74.222  58.056 105.736  0.00  0.00    +0.000 C 
ATOM     55  C38 UNL     1      74.905  59.355 105.202  0.00  0.00    +0.000 C 
ATOM     56  C39 UNL     1      76.396  59.186 104.878  0.00  0.00    +0.000 C 
ATOM     57  O12 UNL     1      74.693  60.500 106.020  0.00  0.00    +0.000 OA
BRANCH  52  58
ATOM     58  O10 UNL     1      72.478  57.236 107.218  0.00  0.00    +0.000 OA
ATOM     59  H58 UNL     1      72.637  57.215 108.198  0.00  0.00    +0.000 HD
ENDBRANCH  52  58
BRANCH  54  60
ATOM     60  O11 UNL     1      75.161  57.260 106.421  0.00  0.00    +0.000 OA
ATOM     61  H60 UNL     1      75.435  57.755 107.237  0.00  0.00    +0.000 HD
ENDBRANCH  54  60
ENDBRANCH  49  50
ENDBRANCH  41  49
ENDBRANCH  36  37
ENDBRANCH  19  36
BRANCH   2  62
ATOM     62  O14 UNL     1      77.269  67.529 108.333  0.00  0.00    +0.000 OA
BRANCH  62  63
ATOM     63  C44 UNL     1      77.106  67.150 106.995  0.00  0.00    +0.000 C 
ATOM     64  C45 UNL     1      76.094  67.850 106.154  0.00  0.00    +0.000 C 
ATOM     65  O15 UNL     1      77.772  66.202 106.502  0.00  0.00    +0.000 OA
ENDBRANCH  62  63
ENDBRANCH   2  62
TORSDOF 16
ENDMDL
MODEL 16
REMARK VINA RESULT:      -7.1      1.314      2.139
REMARK  Name = ./S3618.pdb
REMARK  28 active torsions:
REMARK  status: ('A' for Active; 'I' for Inactive)
REMARK    1  A    between atoms: C1_1  and  O1_2
REMARK    2  A    between atoms: O1_2  and  C2_3
REMARK    3  A    between atoms: C3_4  and  O14_59
REMARK    4  A    between atoms: C6_9  and  C7_10
REMARK    5  A    between atoms: C13_16  and  O4_17
REMARK    6  A    between atoms: O4_17  and  C14_18
REMARK    7  A    between atoms: C17_21  and  N1_25
REMARK    8  A    between atoms: C18_22  and  C19_23
REMARK    9  A    between atoms: N1_25  and  C20_26
REMARK   10  A    between atoms: N1_25  and  C21_27
REMARK   11  A    between atoms: C22_28  and  C23_29
REMARK   12  A    between atoms: C25_31  and  C26_32
REMARK   13  A    between atoms: C26_32  and  C27_33
REMARK   14  A    between atoms: C28_35  and  O7_36
REMARK   15  A    between atoms: O7_36  and  C29_37
REMARK   16  A    between atoms: C30_39  and  C31_40
REMARK   17  A    between atoms: C32_41  and  O9_42
REMARK   18  A    between atoms: O9_42  and  C33_43
REMARK   19  A    between atoms: C35_45  and  C36_46
REMARK   20  A    between atoms: C35_45  and  O10_47
REMARK   21  A    between atoms: C37_48  and  O11_49
REMARK   22  A    between atoms: C38_50  and  C39_51
REMARK   23  A    between atoms: C40_53  and  N2_56
REMARK   24  A    between atoms: C41_54  and  O13_55
REMARK   25  A    between atoms: N2_56  and  C42_57
REMARK   26  A    between atoms: N2_56  and  C43_58
REMARK   27  A    between atoms: O14_59  and  C44_60
REMARK   28  A    between atoms: C44_60  and  C45_61
REMARK                            x       y       z     vdW  Elec       q    Type
REMARK                         _______ _______ _______ _____ _____    ______ ____
ROOT
ATOM      1  C2  UNL     1      73.916  62.199 104.149  0.00  0.00    +0.000 C 
ATOM      2  C3  UNL     1      73.360  63.519 104.746  0.00  0.00    +0.000 C 
ATOM      3  C4  UNL     1      74.114  64.725 104.137  0.00  0.00    +0.000 C 
ATOM      4  C5  UNL     1      73.585  66.073 104.538  0.00  0.00    +0.000 C 
ATOM      5  O2  UNL     1      74.146  67.106 104.079  0.00  0.00    +0.000 OA
ATOM      6  O3  UNL     1      72.525  66.194 105.445  0.00  0.00    +0.000 OA
ATOM      7  C6  UNL     1      72.231  67.406 106.146  0.00  0.00    +0.000 C 
ATOM      8  C7  UNL     1      70.827  67.314 106.745  0.00  0.00    +0.000 C 
ATOM      9  C8  UNL     1      73.290  67.664 107.237  0.00  0.00    +0.000 C 
ATOM     10  C9  UNL     1      73.631  66.402 107.984  0.00  0.00    +0.000 C 
ATOM     11  C10 UNL     1      74.728  65.697 107.676  0.00  0.00    +0.000 C 
ATOM     12  C11 UNL     1      75.046  64.369 108.235  0.00  0.00    +0.000 C 
ATOM     13  C12 UNL     1      74.126  63.524 108.723  0.00  0.00    +0.000 C 
ATOM     14  C13 UNL     1      74.452  62.138 109.236  0.00  0.00    +0.000 C 
ATOM     15  C22 UNL     1      73.814  61.053 108.304  0.00  0.00    +0.000 C 
ATOM     16  C23 UNL     1      73.642  59.740 109.108  0.00  0.00    +0.000 C 
ATOM     17  C24 UNL     1      74.684  60.867 107.022  0.00  0.00    +0.000 C 
ATOM     18  C25 UNL     1      74.126  60.101 105.776  0.00  0.00    +0.000 C 
ATOM     19  C28 UNL     1      73.255  60.906 104.745  0.00  0.00    +0.000 C 
ENDROOT
BRANCH   1  21
ATOM     20  C1  UNL     1      75.952  61.879 103.050  0.00  0.00    +0.000 C 
ATOM     21  O1  UNL     1      75.330  62.169 104.285  0.00  0.00    +0.000 OA
ENDBRANCH   1  21
BRANCH  14  22
ATOM     22  O4  UNL     1      75.867  61.969 109.320  0.00  0.00    +0.000 OA
BRANCH  22  23
ATOM     23  C14 UNL     1      76.366  61.946 110.648  0.00  0.00    +0.000 C 
ATOM     24  C15 UNL     1      75.259  61.361 111.554  0.00  0.00    +0.000 C 
ATOM     25  C16 UNL     1      74.566  62.464 112.342  0.00  0.00    +0.000 C 
ATOM     26  C17 UNL     1      75.592  63.206 113.236  0.00  0.00    +0.000 C 
ATOM     27  C18 UNL     1      76.894  63.481 112.401  0.00  0.00    +0.000 C 
ATOM     28  C19 UNL     1      78.120  62.724 112.941  0.00  0.00    +0.000 C 
ATOM     29  O5  UNL     1      76.717  63.276 111.008  0.00  0.00    +0.000 OA
BRANCH  26  30
ATOM     30  N1  UNL     1      75.046  64.480 113.796  0.00  0.00    +0.000 NA
ATOM     31  C20 UNL     1      75.630  64.829 115.109  0.00  0.00    +0.000 C 
ATOM     32  C21 UNL     1      75.297  65.613 112.876  0.00  0.00    +0.000 C 
ENDBRANCH  26  30
ENDBRANCH  22  23
ENDBRANCH  14  22
BRANCH  18  33
ATOM     33  C26 UNL     1      73.548  58.685 106.085  0.00  0.00    +0.000 C 
BRANCH  33  34
ATOM     34  C27 UNL     1      74.490  57.522 105.891  0.00  0.00    +0.000 C 
ATOM     35  O6  UNL     1      75.649  57.677 105.541  0.00  0.00    +0.000 OA
ENDBRANCH  33  34
ENDBRANCH  18  33
BRANCH  19  36
ATOM     36  O7  UNL     1      73.048  60.028 103.645  0.00  0.00    +0.000 OA
BRANCH  36  37
ATOM     37  C29 UNL     1      72.703  60.654 102.420  0.00  0.00    +0.000 C 
ATOM     38  O8  UNL     1      71.299  60.840 102.445  0.00  0.00    +0.000 OA
ATOM     39  C30 UNL     1      70.871  61.551 101.305  0.00  0.00    +0.000 C 
ATOM     40  C31 UNL     1      69.429  62.011 101.531  0.00  0.00    +0.000 C 
ATOM     41  C32 UNL     1      70.994  60.646 100.058  0.00  0.00    +0.000 C 
ATOM     42  C40 UNL     1      72.440  60.098  99.893  0.00  0.00    +0.000 C 
ATOM     43  C41 UNL     1      73.103  59.713 101.257  0.00  0.00    +0.000 C 
BRANCH  42  44
ATOM     44  N2  UNL     1      73.274  60.940  98.983  0.00  0.00    +0.000 NA
ATOM     45  C42 UNL     1      72.581  62.059  98.326  0.00  0.00    +0.000 C 
ATOM     46  C43 UNL     1      74.506  61.418  99.642  0.00  0.00    +0.000 C 
ENDBRANCH  42  44
BRANCH  43  47
ATOM     47  O13 UNL     1      72.723  58.401 101.599  0.00  0.00    +0.000 OA
ATOM     48  H67 UNL     1      73.425  58.045 102.206  0.00  0.00    +0.000 HD
ENDBRANCH  43  47
BRANCH  41  49
ATOM     49  O9  UNL     1      70.129  59.528 100.232  0.00  0.00    +0.000 OA
BRANCH  49  50
ATOM     50  C33 UNL     1      69.428  59.158  99.059  0.00  0.00    +0.000 C 
ATOM     51  C34 UNL     1      69.071  60.440  98.272  0.00  0.00    +0.000 C 
ATOM     52  C35 UNL     1      69.037  60.207  96.734  0.00  0.00    +0.000 C 
ATOM     53  C36 UNL     1      70.416  60.536  96.121  0.00  0.00    +0.000 C 
ATOM     54  C37 UNL     1      68.658  58.729  96.437  0.00  0.00    +0.000 C 
ATOM     55  C38 UNL     1      69.633  57.756  97.171  0.00  0.00    +0.000 C 
ATOM     56  C39 UNL     1      69.004  56.405  97.539  0.00  0.00    +0.000 C 
ATOM     57  O12 UNL     1      70.287  58.330  98.296  0.00  0.00    +0.000 OA
BRANCH  52  58
ATOM     58  O10 UNL     1      68.110  61.078  96.126  0.00  0.00    +0.000 OA
ATOM     59  H58 UNL     1      68.584  61.893  95.816  0.00  0.00    +0.000 HD
ENDBRANCH  52  58
BRANCH  54  60
ATOM     60  O11 UNL     1      67.331  58.486  96.843  0.00  0.00    +0.000 OA
ATOM     61  H60 UNL     1      66.904  59.366  97.013  0.00  0.00    +0.000 HD
ENDBRANCH  54  60
ENDBRANCH  49  50
ENDBRANCH  41  49
ENDBRANCH  36  37
ENDBRANCH  19  36
BRANCH   2  62
ATOM     62  O14 UNL     1      71.968  63.638 104.430  0.00  0.00    +0.000 OA
BRANCH  62  63
ATOM     63  C44 UNL     1      70.930  63.242 105.283  0.00  0.00    +0.000 C 
ATOM     64  C45 UNL     1      71.105  63.370 106.757  0.00  0.00    +0.000 C 
ATOM     65  O15 UNL     1      69.868  62.741 104.827  0.00  0.00    +0.000 OA
ENDBRANCH  62  63
ENDBRANCH   2  62
TORSDOF 16
ENDMDL
MODEL 17
REMARK VINA RESULT:      -7.1      4.129     11.360
REMARK  Name = ./S3618.pdb
REMARK  28 active torsions:
REMARK  status: ('A' for Active; 'I' for Inactive)
REMARK    1  A    between atoms: C1_1  and  O1_2
REMARK    2  A    between atoms: O1_2  and  C2_3
REMARK    3  A    between atoms: C3_4  and  O14_59
REMARK    4  A    between atoms: C6_9  and  C7_10
REMARK    5  A    between atoms: C13_16  and  O4_17
REMARK    6  A    between atoms: O4_17  and  C14_18
REMARK    7  A    between atoms: C17_21  and  N1_25
REMARK    8  A    between atoms: C18_22  and  C19_23
REMARK    9  A    between atoms: N1_25  and  C20_26
REMARK   10  A    between atoms: N1_25  and  C21_27
REMARK   11  A    between atoms: C22_28  and  C23_29
REMARK   12  A    between atoms: C25_31  and  C26_32
REMARK   13  A    between atoms: C26_32  and  C27_33
REMARK   14  A    between atoms: C28_35  and  O7_36
REMARK   15  A    between atoms: O7_36  and  C29_37
REMARK   16  A    between atoms: C30_39  and  C31_40
REMARK   17  A    between atoms: C32_41  and  O9_42
REMARK   18  A    between atoms: O9_42  and  C33_43
REMARK   19  A    between atoms: C35_45  and  C36_46
REMARK   20  A    between atoms: C35_45  and  O10_47
REMARK   21  A    between atoms: C37_48  and  O11_49
REMARK   22  A    between atoms: C38_50  and  C39_51
REMARK   23  A    between atoms: C40_53  and  N2_56
REMARK   24  A    between atoms: C41_54  and  O13_55
REMARK   25  A    between atoms: N2_56  and  C42_57
REMARK   26  A    between atoms: N2_56  and  C43_58
REMARK   27  A    between atoms: O14_59  and  C44_60
REMARK   28  A    between atoms: C44_60  and  C45_61
REMARK                            x       y       z     vdW  Elec       q    Type
REMARK                         _______ _______ _______ _____ _____    ______ ____
ROOT
ATOM      1  C2  UNL     1      74.472  62.550 104.667  0.00  0.00    +0.000 C 
ATOM      2  C3  UNL     1      75.679  63.049 103.829  0.00  0.00    +0.000 C 
ATOM      3  C4  UNL     1      75.187  64.035 102.742  0.00  0.00    +0.000 C 
ATOM      4  C5  UNL     1      76.276  64.690 101.941  0.00  0.00    +0.000 C 
ATOM      5  O2  UNL     1      75.954  65.509 101.036  0.00  0.00    +0.000 OA
ATOM      6  O3  UNL     1      77.623  64.366 102.148  0.00  0.00    +0.000 OA
ATOM      7  C6  UNL     1      78.651  64.652 101.193  0.00  0.00    +0.000 C 
ATOM      8  C7  UNL     1      80.016  64.522 101.870  0.00  0.00    +0.000 C 
ATOM      9  C8  UNL     1      78.533  63.706  99.981  0.00  0.00    +0.000 C 
ATOM     10  C9  UNL     1      78.248  62.291 100.411  0.00  0.00    +0.000 C 
ATOM     11  C10 UNL     1      77.001  61.804 100.380  0.00  0.00    +0.000 C 
ATOM     12  C11 UNL     1      76.607  60.495 100.940  0.00  0.00    +0.000 C 
ATOM     13  C12 UNL     1      77.284  59.864 101.911  0.00  0.00    +0.000 C 
ATOM     14  C13 UNL     1      76.839  58.554 102.524  0.00  0.00    +0.000 C 
ATOM     15  C22 UNL     1      76.437  58.768 104.023  0.00  0.00    +0.000 C 
ATOM     16  C23 UNL     1      76.556  57.417 104.770  0.00  0.00    +0.000 C 
ATOM     17  C24 UNL     1      75.006  59.385 104.113  0.00  0.00    +0.000 C 
ATOM     18  C25 UNL     1      74.481  60.005 105.450  0.00  0.00    +0.000 C 
ATOM     19  C28 UNL     1      74.856  61.498 105.767  0.00  0.00    +0.000 C 
ENDROOT
BRANCH   1  21
ATOM     20  C1  UNL     1      72.199  62.597 104.131  0.00  0.00    +0.000 C 
ATOM     21  O1  UNL     1      73.461  62.053 103.803  0.00  0.00    +0.000 OA
ENDBRANCH   1  21
BRANCH  14  22
ATOM     22  O4  UNL     1      75.750  58.011 101.778  0.00  0.00    +0.000 OA
BRANCH  22  23
ATOM     23  C14 UNL     1      76.019  56.738 101.212  0.00  0.00    +0.000 C 
ATOM     24  C15 UNL     1      77.261  56.882 100.304  0.00  0.00    +0.000 C 
ATOM     25  C16 UNL     1      76.857  56.919  98.835  0.00  0.00    +0.000 C 
ATOM     26  C17 UNL     1      76.118  55.612  98.454  0.00  0.00    +0.000 C 
ATOM     27  C18 UNL     1      75.088  55.256  99.585  0.00  0.00    +0.000 C 
ATOM     28  C19 UNL     1      75.432  53.946 100.315  0.00  0.00    +0.000 C 
ATOM     29  O5  UNL     1      74.864  56.325 100.492  0.00  0.00    +0.000 OA
BRANCH  26  30
ATOM     30  N1  UNL     1      75.432  55.709  97.128  0.00  0.00    +0.000 NA
ATOM     31  C20 UNL     1      73.986  55.413  97.204  0.00  0.00    +0.000 C 
ATOM     32  C21 UNL     1      75.586  57.064  96.551  0.00  0.00    +0.000 C 
ENDBRANCH  26  30
ENDBRANCH  22  23
ENDBRANCH  14  22
BRANCH  18  33
ATOM     33  C26 UNL     1      74.601  59.072 106.695  0.00  0.00    +0.000 C 
BRANCH  33  34
ATOM     34  C27 UNL     1      73.425  58.167 106.968  0.00  0.00    +0.000 C 
ATOM     35  O6  UNL     1      73.198  57.176 106.293  0.00  0.00    +0.000 OA
ENDBRANCH  33  34
ENDBRANCH  18  33
BRANCH  19  36
ATOM     36  O7  UNL     1      74.105  61.848 106.924  0.00  0.00    +0.000 OA
BRANCH  36  37
ATOM     37  C29 UNL     1      74.642  62.903 107.704  0.00  0.00    +0.000 C 
ATOM     38  O8  UNL     1      75.397  62.296 108.738  0.00  0.00    +0.000 OA
ATOM     39  C30 UNL     1      76.057  63.272 109.512  0.00  0.00    +0.000 C 
ATOM     40  C31 UNL     1      77.101  62.576 110.388  0.00  0.00    +0.000 C 
ATOM     41  C32 UNL     1      75.019  64.042 110.362  0.00  0.00    +0.000 C 
ATOM     42  C40 UNL     1      73.903  64.661 109.474  0.00  0.00    +0.000 C 
ATOM     43  C41 UNL     1      73.469  63.720 108.300  0.00  0.00    +0.000 C 
BRANCH  42  44
ATOM     44  N2  UNL     1      74.187  66.078 109.096  0.00  0.00    +0.000 NA
ATOM     45  C42 UNL     1      73.941  66.431 107.690  0.00  0.00    +0.000 C 
ATOM     46  C43 UNL     1      73.509  67.038 109.991  0.00  0.00    +0.000 C 
ENDBRANCH  42  44
BRANCH  43  47
ATOM     47  O13 UNL     1      72.495  62.819 108.769  0.00  0.00    +0.000 OA
ATOM     48  H67 UNL     1      72.530  62.845 109.762  0.00  0.00    +0.000 HD
ENDBRANCH  43  47
BRANCH  41  49
ATOM     49  O9  UNL     1      74.399  63.118 111.251  0.00  0.00    +0.000 OA
BRANCH  49  50
ATOM     50  C33 UNL     1      74.508  63.476 112.616  0.00  0.00    +0.000 C 
ATOM     51  C34 UNL     1      74.990  64.941 112.706  0.00  0.00    +0.000 C 
ATOM     52  C35 UNL     1      74.435  65.677 113.959  0.00  0.00    +0.000 C 
ATOM     53  C36 UNL     1      73.125  66.412 113.602  0.00  0.00    +0.000 C 
ATOM     54  C37 UNL     1      74.180  64.651 115.099  0.00  0.00    +0.000 C 
ATOM     55  C38 UNL     1      73.237  63.509 114.606  0.00  0.00    +0.000 C 
ATOM     56  C39 UNL     1      73.464  62.165 115.312  0.00  0.00    +0.000 C 
ATOM     57  O12 UNL     1      73.222  63.340 113.193  0.00  0.00    +0.000 OA
BRANCH  52  58
ATOM     58  O10 UNL     1      75.344  66.665 114.391  0.00  0.00    +0.000 OA
ATOM     59  H58 UNL     1      76.245  66.260 114.483  0.00  0.00    +0.000 HD
ENDBRANCH  52  58
BRANCH  54  60
ATOM     60  O11 UNL     1      75.405  64.113 115.540  0.00  0.00    +0.000 OA
ATOM     61  H60 UNL     1      75.842  63.685 114.758  0.00  0.00    +0.000 HD
ENDBRANCH  54  60
ENDBRANCH  49  50
ENDBRANCH  41  49
ENDBRANCH  36  37
ENDBRANCH  19  36
BRANCH   2  62
ATOM     62  O14 UNL     1      76.606  63.731 104.684  0.00  0.00    +0.000 OA
BRANCH  62  63
ATOM     63  C44 UNL     1      77.713  63.123 105.288  0.00  0.00    +0.000 C 
ATOM     64  C45 UNL     1      78.449  62.052 104.558  0.00  0.00    +0.000 C 
ATOM     65  O15 UNL     1      78.072  63.437 106.453  0.00  0.00    +0.000 OA
ENDBRANCH  62  63
ENDBRANCH   2  62
TORSDOF 16
ENDMDL
MODEL 18
REMARK VINA RESULT:      -7.0      3.401      5.719
REMARK  Name = ./S3618.pdb
REMARK  28 active torsions:
REMARK  status: ('A' for Active; 'I' for Inactive)
REMARK    1  A    between atoms: C1_1  and  O1_2
REMARK    2  A    between atoms: O1_2  and  C2_3
REMARK    3  A    between atoms: C3_4  and  O14_59
REMARK    4  A    between atoms: C6_9  and  C7_10
REMARK    5  A    between atoms: C13_16  and  O4_17
REMARK    6  A    between atoms: O4_17  and  C14_18
REMARK    7  A    between atoms: C17_21  and  N1_25
REMARK    8  A    between atoms: C18_22  and  C19_23
REMARK    9  A    between atoms: N1_25  and  C20_26
REMARK   10  A    between atoms: N1_25  and  C21_27
REMARK   11  A    between atoms: C22_28  and  C23_29
REMARK   12  A    between atoms: C25_31  and  C26_32
REMARK   13  A    between atoms: C26_32  and  C27_33
REMARK   14  A    between atoms: C28_35  and  O7_36
REMARK   15  A    between atoms: O7_36  and  C29_37
REMARK   16  A    between atoms: C30_39  and  C31_40
REMARK   17  A    between atoms: C32_41  and  O9_42
REMARK   18  A    between atoms: O9_42  and  C33_43
REMARK   19  A    between atoms: C35_45  and  C36_46
REMARK   20  A    between atoms: C35_45  and  O10_47
REMARK   21  A    between atoms: C37_48  and  O11_49
REMARK   22  A    between atoms: C38_50  and  C39_51
REMARK   23  A    between atoms: C40_53  and  N2_56
REMARK   24  A    between atoms: C41_54  and  O13_55
REMARK   25  A    between atoms: N2_56  and  C42_57
REMARK   26  A    between atoms: N2_56  and  C43_58
REMARK   27  A    between atoms: O14_59  and  C44_60
REMARK   28  A    between atoms: C44_60  and  C45_61
REMARK                            x       y       z     vdW  Elec       q    Type
REMARK                         _______ _______ _______ _____ _____    ______ ____
ROOT
ATOM      1  C2  UNL     1      76.097  59.964 103.801  0.00  0.00    +0.000 C 
ATOM      2  C3  UNL     1      77.196  61.034 103.559  0.00  0.00    +0.000 C 
ATOM      3  C4  UNL     1      78.576  60.465 103.968  0.00  0.00    +0.000 C 
ATOM      4  C5  UNL     1      79.745  61.358 103.664  0.00  0.00    +0.000 C 
ATOM      5  O2  UNL     1      80.905  60.961 103.965  0.00  0.00    +0.000 OA
ATOM      6  O3  UNL     1      79.560  62.629 103.106  0.00  0.00    +0.000 OA
ATOM      7  C6  UNL     1      80.560  63.653 103.146  0.00  0.00    +0.000 C 
ATOM      8  C7  UNL     1      80.196  64.750 102.145  0.00  0.00    +0.000 C 
ATOM      9  C8  UNL     1      80.691  64.217 104.575  0.00  0.00    +0.000 C 
ATOM     10  C9  UNL     1      79.343  64.428 105.211  0.00  0.00    +0.000 C 
ATOM     11  C10 UNL     1      78.839  63.527 106.065  0.00  0.00    +0.000 C 
ATOM     12  C11 UNL     1      77.463  63.568 106.599  0.00  0.00    +0.000 C 
ATOM     13  C12 UNL     1      76.443  64.186 105.987  0.00  0.00    +0.000 C 
ATOM     14  C13 UNL     1      75.022  64.170 106.508  0.00  0.00    +0.000 C 
ATOM     15  C22 UNL     1      74.097  63.370 105.529  0.00  0.00    +0.000 C 
ATOM     16  C23 UNL     1      72.634  63.836 105.729  0.00  0.00    +0.000 C 
ATOM     17  C24 UNL     1      74.278  61.836 105.751  0.00  0.00    +0.000 C 
ATOM     18  C25 UNL     1      73.738  60.803 104.706  0.00  0.00    +0.000 C 
ATOM     19  C28 UNL     1      74.646  60.462 103.471  0.00  0.00    +0.000 C 
ENDROOT
BRANCH   1  21
ATOM     20  C1  UNL     1      76.166  58.063 105.156  0.00  0.00    +0.000 C 
ATOM     21  O1  UNL     1      76.188  59.476 105.132  0.00  0.00    +0.000 OA
ENDBRANCH   1  21
BRANCH  14  22
ATOM     22  O4  UNL     1      74.989  63.602 107.817  0.00  0.00    +0.000 OA
BRANCH  22  23
ATOM     23  C14 UNL     1      74.658  64.531 108.838  0.00  0.00    +0.000 C 
ATOM     24  C15 UNL     1      73.482  63.939 109.646  0.00  0.00    +0.000 C 
ATOM     25  C16 UNL     1      72.170  64.615 109.268  0.00  0.00    +0.000 C 
ATOM     26  C17 UNL     1      72.252  66.134 109.560  0.00  0.00    +0.000 C 
ATOM     27  C18 UNL     1      73.637  66.680 109.058  0.00  0.00    +0.000 C 
ATOM     28  C19 UNL     1      74.529  67.188 110.204  0.00  0.00    +0.000 C 
ATOM     29  O5  UNL     1      74.324  65.766 108.217  0.00  0.00    +0.000 OA
BRANCH  26  30
ATOM     30  N1  UNL     1      71.127  66.898 108.937  0.00  0.00    +0.000 NA
ATOM     31  C20 UNL     1      71.574  68.133 108.259  0.00  0.00    +0.000 C 
ATOM     32  C21 UNL     1      70.416  66.068 107.937  0.00  0.00    +0.000 C 
ENDBRANCH  26  30
ENDBRANCH  22  23
ENDBRANCH  14  22
BRANCH  18  33
ATOM     33  C26 UNL     1      72.236  60.985 104.325  0.00  0.00    +0.000 C 
BRANCH  33  34
ATOM     34  C27 UNL     1      71.226  60.447 105.309  0.00  0.00    +0.000 C 
ATOM     35  O6  UNL     1      70.085  60.875 105.367  0.00  0.00    +0.000 OA
ENDBRANCH  33  34
ENDBRANCH  18  33
BRANCH  19  36
ATOM     36  O7  UNL     1      74.002  59.381 102.805  0.00  0.00    +0.000 OA
BRANCH  36  37
ATOM     37  C29 UNL     1      74.200  59.323 101.402  0.00  0.00    +0.000 C 
ATOM     38  O8  UNL     1      73.412  60.357 100.841  0.00  0.00    +0.000 OA
ATOM     39  C30 UNL     1      73.622  60.444  99.450  0.00  0.00    +0.000 C 
ATOM     40  C31 UNL     1      73.021  61.758  98.947  0.00  0.00    +0.000 C 
ATOM     41  C32 UNL     1      72.981  59.220  98.755  0.00  0.00    +0.000 C 
ATOM     42  C40 UNL     1      73.522  57.885  99.343  0.00  0.00    +0.000 C 
ATOM     43  C41 UNL     1      73.719  57.941 100.895  0.00  0.00    +0.000 C 
BRANCH  42  44
ATOM     44  N2  UNL     1      74.672  57.337  98.563  0.00  0.00    +0.000 NA
ATOM     45  C42 UNL     1      74.777  57.788  97.167  0.00  0.00    +0.000 C 
ATOM     46  C43 UNL     1      75.959  57.530  99.261  0.00  0.00    +0.000 C 
ENDBRANCH  42  44
BRANCH  43  47
ATOM     47  O13 UNL     1      72.497  57.639 101.525  0.00  0.00    +0.000 OA
ATOM     48  H67 UNL     1      72.687  57.548 102.496  0.00  0.00    +0.000 HD
ENDBRANCH  43  47
BRANCH  41  49
ATOM     49  O9  UNL     1      71.578  59.257  98.994  0.00  0.00    +0.000 OA
BRANCH  49  50
ATOM     50  C33 UNL     1      70.794  59.155  97.819  0.00  0.00    +0.000 C 
ATOM     51  C34 UNL     1      69.760  60.302  97.814  0.00  0.00    +0.000 C 
ATOM     52  C35 UNL     1      69.409  60.785  96.377  0.00  0.00    +0.000 C 
ATOM     53  C36 UNL     1      70.321  61.966  95.980  0.00  0.00    +0.000 C 
ATOM     54  C37 UNL     1      69.585  59.611  95.373  0.00  0.00    +0.000 C 
ATOM     55  C38 UNL     1      71.026  59.017  95.473  0.00  0.00    +0.000 C 
ATOM     56  C39 UNL     1      71.112  57.528  95.113  0.00  0.00    +0.000 C 
ATOM     57  O12 UNL     1      71.673  59.274  96.714  0.00  0.00    +0.000 OA
BRANCH  52  58
ATOM     58  O10 UNL     1      68.085  61.268  96.331  0.00  0.00    +0.000 OA
ATOM     59  H58 UNL     1      67.583  60.773  95.631  0.00  0.00    +0.000 HD
ENDBRANCH  52  58
BRANCH  54  60
ATOM     60  O11 UNL     1      68.628  58.611  95.635  0.00  0.00    +0.000 OA
ATOM     61  H60 UNL     1      68.140  58.872  96.459  0.00  0.00    +0.000 HD
ENDBRANCH  54  60
ENDBRANCH  49  50
ENDBRANCH  41  49
ENDBRANCH  36  37
ENDBRANCH  19  36
BRANCH   2  62
ATOM     62  O14 UNL     1      77.231  61.376 102.168  0.00  0.00    +0.000 OA
BRANCH  62  63
ATOM     63  C44 UNL     1      76.604  62.500 101.618  0.00  0.00    +0.000 C 
ATOM     64  C45 UNL     1      76.302  63.671 102.490  0.00  0.00    +0.000 C 
ATOM     65  O15 UNL     1      76.253  62.523 100.409  0.00  0.00    +0.000 OA
ENDBRANCH  62  63
ENDBRANCH   2  62
TORSDOF 16
ENDMDL
MODEL 19
REMARK VINA RESULT:      -7.0      2.954     11.774
REMARK  Name = ./S3618.pdb
REMARK  28 active torsions:
REMARK  status: ('A' for Active; 'I' for Inactive)
REMARK    1  A    between atoms: C1_1  and  O1_2
REMARK    2  A    between atoms: O1_2  and  C2_3
REMARK    3  A    between atoms: C3_4  and  O14_59
REMARK    4  A    between atoms: C6_9  and  C7_10
REMARK    5  A    between atoms: C13_16  and  O4_17
REMARK    6  A    between atoms: O4_17  and  C14_18
REMARK    7  A    between atoms: C17_21  and  N1_25
REMARK    8  A    between atoms: C18_22  and  C19_23
REMARK    9  A    between atoms: N1_25  and  C20_26
REMARK   10  A    between atoms: N1_25  and  C21_27
REMARK   11  A    between atoms: C22_28  and  C23_29
REMARK   12  A    between atoms: C25_31  and  C26_32
REMARK   13  A    between atoms: C26_32  and  C27_33
REMARK   14  A    between atoms: C28_35  and  O7_36
REMARK   15  A    between atoms: O7_36  and  C29_37
REMARK   16  A    between atoms: C30_39  and  C31_40
REMARK   17  A    between atoms: C32_41  and  O9_42
REMARK   18  A    between atoms: O9_42  and  C33_43
REMARK   19  A    between atoms: C35_45  and  C36_46
REMARK   20  A    between atoms: C35_45  and  O10_47
REMARK   21  A    between atoms: C37_48  and  O11_49
REMARK   22  A    between atoms: C38_50  and  C39_51
REMARK   23  A    between atoms: C40_53  and  N2_56
REMARK   24  A    between atoms: C41_54  and  O13_55
REMARK   25  A    between atoms: N2_56  and  C42_57
REMARK   26  A    between atoms: N2_56  and  C43_58
REMARK   27  A    between atoms: O14_59  and  C44_60
REMARK   28  A    between atoms: C44_60  and  C45_61
REMARK                            x       y       z     vdW  Elec       q    Type
REMARK                         _______ _______ _______ _____ _____    ______ ____
ROOT
ATOM      1  C2  UNL     1      74.257  65.970 106.480  0.00  0.00    +0.000 C 
ATOM      2  C3  UNL     1      75.667  65.883 105.837  0.00  0.00    +0.000 C 
ATOM      3  C4  UNL     1      76.075  67.270 105.285  0.00  0.00    +0.000 C 
ATOM      4  C5  UNL     1      77.475  67.352 104.747  0.00  0.00    +0.000 C 
ATOM      5  O2  UNL     1      77.882  68.453 104.281  0.00  0.00    +0.000 OA
ATOM      6  O3  UNL     1      78.303  66.224 104.708  0.00  0.00    +0.000 OA
ATOM      7  C6  UNL     1      79.470  66.139 103.884  0.00  0.00    +0.000 C 
ATOM      8  C7  UNL     1      80.332  64.965 104.351  0.00  0.00    +0.000 C 
ATOM      9  C8  UNL     1      79.070  65.988 102.403  0.00  0.00    +0.000 C 
ATOM     10  C9  UNL     1      77.933  65.015 102.235  0.00  0.00    +0.000 C 
ATOM     11  C10 UNL     1      76.674  65.449 102.096  0.00  0.00    +0.000 C 
ATOM     12  C11 UNL     1      75.487  64.571 102.098  0.00  0.00    +0.000 C 
ATOM     13  C12 UNL     1      75.455  63.360 102.676  0.00  0.00    +0.000 C 
ATOM     14  C13 UNL     1      74.217  62.492 102.729  0.00  0.00    +0.000 C 
ATOM     15  C22 UNL     1      73.723  62.346 104.209  0.00  0.00    +0.000 C 
ATOM     16  C23 UNL     1      72.877  61.054 104.328  0.00  0.00    +0.000 C 
ATOM     17  C24 UNL     1      72.940  63.623 104.644  0.00  0.00    +0.000 C 
ATOM     18  C25 UNL     1      72.621  63.896 106.152  0.00  0.00    +0.000 C 
ATOM     19  C28 UNL     1      73.723  64.598 107.024  0.00  0.00    +0.000 C 
ENDROOT
BRANCH   1  21
ATOM     20  C1  UNL     1      72.579  67.567 106.182  0.00  0.00    +0.000 C 
ATOM     21  O1  UNL     1      73.346  66.556 105.562  0.00  0.00    +0.000 OA
ENDBRANCH   1  21
BRANCH  14  22
ATOM     22  O4  UNL     1      73.193  63.050 101.905  0.00  0.00    +0.000 OA
BRANCH  22  23
ATOM     23  C14 UNL     1      72.314  62.086 101.349  0.00  0.00    +0.000 C 
ATOM     24  C15 UNL     1      73.173  61.057 100.580  0.00  0.00    +0.000 C 
ATOM     25  C16 UNL     1      73.091  61.297  99.078  0.00  0.00    +0.000 C 
ATOM     26  C17 UNL     1      71.624  61.170  98.598  0.00  0.00    +0.000 C 
ATOM     27  C18 UNL     1      70.686  61.925  99.607  0.00  0.00    +0.000 C 
ATOM     28  C19 UNL     1      69.722  60.980 100.346  0.00  0.00    +0.000 C 
ATOM     29  O5  UNL     1      71.395  62.767 100.503  0.00  0.00    +0.000 OA
BRANCH  26  30
ATOM     30  N1  UNL     1      71.430  61.689  97.208  0.00  0.00    +0.000 NA
ATOM     31  C20 UNL     1      72.112  62.980  96.975  0.00  0.00    +0.000 C 
ATOM     32  C21 UNL     1      71.939  60.723  96.208  0.00  0.00    +0.000 C 
ENDBRANCH  26  30
ENDBRANCH  22  23
ENDBRANCH  14  22
BRANCH  18  33
ATOM     33  C26 UNL     1      71.919  62.716 106.894  0.00  0.00    +0.000 C 
BRANCH  33  34
ATOM     34  C27 UNL     1      72.814  61.800 107.691  0.00  0.00    +0.000 C 
ATOM     35  O6  UNL     1      72.486  60.659 107.976  0.00  0.00    +0.000 OA
ENDBRANCH  33  34
ENDBRANCH  18  33
BRANCH  19  36
ATOM     36  O7  UNL     1      73.104  64.884 108.273  0.00  0.00    +0.000 OA
BRANCH  36  37
ATOM     37  C29 UNL     1      73.990  65.096 109.359  0.00  0.00    +0.000 C 
ATOM     38  O8  UNL     1      74.882  63.995 109.371  0.00  0.00    +0.000 OA
ATOM     39  C30 UNL     1      75.871  64.166 110.362  0.00  0.00    +0.000 C 
ATOM     40  C31 UNL     1      76.982  63.142 110.124  0.00  0.00    +0.000 C 
ATOM     41  C32 UNL     1      75.232  64.002 111.760  0.00  0.00    +0.000 C 
ATOM     42  C40 UNL     1      74.036  64.977 111.957  0.00  0.00    +0.000 C 
ATOM     43  C41 UNL     1      73.163  65.136 110.668  0.00  0.00    +0.000 C 
BRANCH  42  44
ATOM     44  N2  UNL     1      74.435  66.250 112.629  0.00  0.00    +0.000 NA
ATOM     45  C42 UNL     1      74.501  67.440 111.767  0.00  0.00    +0.000 C 
ATOM     46  C43 UNL     1      73.614  66.528 113.824  0.00  0.00    +0.000 C 
ENDBRANCH  42  44
BRANCH  43  47
ATOM     47  O13 UNL     1      72.215  64.097 110.623  0.00  0.00    +0.000 OA
ATOM     48  H67 UNL     1      71.384  64.479 110.234  0.00  0.00    +0.000 HD
ENDBRANCH  43  47
BRANCH  41  49
ATOM     49  O9  UNL     1      74.726  62.675 111.865  0.00  0.00    +0.000 OA
BRANCH  49  50
ATOM     50  C33 UNL     1      75.137  61.997 113.038  0.00  0.00    +0.000 C 
ATOM     51  C34 UNL     1      76.182  62.868 113.771  0.00  0.00    +0.000 C 
ATOM     52  C35 UNL     1      76.133  62.687 115.316  0.00  0.00    +0.000 C 
ATOM     53  C36 UNL     1      75.203  63.749 115.942  0.00  0.00    +0.000 C 
ATOM     54  C37 UNL     1      75.623  61.259 115.660  0.00  0.00    +0.000 C 
ATOM     55  C38 UNL     1      74.243  60.993 114.979  0.00  0.00    +0.000 C 
ATOM     56  C39 UNL     1      73.987  59.516 114.648  0.00  0.00    +0.000 C 
ATOM     57  O12 UNL     1      73.988  61.815 113.845  0.00  0.00    +0.000 OA
BRANCH  52  58
ATOM     58  O10 UNL     1      77.411  62.893 115.875  0.00  0.00    +0.000 OA
ATOM     59  H58 UNL     1      77.425  62.525 116.797  0.00  0.00    +0.000 HD
ENDBRANCH  52  58
BRANCH  54  60
ATOM     60  O11 UNL     1      76.565  60.301 115.239  0.00  0.00    +0.000 OA
ATOM     61  H60 UNL     1      76.785  60.494 114.290  0.00  0.00    +0.000 HD
ENDBRANCH  54  60
ENDBRANCH  49  50
ENDBRANCH  41  49
ENDBRANCH  36  37
ENDBRANCH  19  36
BRANCH   2  62
ATOM     62  O14 UNL     1      76.621  65.482 106.828  0.00  0.00    +0.000 OA
BRANCH  62  63
ATOM     63  C44 UNL     1      77.390  64.314 106.754  0.00  0.00    +0.000 C 
ATOM     64  C45 UNL     1      76.859  63.135 106.014  0.00  0.00    +0.000 C 
ATOM     65  O15 UNL     1      78.503  64.230 107.337  0.00  0.00    +0.000 OA
ENDBRANCH  62  63
ENDBRANCH   2  62
TORSDOF 16
ENDMDL
MODEL 20
REMARK VINA RESULT:      -7.0      4.466     10.841
REMARK  Name = ./S3618.pdb
REMARK  28 active torsions:
REMARK  status: ('A' for Active; 'I' for Inactive)
REMARK    1  A    between atoms: C1_1  and  O1_2
REMARK    2  A    between atoms: O1_2  and  C2_3
REMARK    3  A    between atoms: C3_4  and  O14_59
REMARK    4  A    between atoms: C6_9  and  C7_10
REMARK    5  A    between atoms: C13_16  and  O4_17
REMARK    6  A    between atoms: O4_17  and  C14_18
REMARK    7  A    between atoms: C17_21  and  N1_25
REMARK    8  A    between atoms: C18_22  and  C19_23
REMARK    9  A    between atoms: N1_25  and  C20_26
REMARK   10  A    between atoms: N1_25  and  C21_27
REMARK   11  A    between atoms: C22_28  and  C23_29
REMARK   12  A    between atoms: C25_31  and  C26_32
REMARK   13  A    between atoms: C26_32  and  C27_33
REMARK   14  A    between atoms: C28_35  and  O7_36
REMARK   15  A    between atoms: O7_36  and  C29_37
REMARK   16  A    between atoms: C30_39  and  C31_40
REMARK   17  A    between atoms: C32_41  and  O9_42
REMARK   18  A    between atoms: O9_42  and  C33_43
REMARK   19  A    between atoms: C35_45  and  C36_46
REMARK   20  A    between atoms: C35_45  and  O10_47
REMARK   21  A    between atoms: C37_48  and  O11_49
REMARK   22  A    between atoms: C38_50  and  C39_51
REMARK   23  A    between atoms: C40_53  and  N2_56
REMARK   24  A    between atoms: C41_54  and  O13_55
REMARK   25  A    between atoms: N2_56  and  C42_57
REMARK   26  A    between atoms: N2_56  and  C43_58
REMARK   27  A    between atoms: O14_59  and  C44_60
REMARK   28  A    between atoms: C44_60  and  C45_61
REMARK                            x       y       z     vdW  Elec       q    Type
REMARK                         _______ _______ _______ _____ _____    ______ ____
ROOT
ATOM      1  C2  UNL     1      74.463  62.567 104.679  0.00  0.00    +0.000 C 
ATOM      2  C3  UNL     1      75.660  63.082 103.837  0.00  0.00    +0.000 C 
ATOM      3  C4  UNL     1      75.148  64.031 102.728  0.00  0.00    +0.000 C 
ATOM      4  C5  UNL     1      76.223  64.699 101.919  0.00  0.00    +0.000 C 
ATOM      5  O2  UNL     1      75.884  65.491 100.996  0.00  0.00    +0.000 OA
ATOM      6  O3  UNL     1      77.577  64.416 102.139  0.00  0.00    +0.000 OA
ATOM      7  C6  UNL     1      78.602  64.710 101.184  0.00  0.00    +0.000 C 
ATOM      8  C7  UNL     1      79.967  64.631 101.870  0.00  0.00    +0.000 C 
ATOM      9  C8  UNL     1      78.517  63.738  99.991  0.00  0.00    +0.000 C 
ATOM     10  C9  UNL     1      78.267  62.325 100.447  0.00  0.00    +0.000 C 
ATOM     11  C10 UNL     1      77.034  61.803 100.421  0.00  0.00    +0.000 C 
ATOM     12  C11 UNL     1      76.672  60.496 101.005  0.00  0.00    +0.000 C 
ATOM     13  C12 UNL     1      77.360  59.903 101.992  0.00  0.00    +0.000 C 
ATOM     14  C13 UNL     1      76.948  58.594 102.629  0.00  0.00    +0.000 C 
ATOM     15  C22 UNL     1      76.532  58.827 104.121  0.00  0.00    +0.000 C 
ATOM     16  C23 UNL     1      76.683  57.495 104.897  0.00  0.00    +0.000 C 
ATOM     17  C24 UNL     1      75.085  59.407 104.192  0.00  0.00    +0.000 C 
ATOM     18  C25 UNL     1      74.536  60.040 105.514  0.00  0.00    +0.000 C 
ATOM     19  C28 UNL     1      74.868  61.548 105.802  0.00  0.00    +0.000 C 
ENDROOT
BRANCH   1  21
ATOM     20  C1  UNL     1      72.192  62.542 104.131  0.00  0.00    +0.000 C 
ATOM     21  O1  UNL     1      73.470  62.026 103.820  0.00  0.00    +0.000 OA
ENDBRANCH   1  21
BRANCH  14  22
ATOM     22  O4  UNL     1      75.878  58.007 101.889  0.00  0.00    +0.000 OA
BRANCH  22  23
ATOM     23  C14 UNL     1      76.222  56.788 101.249  0.00  0.00    +0.000 C 
ATOM     24  C15 UNL     1      75.110  55.763 101.564  0.00  0.00    +0.000 C 
ATOM     25  C16 UNL     1      75.570  54.777 102.632  0.00  0.00    +0.000 C 
ATOM     26  C17 UNL     1      76.823  54.009 102.142  0.00  0.00    +0.000 C 
ATOM     27  C18 UNL     1      77.818  55.023 101.472  0.00  0.00    +0.000 C 
ATOM     28  C19 UNL     1      78.012  54.763  99.968  0.00  0.00    +0.000 C 
ATOM     29  O5  UNL     1      77.494  56.379 101.738  0.00  0.00    +0.000 OA
BRANCH  26  30
ATOM     30  N1  UNL     1      77.499  53.257 103.244  0.00  0.00    +0.000 NA
ATOM     31  C20 UNL     1      78.957  53.496 103.295  0.00  0.00    +0.000 C 
ATOM     32  C21 UNL     1      76.936  53.630 104.562  0.00  0.00    +0.000 C 
ENDBRANCH  26  30
ENDBRANCH  22  23
ENDBRANCH  14  22
BRANCH  18  33
ATOM     33  C26 UNL     1      74.674  59.135 106.778  0.00  0.00    +0.000 C 
BRANCH  33  34
ATOM     34  C27 UNL     1      73.538  58.179 107.043  0.00  0.00    +0.000 C 
ATOM     35  O6  UNL     1      72.912  58.191 108.091  0.00  0.00    +0.000 OA
ENDBRANCH  33  34
ENDBRANCH  18  33
BRANCH  19  36
ATOM     36  O7  UNL     1      74.103  61.901 106.949  0.00  0.00    +0.000 OA
BRANCH  36  37
ATOM     37  C29 UNL     1      74.644  62.939 107.749  0.00  0.00    +0.000 C 
ATOM     38  O8  UNL     1      75.369  62.307 108.790  0.00  0.00    +0.000 OA
ATOM     39  C30 UNL     1      76.031  63.264 109.586  0.00  0.00    +0.000 C 
ATOM     40  C31 UNL     1      77.046  62.540 110.473  0.00  0.00    +0.000 C 
ATOM     41  C32 UNL     1      74.992  64.044 110.425  0.00  0.00    +0.000 C 
ATOM     42  C40 UNL     1      73.904  64.692 109.522  0.00  0.00    +0.000 C 
ATOM     43  C41 UNL     1      73.475  63.771 108.331  0.00  0.00    +0.000 C 
BRANCH  42  44
ATOM     44  N2  UNL     1      74.221  66.108 109.164  0.00  0.00    +0.000 NA
ATOM     45  C42 UNL     1      73.989  66.484 107.761  0.00  0.00    +0.000 C 
ATOM     46  C43 UNL     1      73.559  67.070 110.068  0.00  0.00    +0.000 C 
ENDBRANCH  42  44
BRANCH  43  47
ATOM     47  O13 UNL     1      72.477  62.883 108.773  0.00  0.00    +0.000 OA
ATOM     48  H67 UNL     1      71.605  63.255 108.475  0.00  0.00    +0.000 HD
ENDBRANCH  43  47
BRANCH  41  49
ATOM     49  O9  UNL     1      74.339  63.123 111.292  0.00  0.00    +0.000 OA
BRANCH  49  50
ATOM     50  C33 UNL     1      74.436  63.461 112.664  0.00  0.00    +0.000 C 
ATOM     51  C34 UNL     1      74.978  64.903 112.780  0.00  0.00    +0.000 C 
ATOM     52  C35 UNL     1      74.430  65.649 114.030  0.00  0.00    +0.000 C 
ATOM     53  C36 UNL     1      73.160  66.443 113.656  0.00  0.00    +0.000 C 
ATOM     54  C37 UNL     1      74.109  64.623 115.153  0.00  0.00    +0.000 C 
ATOM     55  C38 UNL     1      73.128  63.527 114.628  0.00  0.00    +0.000 C 
ATOM     56  C39 UNL     1      73.283  62.168 115.323  0.00  0.00    +0.000 C 
ATOM     57  O12 UNL     1      73.133  63.374 113.213  0.00  0.00    +0.000 OA
BRANCH  52  58
ATOM     58  O10 UNL     1      75.371  66.593 114.491  0.00  0.00    +0.000 OA
ATOM     59  H58 UNL     1      75.974  66.156 115.148  0.00  0.00    +0.000 HD
ENDBRANCH  52  58
BRANCH  54  60
ATOM     60  O11 UNL     1      75.301  64.028 115.611  0.00  0.00    +0.000 OA
ATOM     61  H60 UNL     1      76.013  64.719 115.575  0.00  0.00    +0.000 HD
ENDBRANCH  54  60
ENDBRANCH  49  50
ENDBRANCH  41  49
ENDBRANCH  36  37
ENDBRANCH  19  36
BRANCH   2  62
ATOM     62  O14 UNL     1      76.564  63.805 104.683  0.00  0.00    +0.000 OA
BRANCH  62  63
ATOM     63  C44 UNL     1      77.689  63.242 105.297  0.00  0.00    +0.000 C 
ATOM     64  C45 UNL     1      78.435  62.155 104.602  0.00  0.00    +0.000 C 
ATOM     65  O15 UNL     1      78.057  63.610 106.444  0.00  0.00    +0.000 OA
ENDBRANCH  62  63
ENDBRANCH   2  62
TORSDOF 16
ENDMDL
