MODEL 1
REMARK VINA RESULT:      -7.1      0.000      0.000
REMARK  Name = ./S3722.pdb
REMARK  9 active torsions:
REMARK  status: ('A' for Active; 'I' for Inactive)
REMARK    1  A    between atoms: C1_1  and  C2_2
REMARK    2  A    between atoms: C2_2  and  C3_3
REMARK    3  A    between atoms: C2_2  and  C13_16
REMARK    4  A    between atoms: C4_5  and  C6_8
REMARK    5  A    between atoms: C9_11  and  C12_14
REMARK    6  A    between atoms: C13_16  and  O1_17
REMARK    7  A    between atoms: C13_16  and  C14_18
REMARK    8  A    between atoms: C13_16  and  C17_24
REMARK    9  A    between atoms: C14_18  and  N3_19
REMARK                            x       y       z     vdW  Elec       q    Type
REMARK                         _______ _______ _______ _____ _____    ______ ____
ROOT
ATOM      1  C13 UNL     1      62.664  59.564 110.339  0.00  0.00    +0.000 C 
ENDROOT
BRANCH   1   2
ATOM      2  C17 UNL     1      63.374  59.690 111.709  0.00  0.00    +0.000 A 
ATOM      3  C18 UNL     1      62.736  59.286 112.905  0.00  0.00    +0.000 A 
ATOM      4  C19 UNL     1      63.407  59.330 114.130  0.00  0.00    +0.000 A 
ATOM      5  C20 UNL     1      64.734  59.749 114.186  0.00  0.00    +0.000 A 
ATOM      6  C21 UNL     1      65.400  60.107 113.015  0.00  0.00    +0.000 A 
ATOM      7  C22 UNL     1      64.739  60.063 111.784  0.00  0.00    +0.000 A 
ATOM      8  F1  UNL     1      65.452  60.353 110.665  0.00  0.00    +0.000 F 
ATOM      9  F2  UNL     1      62.774  58.937 115.263  0.00  0.00    +0.000 F 
ENDBRANCH   1   2
BRANCH   1  11
ATOM     10  C1  UNL     1      64.371  57.775 109.524  0.00  0.00    +0.000 C 
ATOM     11  C2  UNL     1      62.892  58.110 109.795  0.00  0.00    +0.000 C 
BRANCH  11  12
ATOM     12  C3  UNL     1      62.033  57.771 108.597  0.00  0.00    +0.000 A 
ATOM     13  N1  UNL     1      62.297  58.240 107.358  0.00  0.00    +0.000 NA
ATOM     14  C4  UNL     1      61.453  57.740 106.414  0.00  0.00    +0.000 A 
ATOM     15  C5  UNL     1      60.494  56.853 106.908  0.00  0.00    +0.000 A 
ATOM     16  S1  UNL     1      60.734  56.700 108.564  0.00  0.00    +0.000 S 
BRANCH  14  17
ATOM     17  C6  UNL     1      61.611  58.089 104.980  0.00  0.00    +0.000 A 
ATOM     18  C7  UNL     1      60.890  57.375 104.003  0.00  0.00    +0.000 A 
ATOM     19  C8  UNL     1      61.018  57.694 102.649  0.00  0.00    +0.000 A 
ATOM     20  C9  UNL     1      61.870  58.729 102.248  0.00  0.00    +0.000 A 
ATOM     21  C10 UNL     1      62.597  59.441 103.209  0.00  0.00    +0.000 A 
ATOM     22  C11 UNL     1      62.470  59.124 104.565  0.00  0.00    +0.000 A 
BRANCH  20  23
ATOM     23  C12 UNL     1      62.001  59.056 100.853  0.00  0.00    +0.000 C 
ATOM     24  N2  UNL     1      62.106  59.321  99.732  0.00  0.00    +0.000 NA
ENDBRANCH  20  23
ENDBRANCH  14  17
ENDBRANCH  11  12
ENDBRANCH   1  11
BRANCH   1  25
ATOM     25  O1  UNL     1      63.254  60.446 109.408  0.00  0.00    +0.000 OA
ATOM     26  H10 UNL     1      63.039  60.134 108.491  0.00  0.00    +0.000 HD
ENDBRANCH   1  25
BRANCH   1  27
ATOM     27  C14 UNL     1      61.139  59.914 110.408  0.00  0.00    +0.000 C 
BRANCH  27  28
ATOM     28  N3  UNL     1      60.897  61.340 110.643  0.00  0.00    +0.000 N 
ATOM     29  C15 UNL     1      60.526  61.920 111.797  0.00  0.00    +0.000 A 
ATOM     30  N4  UNL     1      60.321  63.242 111.636  0.00  0.00    +0.000 NA
ATOM     31  C16 UNL     1      60.579  63.417 110.322  0.00  0.00    +0.000 A 
ATOM     32  N5  UNL     1      60.917  62.269 109.705  0.00  0.00    +0.000 NA
ENDBRANCH  27  28
ENDBRANCH   1  27
TORSDOF 8
ENDMDL
MODEL 2
REMARK VINA RESULT:      -7.0     11.298     13.314
REMARK  Name = ./S3722.pdb
REMARK  9 active torsions:
REMARK  status: ('A' for Active; 'I' for Inactive)
REMARK    1  A    between atoms: C1_1  and  C2_2
REMARK    2  A    between atoms: C2_2  and  C3_3
REMARK    3  A    between atoms: C2_2  and  C13_16
REMARK    4  A    between atoms: C4_5  and  C6_8
REMARK    5  A    between atoms: C9_11  and  C12_14
REMARK    6  A    between atoms: C13_16  and  O1_17
REMARK    7  A    between atoms: C13_16  and  C14_18
REMARK    8  A    between atoms: C13_16  and  C17_24
REMARK    9  A    between atoms: C14_18  and  N3_19
REMARK                            x       y       z     vdW  Elec       q    Type
REMARK                         _______ _______ _______ _____ _____    ______ ____
ROOT
ATOM      1  C13 UNL     1      74.697  64.334 111.661  0.00  0.00    +0.000 C 
ENDROOT
BRANCH   1   2
ATOM      2  C17 UNL     1      74.674  65.270 112.894  0.00  0.00    +0.000 A 
ATOM      3  C18 UNL     1      74.388  64.773 114.187  0.00  0.00    +0.000 A 
ATOM      4  C19 UNL     1      74.442  65.605 115.307  0.00  0.00    +0.000 A 
ATOM      5  C20 UNL     1      74.809  66.942 115.169  0.00  0.00    +0.000 A 
ATOM      6  C21 UNL     1      75.142  67.444 113.913  0.00  0.00    +0.000 A 
ATOM      7  C22 UNL     1      75.095  66.619 112.785  0.00  0.00    +0.000 A 
ATOM      8  F1  UNL     1      75.497  67.138 111.596  0.00  0.00    +0.000 F 
ATOM      9  F2  UNL     1      74.164  65.104 116.536  0.00  0.00    +0.000 F 
ENDBRANCH   1   2
BRANCH   1  11
ATOM     10  C1  UNL     1      72.178  64.851 111.253  0.00  0.00    +0.000 C 
ATOM     11  C2  UNL     1      73.596  64.817 110.653  0.00  0.00    +0.000 C 
BRANCH  11  12
ATOM     12  C3  UNL     1      73.609  64.069 109.339  0.00  0.00    +0.000 A 
ATOM     13  N1  UNL     1      73.186  62.791 109.226  0.00  0.00    +0.000 NA
ATOM     14  C4  UNL     1      73.199  62.342 107.941  0.00  0.00    +0.000 A 
ATOM     15  C5  UNL     1      73.643  63.280 107.006  0.00  0.00    +0.000 A 
ATOM     16  S1  UNL     1      74.012  64.698 107.829  0.00  0.00    +0.000 S 
BRANCH  14  17
ATOM     17  C6  UNL     1      72.718  60.980 107.598  0.00  0.00    +0.000 A 
ATOM     18  C7  UNL     1      71.833  60.804 106.517  0.00  0.00    +0.000 A 
ATOM     19  C8  UNL     1      71.376  59.529 106.172  0.00  0.00    +0.000 A 
ATOM     20  C9  UNL     1      71.791  58.412 106.904  0.00  0.00    +0.000 A 
ATOM     21  C10 UNL     1      72.664  58.576 107.985  0.00  0.00    +0.000 A 
ATOM     22  C11 UNL     1      73.124  59.850 108.331  0.00  0.00    +0.000 A 
BRANCH  20  23
ATOM     23  C12 UNL     1      71.319  57.099 106.549  0.00  0.00    +0.000 C 
ATOM     24  N2  UNL     1      70.938  56.045 106.263  0.00  0.00    +0.000 NA
ENDBRANCH  20  23
ENDBRANCH  14  17
ENDBRANCH  11  12
ENDBRANCH   1  11
BRANCH   1  25
ATOM     25  O1  UNL     1      74.350  63.021 112.046  0.00  0.00    +0.000 OA
ATOM     26  H10 UNL     1      74.829  62.379 111.462  0.00  0.00    +0.000 HD
ENDBRANCH   1  25
BRANCH   1  27
ATOM     27  C14 UNL     1      76.103  64.260 110.977  0.00  0.00    +0.000 C 
BRANCH  27  28
ATOM     28  N3  UNL     1      76.913  63.141 111.469  0.00  0.00    +0.000 N 
ATOM     29  C15 UNL     1      77.505  62.185 110.734  0.00  0.00    +0.000 A 
ATOM     30  N4  UNL     1      78.109  61.270 111.518  0.00  0.00    +0.000 NA
ATOM     31  C16 UNL     1      77.835  61.726 112.759  0.00  0.00    +0.000 A 
ATOM     32  N5  UNL     1      77.099  62.853 112.743  0.00  0.00    +0.000 NA
ENDBRANCH  27  28
ENDBRANCH   1  27
TORSDOF 8
ENDMDL
MODEL 3
REMARK VINA RESULT:      -7.0      3.330      8.292
REMARK  Name = ./S3722.pdb
REMARK  9 active torsions:
REMARK  status: ('A' for Active; 'I' for Inactive)
REMARK    1  A    between atoms: C1_1  and  C2_2
REMARK    2  A    between atoms: C2_2  and  C3_3
REMARK    3  A    between atoms: C2_2  and  C13_16
REMARK    4  A    between atoms: C4_5  and  C6_8
REMARK    5  A    between atoms: C9_11  and  C12_14
REMARK    6  A    between atoms: C13_16  and  O1_17
REMARK    7  A    between atoms: C13_16  and  C14_18
REMARK    8  A    between atoms: C13_16  and  C17_24
REMARK    9  A    between atoms: C14_18  and  N3_19
REMARK                            x       y       z     vdW  Elec       q    Type
REMARK                         _______ _______ _______ _____ _____    ______ ____
ROOT
ATOM      1  C13 UNL     1      63.084  57.957 106.415  0.00  0.00    +0.000 C 
ENDROOT
BRANCH   1   2
ATOM      2  C17 UNL     1      63.265  58.456 104.961  0.00  0.00    +0.000 A 
ATOM      3  C18 UNL     1      63.733  57.594 103.942  0.00  0.00    +0.000 A 
ATOM      4  C19 UNL     1      63.823  58.026 102.617  0.00  0.00    +0.000 A 
ATOM      5  C20 UNL     1      63.424  59.316 102.273  0.00  0.00    +0.000 A 
ATOM      6  C21 UNL     1      62.916  60.170 103.250  0.00  0.00    +0.000 A 
ATOM      7  C22 UNL     1      62.817  59.746 104.579  0.00  0.00    +0.000 A 
ATOM      8  F1  UNL     1      62.249  60.589 105.479  0.00  0.00    +0.000 F 
ATOM      9  F2  UNL     1      64.274  57.180 101.658  0.00  0.00    +0.000 F 
ENDBRANCH   1   2
BRANCH   1  11
ATOM     10  C1  UNL     1      65.445  58.317 107.454  0.00  0.00    +0.000 C 
ATOM     11  C2  UNL     1      63.994  58.825 107.353  0.00  0.00    +0.000 C 
BRANCH  11  12
ATOM     12  C3  UNL     1      63.405  59.052 108.728  0.00  0.00    +0.000 A 
ATOM     13  N1  UNL     1      62.729  60.175 109.052  0.00  0.00    +0.000 NA
ATOM     14  C4  UNL     1      62.208  60.134 110.309  0.00  0.00    +0.000 A 
ATOM     15  C5  UNL     1      62.473  58.952 111.005  0.00  0.00    +0.000 A 
ATOM     16  S1  UNL     1      63.372  57.950 110.001  0.00  0.00    +0.000 S 
BRANCH  14  17
ATOM     17  C6  UNL     1      61.383  61.250 110.836  0.00  0.00    +0.000 A 
ATOM     18  C7  UNL     1      61.051  61.287 112.204  0.00  0.00    +0.000 A 
ATOM     19  C8  UNL     1      60.283  62.333 112.722  0.00  0.00    +0.000 A 
ATOM     20  C9  UNL     1      59.831  63.356 111.881  0.00  0.00    +0.000 A 
ATOM     21  C10 UNL     1      60.148  63.326 110.519  0.00  0.00    +0.000 A 
ATOM     22  C11 UNL     1      60.918  62.281 109.998  0.00  0.00    +0.000 A 
BRANCH  20  23
ATOM     23  C12 UNL     1      59.040  64.433 112.415  0.00  0.00    +0.000 C 
ATOM     24  N2  UNL     1      58.403  65.299 112.843  0.00  0.00    +0.000 NA
ENDBRANCH  20  23
ENDBRANCH  14  17
ENDBRANCH  11  12
ENDBRANCH   1  11
BRANCH   1  25
ATOM     25  O1  UNL     1      63.537  56.624 106.527  0.00  0.00    +0.000 OA
ATOM     26  H10 UNL     1      63.416  56.322 107.464  0.00  0.00    +0.000 HD
ENDBRANCH   1  25
BRANCH   1  27
ATOM     27  C14 UNL     1      61.592  57.980 106.888  0.00  0.00    +0.000 C 
BRANCH  27  28
ATOM     28  N3  UNL     1      60.991  56.644 106.929  0.00  0.00    +0.000 N 
ATOM     29  C15 UNL     1      60.575  55.975 108.018  0.00  0.00    +0.000 A 
ATOM     30  N4  UNL     1      60.142  54.741 107.697  0.00  0.00    +0.000 NA
ATOM     31  C16 UNL     1      60.332  54.705 106.361  0.00  0.00    +0.000 A 
ATOM     32  N5  UNL     1      60.859  55.848 105.884  0.00  0.00    +0.000 NA
ENDBRANCH  27  28
ENDBRANCH   1  27
TORSDOF 8
ENDMDL
MODEL 4
REMARK VINA RESULT:      -6.9      1.151      1.633
REMARK  Name = ./S3722.pdb
REMARK  9 active torsions:
REMARK  status: ('A' for Active; 'I' for Inactive)
REMARK    1  A    between atoms: C1_1  and  C2_2
REMARK    2  A    between atoms: C2_2  and  C3_3
REMARK    3  A    between atoms: C2_2  and  C13_16
REMARK    4  A    between atoms: C4_5  and  C6_8
REMARK    5  A    between atoms: C9_11  and  C12_14
REMARK    6  A    between atoms: C13_16  and  O1_17
REMARK    7  A    between atoms: C13_16  and  C14_18
REMARK    8  A    between atoms: C13_16  and  C17_24
REMARK    9  A    between atoms: C14_18  and  N3_19
REMARK                            x       y       z     vdW  Elec       q    Type
REMARK                         _______ _______ _______ _____ _____    ______ ____
ROOT
ATOM      1  C13 UNL     1      62.594  59.475 110.561  0.00  0.00    +0.000 C 
ENDROOT
BRANCH   1   2
ATOM      2  C17 UNL     1      62.614  59.171 112.079  0.00  0.00    +0.000 A 
ATOM      3  C18 UNL     1      63.529  59.816 112.944  0.00  0.00    +0.000 A 
ATOM      4  C19 UNL     1      63.494  59.597 114.323  0.00  0.00    +0.000 A 
ATOM      5  C20 UNL     1      62.532  58.752 114.873  0.00  0.00    +0.000 A 
ATOM      6  C21 UNL     1      61.590  58.142 114.048  0.00  0.00    +0.000 A 
ATOM      7  C22 UNL     1      61.613  58.358 112.667  0.00  0.00    +0.000 A 
ATOM      8  F1  UNL     1      60.631  57.797 111.916  0.00  0.00    +0.000 F 
ATOM      9  F2  UNL     1      64.382  60.227 115.131  0.00  0.00    +0.000 F 
ENDBRANCH   1   2
BRANCH   1  11
ATOM     10  C1  UNL     1      64.620  58.325 109.398  0.00  0.00    +0.000 C 
ATOM     11  C2  UNL     1      63.136  58.216 109.797  0.00  0.00    +0.000 C 
BRANCH  11  12
ATOM     12  C3  UNL     1      62.286  57.814 108.613  0.00  0.00    +0.000 A 
ATOM     13  N1  UNL     1      62.492  58.303 107.371  0.00  0.00    +0.000 NA
ATOM     14  C4  UNL     1      61.673  57.742 106.439  0.00  0.00    +0.000 A 
ATOM     15  C5  UNL     1      60.792  56.784 106.948  0.00  0.00    +0.000 A 
ATOM     16  S1  UNL     1      61.071  56.648 108.599  0.00  0.00    +0.000 S 
BRANCH  14  17
ATOM     17  C6  UNL     1      61.780  58.105 105.004  0.00  0.00    +0.000 A 
ATOM     18  C7  UNL     1      61.419  57.166 104.018  0.00  0.00    +0.000 A 
ATOM     19  C8  UNL     1      61.504  57.491 102.662  0.00  0.00    +0.000 A 
ATOM     20  C9  UNL     1      61.954  58.756 102.269  0.00  0.00    +0.000 A 
ATOM     21  C10 UNL     1      62.323  59.694 103.239  0.00  0.00    +0.000 A 
ATOM     22  C11 UNL     1      62.238  59.372 104.597  0.00  0.00    +0.000 A 
BRANCH  20  23
ATOM     23  C12 UNL     1      62.042  59.089 100.871  0.00  0.00    +0.000 C 
ATOM     24  N2  UNL     1      62.113  59.356  99.748  0.00  0.00    +0.000 NA
ENDBRANCH  20  23
ENDBRANCH  14  17
ENDBRANCH  11  12
ENDBRANCH   1  11
BRANCH   1  25
ATOM     25  O1  UNL     1      63.475  60.539 110.271  0.00  0.00    +0.000 OA
ATOM     26  H10 UNL     1      63.747  60.479 109.319  0.00  0.00    +0.000 HD
ENDBRANCH   1  25
BRANCH   1  27
ATOM     27  C14 UNL     1      61.177  59.891 110.040  0.00  0.00    +0.000 C 
BRANCH  27  28
ATOM     28  N3  UNL     1      60.717  61.160 110.610  0.00  0.00    +0.000 N 
ATOM     29  C15 UNL     1      59.698  61.342 111.467  0.00  0.00    +0.000 A 
ATOM     30  N4  UNL     1      59.505  62.650 111.726  0.00  0.00    +0.000 NA
ATOM     31  C16 UNL     1      60.456  63.239 110.970  0.00  0.00    +0.000 A 
ATOM     32  N5  UNL     1      61.189  62.347 110.278  0.00  0.00    +0.000 NA
ENDBRANCH  27  28
ENDBRANCH   1  27
TORSDOF 8
ENDMDL
MODEL 5
REMARK VINA RESULT:      -6.9      1.401      2.104
REMARK  Name = ./S3722.pdb
REMARK  9 active torsions:
REMARK  status: ('A' for Active; 'I' for Inactive)
REMARK    1  A    between atoms: C1_1  and  C2_2
REMARK    2  A    between atoms: C2_2  and  C3_3
REMARK    3  A    between atoms: C2_2  and  C13_16
REMARK    4  A    between atoms: C4_5  and  C6_8
REMARK    5  A    between atoms: C9_11  and  C12_14
REMARK    6  A    between atoms: C13_16  and  O1_17
REMARK    7  A    between atoms: C13_16  and  C14_18
REMARK    8  A    between atoms: C13_16  and  C17_24
REMARK    9  A    between atoms: C14_18  and  N3_19
REMARK                            x       y       z     vdW  Elec       q    Type
REMARK                         _______ _______ _______ _____ _____    ______ ____
ROOT
ATOM      1  C13 UNL     1      61.525  60.162 110.147  0.00  0.00    +0.000 C 
ENDROOT
BRANCH   1   2
ATOM      2  C17 UNL     1      62.532  59.964 111.306  0.00  0.00    +0.000 A 
ATOM      3  C18 UNL     1      63.921  60.141 111.108  0.00  0.00    +0.000 A 
ATOM      4  C19 UNL     1      64.821  60.037 112.171  0.00  0.00    +0.000 A 
ATOM      5  C20 UNL     1      64.354  59.782 113.459  0.00  0.00    +0.000 A 
ATOM      6  C21 UNL     1      62.986  59.650 113.689  0.00  0.00    +0.000 A 
ATOM      7  C22 UNL     1      62.077  59.757 112.632  0.00  0.00    +0.000 A 
ATOM      8  F1  UNL     1      60.752  59.693 112.920  0.00  0.00    +0.000 F 
ATOM      9  F2  UNL     1      66.148  60.211 111.956  0.00  0.00    +0.000 F 
ENDBRANCH   1   2
BRANCH   1  11
ATOM     10  C1  UNL     1      61.194  57.606 110.520  0.00  0.00    +0.000 C 
ATOM     11  C2  UNL     1      61.233  58.761 109.502  0.00  0.00    +0.000 C 
BRANCH  11  12
ATOM     12  C3  UNL     1      62.143  58.429 108.341  0.00  0.00    +0.000 A 
ATOM     13  N1  UNL     1      61.788  58.642 107.055  0.00  0.00    +0.000 NA
ATOM     14  C4  UNL     1      62.788  58.356 106.177  0.00  0.00    +0.000 A 
ATOM     15  C5  UNL     1      63.968  57.903 106.773  0.00  0.00    +0.000 A 
ATOM     16  S1  UNL     1      63.732  57.879 108.436  0.00  0.00    +0.000 S 
BRANCH  14  17
ATOM     17  C6  UNL     1      62.617  58.577 104.719  0.00  0.00    +0.000 A 
ATOM     18  C7  UNL     1      62.200  57.513 103.896  0.00  0.00    +0.000 A 
ATOM     19  C8  UNL     1      62.025  57.703 102.523  0.00  0.00    +0.000 A 
ATOM     20  C9  UNL     1      62.267  58.956 101.950  0.00  0.00    +0.000 A 
ATOM     21  C10 UNL     1      62.690  60.018 102.756  0.00  0.00    +0.000 A 
ATOM     22  C11 UNL     1      62.864  59.832 104.131  0.00  0.00    +0.000 A 
BRANCH  20  23
ATOM     23  C12 UNL     1      62.087  59.150 100.535  0.00  0.00    +0.000 C 
ATOM     24  N2  UNL     1      61.943  59.306  99.398  0.00  0.00    +0.000 NA
ENDBRANCH  20  23
ENDBRANCH  14  17
ENDBRANCH  11  12
ENDBRANCH   1  11
BRANCH   1  25
ATOM     25  O1  UNL     1      62.101  60.963 109.138  0.00  0.00    +0.000 OA
ATOM     26  H10 UNL     1      62.063  60.472 108.278  0.00  0.00    +0.000 HD
ENDBRANCH   1  25
BRANCH   1  27
ATOM     27  C14 UNL     1      60.203  60.867 110.601  0.00  0.00    +0.000 C 
BRANCH  27  28
ATOM     28  N3  UNL     1      60.383  62.300 110.849  0.00  0.00    +0.000 N 
ATOM     29  C15 UNL     1      60.287  62.938 112.028  0.00  0.00    +0.000 A 
ATOM     30  N4  UNL     1      60.440  64.267 111.878  0.00  0.00    +0.000 NA
ATOM     31  C16 UNL     1      60.622  64.390 110.546  0.00  0.00    +0.000 A 
ATOM     32  N5  UNL     1      60.577  63.205 109.908  0.00  0.00    +0.000 NA
ENDBRANCH  27  28
ENDBRANCH   1  27
TORSDOF 8
ENDMDL
MODEL 6
REMARK VINA RESULT:      -6.8     13.184     16.530
REMARK  Name = ./S3722.pdb
REMARK  9 active torsions:
REMARK  status: ('A' for Active; 'I' for Inactive)
REMARK    1  A    between atoms: C1_1  and  C2_2
REMARK    2  A    between atoms: C2_2  and  C3_3
REMARK    3  A    between atoms: C2_2  and  C13_16
REMARK    4  A    between atoms: C4_5  and  C6_8
REMARK    5  A    between atoms: C9_11  and  C12_14
REMARK    6  A    between atoms: C13_16  and  O1_17
REMARK    7  A    between atoms: C13_16  and  C14_18
REMARK    8  A    between atoms: C13_16  and  C17_24
REMARK    9  A    between atoms: C14_18  and  N3_19
REMARK                            x       y       z     vdW  Elec       q    Type
REMARK                         _______ _______ _______ _____ _____    ______ ____
ROOT
ATOM      1  C13 UNL     1      73.536  66.021 113.018  0.00  0.00    +0.000 C 
ENDROOT
BRANCH   1   2
ATOM      2  C17 UNL     1      73.161  66.475 111.586  0.00  0.00    +0.000 A 
ATOM      3  C18 UNL     1      73.965  67.398 110.876  0.00  0.00    +0.000 A 
ATOM      4  C19 UNL     1      73.666  67.748 109.557  0.00  0.00    +0.000 A 
ATOM      5  C20 UNL     1      72.579  67.167 108.908  0.00  0.00    +0.000 A 
ATOM      6  C21 UNL     1      71.799  66.220 109.570  0.00  0.00    +0.000 A 
ATOM      7  C22 UNL     1      72.092  65.859 110.889  0.00  0.00    +0.000 A 
ATOM      8  F1  UNL     1      71.347  64.881 111.464  0.00  0.00    +0.000 F 
ATOM      9  F2  UNL     1      74.452  68.635 108.898  0.00  0.00    +0.000 F 
ENDBRANCH   1   2
BRANCH   1  11
ATOM     10  C1  UNL     1      73.066  63.813 114.316  0.00  0.00    +0.000 C 
ATOM     11  C2  UNL     1      73.625  64.454 113.032  0.00  0.00    +0.000 C 
BRANCH  11  12
ATOM     12  C3  UNL     1      75.006  63.923 112.720  0.00  0.00    +0.000 A 
ATOM     13  N1  UNL     1      75.732  63.216 113.613  0.00  0.00    +0.000 NA
ATOM     14  C4  UNL     1      76.906  62.760 113.096  0.00  0.00    +0.000 A 
ATOM     15  C5  UNL     1      77.125  63.111 111.762  0.00  0.00    +0.000 A 
ATOM     16  S1  UNL     1      75.801  64.003 111.237  0.00  0.00    +0.000 S 
BRANCH  14  17
ATOM     17  C6  UNL     1      77.822  61.914 113.901  0.00  0.00    +0.000 A 
ATOM     18  C7  UNL     1      78.438  62.448 115.050  0.00  0.00    +0.000 A 
ATOM     19  C8  UNL     1      79.296  61.665 115.826  0.00  0.00    +0.000 A 
ATOM     20  C9  UNL     1      79.557  60.339 115.465  0.00  0.00    +0.000 A 
ATOM     21  C10 UNL     1      78.958  59.800 114.321  0.00  0.00    +0.000 A 
ATOM     22  C11 UNL     1      78.096  60.580 113.544  0.00  0.00    +0.000 A 
BRANCH  20  23
ATOM     23  C12 UNL     1      80.443  59.533 116.264  0.00  0.00    +0.000 C 
ATOM     24  N2  UNL     1      81.155  58.887 116.907  0.00  0.00    +0.000 NA
ENDBRANCH  20  23
ENDBRANCH  14  17
ENDBRANCH  11  12
ENDBRANCH   1  11
BRANCH   1  25
ATOM     25  O1  UNL     1      72.512  66.380 113.921  0.00  0.00    +0.000 OA
ATOM     26  H10 UNL     1      72.582  67.350 114.115  0.00  0.00    +0.000 HD
ENDBRANCH   1  25
BRANCH   1  27
ATOM     27  C14 UNL     1      74.861  66.671 113.538  0.00  0.00    +0.000 C 
BRANCH  27  28
ATOM     28  N3  UNL     1      74.794  67.033 114.957  0.00  0.00    +0.000 N 
ATOM     29  C15 UNL     1      75.266  66.324 115.997  0.00  0.00    +0.000 A 
ATOM     30  N4  UNL     1      74.967  66.918 117.168  0.00  0.00    +0.000 NA
ATOM     31  C16 UNL     1      74.282  68.013 116.772  0.00  0.00    +0.000 A 
ATOM     32  N5  UNL     1      74.160  68.087 115.433  0.00  0.00    +0.000 NA
ENDBRANCH  27  28
ENDBRANCH   1  27
TORSDOF 8
ENDMDL
MODEL 7
REMARK VINA RESULT:      -6.8      3.486      9.013
REMARK  Name = ./S3722.pdb
REMARK  9 active torsions:
REMARK  status: ('A' for Active; 'I' for Inactive)
REMARK    1  A    between atoms: C1_1  and  C2_2
REMARK    2  A    between atoms: C2_2  and  C3_3
REMARK    3  A    between atoms: C2_2  and  C13_16
REMARK    4  A    between atoms: C4_5  and  C6_8
REMARK    5  A    between atoms: C9_11  and  C12_14
REMARK    6  A    between atoms: C13_16  and  O1_17
REMARK    7  A    between atoms: C13_16  and  C14_18
REMARK    8  A    between atoms: C13_16  and  C17_24
REMARK    9  A    between atoms: C14_18  and  N3_19
REMARK                            x       y       z     vdW  Elec       q    Type
REMARK                         _______ _______ _______ _____ _____    ______ ____
ROOT
ATOM      1  C13 UNL     1      62.945  58.234 107.234  0.00  0.00    +0.000 C 
ENDROOT
BRANCH   1   2
ATOM      2  C17 UNL     1      63.024  58.417 105.699  0.00  0.00    +0.000 A 
ATOM      3  C18 UNL     1      62.976  59.702 105.110  0.00  0.00    +0.000 A 
ATOM      4  C19 UNL     1      63.124  59.869 103.731  0.00  0.00    +0.000 A 
ATOM      5  C20 UNL     1      63.350  58.765 102.913  0.00  0.00    +0.000 A 
ATOM      6  C21 UNL     1      63.450  57.493 103.473  0.00  0.00    +0.000 A 
ATOM      7  C22 UNL     1      63.307  57.315 104.853  0.00  0.00    +0.000 A 
ATOM      8  F1  UNL     1      63.483  56.067 105.358  0.00  0.00    +0.000 F 
ATOM      9  F2  UNL     1      63.074  61.112 103.191  0.00  0.00    +0.000 F 
ENDBRANCH   1   2
BRANCH   1  11
ATOM     10  C1  UNL     1      65.184  59.360 107.938  0.00  0.00    +0.000 C 
ATOM     11  C2  UNL     1      63.647  59.460 107.915  0.00  0.00    +0.000 C 
BRANCH  11  12
ATOM     12  C3  UNL     1      63.106  59.781 109.291  0.00  0.00    +0.000 A 
ATOM     13  N1  UNL     1      63.798  59.523 110.422  0.00  0.00    +0.000 NA
ATOM     14  C4  UNL     1      63.165  59.972 111.541  0.00  0.00    +0.000 A 
ATOM     15  C5  UNL     1      61.941  60.600 111.300  0.00  0.00    +0.000 A 
ATOM     16  S1  UNL     1      61.672  60.591 109.641  0.00  0.00    +0.000 S 
BRANCH  14  17
ATOM     17  C6  UNL     1      63.787  59.835 112.882  0.00  0.00    +0.000 A 
ATOM     18  C7  UNL     1      62.980  59.553 114.001  0.00  0.00    +0.000 A 
ATOM     19  C8  UNL     1      63.548  59.412 115.269  0.00  0.00    +0.000 A 
ATOM     20  C9  UNL     1      64.928  59.555 115.442  0.00  0.00    +0.000 A 
ATOM     21  C10 UNL     1      65.740  59.843 114.339  0.00  0.00    +0.000 A 
ATOM     22  C11 UNL     1      65.175  59.983 113.067  0.00  0.00    +0.000 A 
BRANCH  20  23
ATOM     23  C12 UNL     1      65.512  59.410 116.750  0.00  0.00    +0.000 C 
ATOM     24  N2  UNL     1      65.980  59.293 117.801  0.00  0.00    +0.000 NA
ENDBRANCH  20  23
ENDBRANCH  14  17
ENDBRANCH  11  12
ENDBRANCH   1  11
BRANCH   1  25
ATOM     25  O1  UNL     1      63.667  57.084 107.620  0.00  0.00    +0.000 OA
ATOM     26  H10 UNL     1      64.478  57.367 108.116  0.00  0.00    +0.000 HD
ENDBRANCH   1  25
BRANCH   1  27
ATOM     27  C14 UNL     1      61.478  58.057 107.752  0.00  0.00    +0.000 C 
BRANCH  27  28
ATOM     28  N3  UNL     1      60.906  56.755 107.396  0.00  0.00    +0.000 N 
ATOM     29  C15 UNL     1      60.063  56.490 106.384  0.00  0.00    +0.000 A 
ATOM     30  N4  UNL     1      59.680  55.199 106.393  0.00  0.00    +0.000 NA
ATOM     31  C16 UNL     1      60.331  54.710 107.470  0.00  0.00    +0.000 A 
ATOM     32  N5  UNL     1      61.069  55.647 108.095  0.00  0.00    +0.000 NA
ENDBRANCH  27  28
ENDBRANCH   1  27
TORSDOF 8
ENDMDL
MODEL 8
REMARK VINA RESULT:      -6.7      2.254      3.548
REMARK  Name = ./S3722.pdb
REMARK  9 active torsions:
REMARK  status: ('A' for Active; 'I' for Inactive)
REMARK    1  A    between atoms: C1_1  and  C2_2
REMARK    2  A    between atoms: C2_2  and  C3_3
REMARK    3  A    between atoms: C2_2  and  C13_16
REMARK    4  A    between atoms: C4_5  and  C6_8
REMARK    5  A    between atoms: C9_11  and  C12_14
REMARK    6  A    between atoms: C13_16  and  O1_17
REMARK    7  A    between atoms: C13_16  and  C14_18
REMARK    8  A    between atoms: C13_16  and  C17_24
REMARK    9  A    between atoms: C14_18  and  N3_19
REMARK                            x       y       z     vdW  Elec       q    Type
REMARK                         _______ _______ _______ _____ _____    ______ ____
ROOT
ATOM      1  C13 UNL     1      62.290  59.536 110.565  0.00  0.00    +0.000 C 
ENDROOT
BRANCH   1   2
ATOM      2  C17 UNL     1      61.569  60.561 111.473  0.00  0.00    +0.000 A 
ATOM      3  C18 UNL     1      61.575  60.425 112.881  0.00  0.00    +0.000 A 
ATOM      4  C19 UNL     1      60.988  61.392 113.701  0.00  0.00    +0.000 A 
ATOM      5  C20 UNL     1      60.409  62.528 113.139  0.00  0.00    +0.000 A 
ATOM      6  C21 UNL     1      60.431  62.709 111.757  0.00  0.00    +0.000 A 
ATOM      7  C22 UNL     1      61.019  61.749 110.928  0.00  0.00    +0.000 A 
ATOM      8  F1  UNL     1      61.079  62.006 109.596  0.00  0.00    +0.000 F 
ATOM      9  F2  UNL     1      61.007  61.239 115.048  0.00  0.00    +0.000 F 
ENDBRANCH   1   2
BRANCH   1  11
ATOM     10  C1  UNL     1      60.190  58.029 110.249  0.00  0.00    +0.000 C 
ATOM     11  C2  UNL     1      61.238  58.930 109.570  0.00  0.00    +0.000 C 
BRANCH  11  12
ATOM     12  C3  UNL     1      61.861  58.234 108.381  0.00  0.00    +0.000 A 
ATOM     13  N1  UNL     1      61.611  58.607 107.107  0.00  0.00    +0.000 NA
ATOM     14  C4  UNL     1      62.343  57.906 106.198  0.00  0.00    +0.000 A 
ATOM     15  C5  UNL     1      63.195  56.950 106.757  0.00  0.00    +0.000 A 
ATOM     16  S1  UNL     1      63.018  57.011 108.427  0.00  0.00    +0.000 S 
BRANCH  14  17
ATOM     17  C6  UNL     1      62.255  58.204 104.747  0.00  0.00    +0.000 A 
ATOM     18  C7  UNL     1      63.078  59.200 104.187  0.00  0.00    +0.000 A 
ATOM     19  C8  UNL     1      63.017  59.488 102.821  0.00  0.00    +0.000 A 
ATOM     20  C9  UNL     1      62.130  58.791 101.994  0.00  0.00    +0.000 A 
ATOM     21  C10 UNL     1      61.301  57.805 102.540  0.00  0.00    +0.000 A 
ATOM     22  C11 UNL     1      61.362  57.512 103.906  0.00  0.00    +0.000 A 
BRANCH  20  23
ATOM     23  C12 UNL     1      62.067  59.090 100.587  0.00  0.00    +0.000 C 
ATOM     24  N2  UNL     1      62.018  59.331  99.457  0.00  0.00    +0.000 NA
ENDBRANCH  20  23
ENDBRANCH  14  17
ENDBRANCH  11  12
ENDBRANCH   1  11
BRANCH   1  25
ATOM     25  O1  UNL     1      62.780  58.464 111.342  0.00  0.00    +0.000 OA
ATOM     26  H10 UNL     1      62.211  58.368 112.149  0.00  0.00    +0.000 HD
ENDBRANCH   1  25
BRANCH   1  27
ATOM     27  C14 UNL     1      63.510  60.150 109.799  0.00  0.00    +0.000 C 
BRANCH  27  28
ATOM     28  N3  UNL     1      64.783  59.916 110.487  0.00  0.00    +0.000 N 
ATOM     29  C15 UNL     1      65.823  59.190 110.043  0.00  0.00    +0.000 A 
ATOM     30  N4  UNL     1      66.804  59.127 110.964  0.00  0.00    +0.000 NA
ATOM     31  C16 UNL     1      66.289  59.845 111.985  0.00  0.00    +0.000 A 
ATOM     32  N5  UNL     1      65.059  60.319 111.713  0.00  0.00    +0.000 NA
ENDBRANCH  27  28
ENDBRANCH   1  27
TORSDOF 8
ENDMDL
MODEL 9
REMARK VINA RESULT:      -6.7     11.725     15.197
REMARK  Name = ./S3722.pdb
REMARK  9 active torsions:
REMARK  status: ('A' for Active; 'I' for Inactive)
REMARK    1  A    between atoms: C1_1  and  C2_2
REMARK    2  A    between atoms: C2_2  and  C3_3
REMARK    3  A    between atoms: C2_2  and  C13_16
REMARK    4  A    between atoms: C4_5  and  C6_8
REMARK    5  A    between atoms: C9_11  and  C12_14
REMARK    6  A    between atoms: C13_16  and  O1_17
REMARK    7  A    between atoms: C13_16  and  C14_18
REMARK    8  A    between atoms: C13_16  and  C17_24
REMARK    9  A    between atoms: C14_18  and  N3_19
REMARK                            x       y       z     vdW  Elec       q    Type
REMARK                         _______ _______ _______ _____ _____    ______ ____
ROOT
ATOM      1  C13 UNL     1      73.049  66.116 109.223  0.00  0.00    +0.000 C 
ENDROOT
BRANCH   1   2
ATOM      2  C17 UNL     1      72.317  67.082 108.261  0.00  0.00    +0.000 A 
ATOM      3  C18 UNL     1      72.753  67.258 106.927  0.00  0.00    +0.000 A 
ATOM      4  C19 UNL     1      72.046  68.072 106.039  0.00  0.00    +0.000 A 
ATOM      5  C20 UNL     1      70.876  68.706 106.451  0.00  0.00    +0.000 A 
ATOM      6  C21 UNL     1      70.400  68.512 107.746  0.00  0.00    +0.000 A 
ATOM      7  C22 UNL     1      71.098  67.696 108.642  0.00  0.00    +0.000 A 
ATOM      8  F1  UNL     1      70.555  67.483 109.868  0.00  0.00    +0.000 F 
ATOM      9  F2  UNL     1      72.484  68.224 104.764  0.00  0.00    +0.000 F 
ENDBRANCH   1   2
BRANCH   1  11
ATOM     10  C1  UNL     1      74.678  67.895 110.203  0.00  0.00    +0.000 C 
ATOM     11  C2  UNL     1      73.512  66.929 110.483  0.00  0.00    +0.000 C 
BRANCH  11  12
ATOM     12  C3  UNL     1      73.805  66.064 111.689  0.00  0.00    +0.000 A 
ATOM     13  N1  UNL     1      74.672  65.029 111.647  0.00  0.00    +0.000 NA
ATOM     14  C4  UNL     1      74.853  64.442 112.862  0.00  0.00    +0.000 A 
ATOM     15  C5  UNL     1      74.114  65.020 113.897  0.00  0.00    +0.000 A 
ATOM     16  S1  UNL     1      73.230  66.296 113.255  0.00  0.00    +0.000 S 
BRANCH  14  17
ATOM     17  C6  UNL     1      75.810  63.322 113.039  0.00  0.00    +0.000 A 
ATOM     18  C7  UNL     1      75.681  62.461 114.146  0.00  0.00    +0.000 A 
ATOM     19  C8  UNL     1      76.566  61.395 114.326  0.00  0.00    +0.000 A 
ATOM     20  C9  UNL     1      77.596  61.175 113.406  0.00  0.00    +0.000 A 
ATOM     21  C10 UNL     1      77.740  62.028 112.306  0.00  0.00    +0.000 A 
ATOM     22  C11 UNL     1      76.854  63.094 112.123  0.00  0.00    +0.000 A 
BRANCH  20  23
ATOM     23  C12 UNL     1      78.508  60.076 113.593  0.00  0.00    +0.000 C 
ATOM     24  N2  UNL     1      79.242  59.195 113.742  0.00  0.00    +0.000 NA
ENDBRANCH  20  23
ENDBRANCH  14  17
ENDBRANCH  11  12
ENDBRANCH   1  11
BRANCH   1  25
ATOM     25  O1  UNL     1      74.218  65.616 108.609  0.00  0.00    +0.000 OA
ATOM     26  H10 UNL     1      74.925  65.518 109.297  0.00  0.00    +0.000 HD
ENDBRANCH   1  25
BRANCH   1  27
ATOM     27  C14 UNL     1      72.176  64.882 109.631  0.00  0.00    +0.000 C 
BRANCH  27  28
ATOM     28  N3  UNL     1      72.398  63.722 108.763  0.00  0.00    +0.000 N 
ATOM     29  C15 UNL     1      71.764  63.437 107.613  0.00  0.00    +0.000 A 
ATOM     30  N4  UNL     1      72.166  62.253 107.114  0.00  0.00    +0.000 NA
ATOM     31  C16 UNL     1      73.065  61.841 108.033  0.00  0.00    +0.000 A 
ATOM     32  N5  UNL     1      73.206  62.717 109.046  0.00  0.00    +0.000 NA
ENDBRANCH  27  28
ENDBRANCH   1  27
TORSDOF 8
ENDMDL
MODEL 10
REMARK VINA RESULT:      -6.6      2.830      7.830
REMARK  Name = ./S3722.pdb
REMARK  9 active torsions:
REMARK  status: ('A' for Active; 'I' for Inactive)
REMARK    1  A    between atoms: C1_1  and  C2_2
REMARK    2  A    between atoms: C2_2  and  C3_3
REMARK    3  A    between atoms: C2_2  and  C13_16
REMARK    4  A    between atoms: C4_5  and  C6_8
REMARK    5  A    between atoms: C9_11  and  C12_14
REMARK    6  A    between atoms: C13_16  and  O1_17
REMARK    7  A    between atoms: C13_16  and  C14_18
REMARK    8  A    between atoms: C13_16  and  C17_24
REMARK    9  A    between atoms: C14_18  and  N3_19
REMARK                            x       y       z     vdW  Elec       q    Type
REMARK                         _______ _______ _______ _____ _____    ______ ____
ROOT
ATOM      1  C13 UNL     1      62.183  58.398 110.069  0.00  0.00    +0.000 C 
ENDROOT
BRANCH   1   2
ATOM      2  C17 UNL     1      63.266  59.077 110.941  0.00  0.00    +0.000 A 
ATOM      3  C18 UNL     1      63.096  59.225 112.338  0.00  0.00    +0.000 A 
ATOM      4  C19 UNL     1      64.107  59.769 113.133  0.00  0.00    +0.000 A 
ATOM      5  C20 UNL     1      65.318  60.153 112.560  0.00  0.00    +0.000 A 
ATOM      6  C21 UNL     1      65.528  59.974 111.195  0.00  0.00    +0.000 A 
ATOM      7  C22 UNL     1      64.524  59.426 110.390  0.00  0.00    +0.000 A 
ATOM      8  F1  UNL     1      64.804  59.207 109.080  0.00  0.00    +0.000 F 
ATOM      9  F2  UNL     1      63.921  59.900 114.470  0.00  0.00    +0.000 F 
ENDBRANCH   1   2
BRANCH   1  11
ATOM     10  C1  UNL     1      61.994  60.547 108.612  0.00  0.00    +0.000 C 
ATOM     11  C2  UNL     1      61.251  59.514 109.479  0.00  0.00    +0.000 C 
BRANCH  11  12
ATOM     12  C3  UNL     1      60.394  60.199 110.520  0.00  0.00    +0.000 A 
ATOM     13  N1  UNL     1      60.814  61.281 111.210  0.00  0.00    +0.000 NA
ATOM     14  C4  UNL     1      59.853  61.791 112.030  0.00  0.00    +0.000 A 
ATOM     15  C5  UNL     1      58.640  61.100 111.995  0.00  0.00    +0.000 A 
ATOM     16  S1  UNL     1      58.794  59.835 110.900  0.00  0.00    +0.000 S 
BRANCH  14  17
ATOM     17  C6  UNL     1      60.099  63.015 112.833  0.00  0.00    +0.000 A 
ATOM     18  C7  UNL     1      60.147  64.270 112.196  0.00  0.00    +0.000 A 
ATOM     19  C8  UNL     1      60.367  65.435 112.936  0.00  0.00    +0.000 A 
ATOM     20  C9  UNL     1      60.548  65.364 114.321  0.00  0.00    +0.000 A 
ATOM     21  C10 UNL     1      60.511  64.122 114.964  0.00  0.00    +0.000 A 
ATOM     22  C11 UNL     1      60.288  62.955 114.226  0.00  0.00    +0.000 A 
BRANCH  20  23
ATOM     23  C12 UNL     1      60.776  66.565 115.082  0.00  0.00    +0.000 C 
ATOM     24  N2  UNL     1      60.961  67.529 115.694  0.00  0.00    +0.000 NA
ENDBRANCH  20  23
ENDBRANCH  14  17
ENDBRANCH  11  12
ENDBRANCH   1  11
BRANCH   1  25
ATOM     25  O1  UNL     1      61.369  57.568 110.870  0.00  0.00    +0.000 OA
ATOM     26  H10 UNL     1      60.664  58.123 111.293  0.00  0.00    +0.000 HD
ENDBRANCH   1  25
BRANCH   1  27
ATOM     27  C14 UNL     1      62.785  57.501 108.936  0.00  0.00    +0.000 C 
BRANCH  27  28
ATOM     28  N3  UNL     1      61.754  56.864 108.111  0.00  0.00    +0.000 N 
ATOM     29  C15 UNL     1      61.478  57.116 106.820  0.00  0.00    +0.000 A 
ATOM     30  N4  UNL     1      60.418  56.399 106.399  0.00  0.00    +0.000 NA
ATOM     31  C16 UNL     1      60.070  55.715 107.510  0.00  0.00    +0.000 A 
ATOM     32  N5  UNL     1      60.865  55.998 108.559  0.00  0.00    +0.000 NA
ENDBRANCH  27  28
ENDBRANCH   1  27
TORSDOF 8
ENDMDL
MODEL 11
REMARK VINA RESULT:      -6.6      2.828      7.891
REMARK  Name = ./S3722.pdb
REMARK  9 active torsions:
REMARK  status: ('A' for Active; 'I' for Inactive)
REMARK    1  A    between atoms: C1_1  and  C2_2
REMARK    2  A    between atoms: C2_2  and  C3_3
REMARK    3  A    between atoms: C2_2  and  C13_16
REMARK    4  A    between atoms: C4_5  and  C6_8
REMARK    5  A    between atoms: C9_11  and  C12_14
REMARK    6  A    between atoms: C13_16  and  O1_17
REMARK    7  A    between atoms: C13_16  and  C14_18
REMARK    8  A    between atoms: C13_16  and  C17_24
REMARK    9  A    between atoms: C14_18  and  N3_19
REMARK                            x       y       z     vdW  Elec       q    Type
REMARK                         _______ _______ _______ _____ _____    ______ ____
ROOT
ATOM      1  C13 UNL     1      62.800  57.719 106.893  0.00  0.00    +0.000 C 
ENDROOT
BRANCH   1   2
ATOM      2  C17 UNL     1      64.261  58.017 107.310  0.00  0.00    +0.000 A 
ATOM      3  C18 UNL     1      65.296  57.082 107.073  0.00  0.00    +0.000 A 
ATOM      4  C19 UNL     1      66.624  57.384 107.381  0.00  0.00    +0.000 A 
ATOM      5  C20 UNL     1      66.954  58.632 107.906  0.00  0.00    +0.000 A 
ATOM      6  C21 UNL     1      65.960  59.588 108.104  0.00  0.00    +0.000 A 
ATOM      7  C22 UNL     1      64.627  59.297 107.796  0.00  0.00    +0.000 A 
ATOM      8  F1  UNL     1      63.708  60.285 107.940  0.00  0.00    +0.000 F 
ATOM      9  F2  UNL     1      67.599  56.472 107.145  0.00  0.00    +0.000 F 
ENDBRANCH   1   2
BRANCH   1  11
ATOM     10  C1  UNL     1      60.795  56.246 107.661  0.00  0.00    +0.000 C 
ATOM     11  C2  UNL     1      62.093  56.965 108.074  0.00  0.00    +0.000 C 
BRANCH  11  12
ATOM     12  C3  UNL     1      61.866  57.830 109.294  0.00  0.00    +0.000 A 
ATOM     13  N1  UNL     1      62.827  58.050 110.217  0.00  0.00    +0.000 NA
ATOM     14  C4  UNL     1      62.439  58.928 111.184  0.00  0.00    +0.000 A 
ATOM     15  C5  UNL     1      61.141  59.419 111.030  0.00  0.00    +0.000 A 
ATOM     16  S1  UNL     1      60.488  58.733 109.643  0.00  0.00    +0.000 S 
BRANCH  14  17
ATOM     17  C6  UNL     1      63.372  59.345 112.261  0.00  0.00    +0.000 A 
ATOM     18  C7  UNL     1      62.953  59.297 113.604  0.00  0.00    +0.000 A 
ATOM     19  C8  UNL     1      63.819  59.677 114.633  0.00  0.00    +0.000 A 
ATOM     20  C9  UNL     1      65.113  60.116 114.336  0.00  0.00    +0.000 A 
ATOM     21  C10 UNL     1      65.538  60.177 113.004  0.00  0.00    +0.000 A 
ATOM     22  C11 UNL     1      64.674  59.795 111.973  0.00  0.00    +0.000 A 
BRANCH  20  23
ATOM     23  C12 UNL     1      66.004  60.509 115.397  0.00  0.00    +0.000 C 
ATOM     24  N2  UNL     1      66.719  60.825 116.249  0.00  0.00    +0.000 NA
ENDBRANCH  20  23
ENDBRANCH  14  17
ENDBRANCH  11  12
ENDBRANCH   1  11
BRANCH   1  25
ATOM     25  O1  UNL     1      62.784  56.846 105.784  0.00  0.00    +0.000 OA
ATOM     26  H10 UNL     1      62.132  56.119 105.958  0.00  0.00    +0.000 HD
ENDBRANCH   1  25
BRANCH   1  27
ATOM     27  C14 UNL     1      62.008  59.006 106.482  0.00  0.00    +0.000 C 
BRANCH  27  28
ATOM     28  N3  UNL     1      62.130  59.312 105.054  0.00  0.00    +0.000 N 
ATOM     29  C15 UNL     1      62.995  60.164 104.479  0.00  0.00    +0.000 A 
ATOM     30  N4  UNL     1      62.780  60.257 103.153  0.00  0.00    +0.000 NA
ATOM     31  C16 UNL     1      61.734  59.424 102.969  0.00  0.00    +0.000 A 
ATOM     32  N5  UNL     1      61.322  58.854 104.117  0.00  0.00    +0.000 NA
ENDBRANCH  27  28
ENDBRANCH   1  27
TORSDOF 8
ENDMDL
MODEL 12
REMARK VINA RESULT:      -6.6     11.595     13.039
REMARK  Name = ./S3722.pdb
REMARK  9 active torsions:
REMARK  status: ('A' for Active; 'I' for Inactive)
REMARK    1  A    between atoms: C1_1  and  C2_2
REMARK    2  A    between atoms: C2_2  and  C3_3
REMARK    3  A    between atoms: C2_2  and  C13_16
REMARK    4  A    between atoms: C4_5  and  C6_8
REMARK    5  A    between atoms: C9_11  and  C12_14
REMARK    6  A    between atoms: C13_16  and  O1_17
REMARK    7  A    between atoms: C13_16  and  C14_18
REMARK    8  A    between atoms: C13_16  and  C17_24
REMARK    9  A    between atoms: C14_18  and  N3_19
REMARK                            x       y       z     vdW  Elec       q    Type
REMARK                         _______ _______ _______ _____ _____    ______ ____
ROOT
ATOM      1  C13 UNL     1      73.562  66.178 110.969  0.00  0.00    +0.000 C 
ENDROOT
BRANCH   1   2
ATOM      2  C17 UNL     1      73.929  66.530 112.431  0.00  0.00    +0.000 A 
ATOM      3  C18 UNL     1      73.318  65.866 113.520  0.00  0.00    +0.000 A 
ATOM      4  C19 UNL     1      73.705  66.131 114.835  0.00  0.00    +0.000 A 
ATOM      5  C20 UNL     1      74.727  67.042 115.093  0.00  0.00    +0.000 A 
ATOM      6  C21 UNL     1      75.378  67.674 114.036  0.00  0.00    +0.000 A 
ATOM      7  C22 UNL     1      75.001  67.413 112.715  0.00  0.00    +0.000 A 
ATOM      8  F1  UNL     1      75.713  68.000 111.719  0.00  0.00    +0.000 F 
ATOM      9  F2  UNL     1      73.104  65.482 115.862  0.00  0.00    +0.000 F 
ENDBRANCH   1   2
BRANCH   1  11
ATOM     10  C1  UNL     1      74.996  65.926 108.809  0.00  0.00    +0.000 C 
ATOM     11  C2  UNL     1      74.818  65.528 110.286  0.00  0.00    +0.000 C 
BRANCH  11  12
ATOM     12  C3  UNL     1      74.888  64.027 110.454  0.00  0.00    +0.000 A 
ATOM     13  N1  UNL     1      74.555  63.169 109.465  0.00  0.00    +0.000 NA
ATOM     14  C4  UNL     1      74.776  61.868 109.798  0.00  0.00    +0.000 A 
ATOM     15  C5  UNL     1      75.297  61.681 111.081  0.00  0.00    +0.000 A 
ATOM     16  S1  UNL     1      75.484  63.192 111.789  0.00  0.00    +0.000 S 
BRANCH  14  17
ATOM     17  C6  UNL     1      74.526  60.773 108.827  0.00  0.00    +0.000 A 
ATOM     18  C7  UNL     1      75.021  60.878 107.513  0.00  0.00    +0.000 A 
ATOM     19  C8  UNL     1      74.804  59.855 106.587  0.00  0.00    +0.000 A 
ATOM     20  C9  UNL     1      74.086  58.713 106.957  0.00  0.00    +0.000 A 
ATOM     21  C10 UNL     1      73.582  58.600 108.258  0.00  0.00    +0.000 A 
ATOM     22  C11 UNL     1      73.800  59.622 109.187  0.00  0.00    +0.000 A 
BRANCH  20  23
ATOM     23  C12 UNL     1      73.862  57.659 106.002  0.00  0.00    +0.000 C 
ATOM     24  N2  UNL     1      73.683  56.812 105.236  0.00  0.00    +0.000 NA
ENDBRANCH  20  23
ENDBRANCH  14  17
ENDBRANCH  11  12
ENDBRANCH   1  11
BRANCH   1  25
ATOM     25  O1  UNL     1      73.271  67.357 110.248  0.00  0.00    +0.000 OA
ATOM     26  H10 UNL     1      73.644  67.273 109.333  0.00  0.00    +0.000 HD
ENDBRANCH   1  25
BRANCH   1  27
ATOM     27  C14 UNL     1      72.309  65.246 110.860  0.00  0.00    +0.000 C 
BRANCH  27  28
ATOM     28  N3  UNL     1      71.503  65.520 109.667  0.00  0.00    +0.000 N 
ATOM     29  C15 UNL     1      71.528  64.850 108.501  0.00  0.00    +0.000 A 
ATOM     30  N4  UNL     1      70.709  65.419 107.595  0.00  0.00    +0.000 NA
ATOM     31  C16 UNL     1      70.204  66.468 108.278  0.00  0.00    +0.000 A 
ATOM     32  N5  UNL     1      70.687  66.548 109.532  0.00  0.00    +0.000 NA
ENDBRANCH  27  28
ENDBRANCH   1  27
TORSDOF 8
ENDMDL
MODEL 13
REMARK VINA RESULT:      -6.6     13.527     17.094
REMARK  Name = ./S3722.pdb
REMARK  9 active torsions:
REMARK  status: ('A' for Active; 'I' for Inactive)
REMARK    1  A    between atoms: C1_1  and  C2_2
REMARK    2  A    between atoms: C2_2  and  C3_3
REMARK    3  A    between atoms: C2_2  and  C13_16
REMARK    4  A    between atoms: C4_5  and  C6_8
REMARK    5  A    between atoms: C9_11  and  C12_14
REMARK    6  A    between atoms: C13_16  and  O1_17
REMARK    7  A    between atoms: C13_16  and  C14_18
REMARK    8  A    between atoms: C13_16  and  C17_24
REMARK    9  A    between atoms: C14_18  and  N3_19
REMARK                            x       y       z     vdW  Elec       q    Type
REMARK                         _______ _______ _______ _____ _____    ______ ____
ROOT
ATOM      1  C13 UNL     1      74.912  63.412 114.190  0.00  0.00    +0.000 C 
ENDROOT
BRANCH   1   2
ATOM      2  C17 UNL     1      74.922  64.926 114.513  0.00  0.00    +0.000 A 
ATOM      3  C18 UNL     1      74.946  65.390 115.849  0.00  0.00    +0.000 A 
ATOM      4  C19 UNL     1      75.030  66.754 116.137  0.00  0.00    +0.000 A 
ATOM      5  C20 UNL     1      75.122  67.683 115.102  0.00  0.00    +0.000 A 
ATOM      6  C21 UNL     1      75.148  67.249 113.778  0.00  0.00    +0.000 A 
ATOM      7  C22 UNL     1      75.068  65.885 113.479  0.00  0.00    +0.000 A 
ATOM      8  F1  UNL     1      75.169  65.509 112.179  0.00  0.00    +0.000 F 
ATOM      9  F2  UNL     1      75.052  67.175 117.425  0.00  0.00    +0.000 F 
ENDBRANCH   1   2
BRANCH   1  11
ATOM     10  C1  UNL     1      76.188  62.198 112.273  0.00  0.00    +0.000 C 
ATOM     11  C2  UNL     1      76.300  63.032 113.562  0.00  0.00    +0.000 C 
BRANCH  11  12
ATOM     12  C3  UNL     1      77.251  62.384 114.544  0.00  0.00    +0.000 A 
ATOM     13  N1  UNL     1      77.886  61.222 114.281  0.00  0.00    +0.000 NA
ATOM     14  C4  UNL     1      78.762  60.865 115.261  0.00  0.00    +0.000 A 
ATOM     15  C5  UNL     1      78.826  61.761 116.331  0.00  0.00    +0.000 A 
ATOM     16  S1  UNL     1      77.763  63.023 116.016  0.00  0.00    +0.000 S 
BRANCH  14  17
ATOM     17  C6  UNL     1      79.601  59.648 115.136  0.00  0.00    +0.000 A 
ATOM     18  C7  UNL     1      80.674  59.445 116.024  0.00  0.00    +0.000 A 
ATOM     19  C8  UNL     1      81.470  58.301 115.929  0.00  0.00    +0.000 A 
ATOM     20  C9  UNL     1      81.210  57.343 114.943  0.00  0.00    +0.000 A 
ATOM     21  C10 UNL     1      80.151  57.538 114.049  0.00  0.00    +0.000 A 
ATOM     22  C11 UNL     1      79.351  58.681 114.144  0.00  0.00    +0.000 A 
BRANCH  20  23
ATOM     23  C12 UNL     1      82.032  56.165 114.844  0.00  0.00    +0.000 C 
ATOM     24  N2  UNL     1      82.691  55.218 114.767  0.00  0.00    +0.000 NA
ENDBRANCH  20  23
ENDBRANCH  14  17
ENDBRANCH  11  12
ENDBRANCH   1  11
BRANCH   1  25
ATOM     25  O1  UNL     1      73.932  63.134 113.212  0.00  0.00    +0.000 OA
ATOM     26  H10 UNL     1      74.001  63.809 112.489  0.00  0.00    +0.000 HD
ENDBRANCH   1  25
BRANCH   1  27
ATOM     27  C14 UNL     1      74.588  62.523 115.437  0.00  0.00    +0.000 C 
BRANCH  27  28
ATOM     28  N3  UNL     1      73.251  61.926 115.373  0.00  0.00    +0.000 N 
ATOM     29  C15 UNL     1      72.188  62.233 116.136  0.00  0.00    +0.000 A 
ATOM     30  N4  UNL     1      71.140  61.435 115.856  0.00  0.00    +0.000 NA
ATOM     31  C16 UNL     1      71.637  60.629 114.893  0.00  0.00    +0.000 A 
ATOM     32  N5  UNL     1      72.921  60.908 114.600  0.00  0.00    +0.000 NA
ENDBRANCH  27  28
ENDBRANCH   1  27
TORSDOF 8
ENDMDL
MODEL 14
REMARK VINA RESULT:      -6.5     11.599     13.427
REMARK  Name = ./S3722.pdb
REMARK  9 active torsions:
REMARK  status: ('A' for Active; 'I' for Inactive)
REMARK    1  A    between atoms: C1_1  and  C2_2
REMARK    2  A    between atoms: C2_2  and  C3_3
REMARK    3  A    between atoms: C2_2  and  C13_16
REMARK    4  A    between atoms: C4_5  and  C6_8
REMARK    5  A    between atoms: C9_11  and  C12_14
REMARK    6  A    between atoms: C13_16  and  O1_17
REMARK    7  A    between atoms: C13_16  and  C14_18
REMARK    8  A    between atoms: C13_16  and  C17_24
REMARK    9  A    between atoms: C14_18  and  N3_19
REMARK                            x       y       z     vdW  Elec       q    Type
REMARK                         _______ _______ _______ _____ _____    ______ ____
ROOT
ATOM      1  C13 UNL     1      73.369  64.406 109.575  0.00  0.00    +0.000 C 
ENDROOT
BRANCH   1   2
ATOM      2  C17 UNL     1      74.458  64.098 110.632  0.00  0.00    +0.000 A 
ATOM      3  C18 UNL     1      74.520  64.814 111.850  0.00  0.00    +0.000 A 
ATOM      4  C19 UNL     1      75.455  64.483 112.833  0.00  0.00    +0.000 A 
ATOM      5  C20 UNL     1      76.329  63.416 112.637  0.00  0.00    +0.000 A 
ATOM      6  C21 UNL     1      76.257  62.665 111.465  0.00  0.00    +0.000 A 
ATOM      7  C22 UNL     1      75.322  62.985 110.476  0.00  0.00    +0.000 A 
ATOM      8  F1  UNL     1      75.244  62.180 109.386  0.00  0.00    +0.000 F 
ATOM      9  F2  UNL     1      75.495  65.184 113.993  0.00  0.00    +0.000 F 
ENDBRANCH   1   2
BRANCH   1  11
ATOM     10  C1  UNL     1      71.027  65.318 110.253  0.00  0.00    +0.000 C 
ATOM     11  C2  UNL     1      72.525  65.630 110.077  0.00  0.00    +0.000 C 
BRANCH  11  12
ATOM     12  C3  UNL     1      72.723  66.882 109.251  0.00  0.00    +0.000 A 
ATOM     13  N1  UNL     1      71.826  67.293 108.329  0.00  0.00    +0.000 NA
ATOM     14  C4  UNL     1      72.157  68.488 107.766  0.00  0.00    +0.000 A 
ATOM     15  C5  UNL     1      73.344  69.044 108.250  0.00  0.00    +0.000 A 
ATOM     16  S1  UNL     1      73.969  68.003 109.412  0.00  0.00    +0.000 S 
BRANCH  14  17
ATOM     17  C6  UNL     1      71.272  69.139 106.768  0.00  0.00    +0.000 A 
ATOM     18  C7  UNL     1      69.988  69.572 107.151  0.00  0.00    +0.000 A 
ATOM     19  C8  UNL     1      69.144  70.196 106.229  0.00  0.00    +0.000 A 
ATOM     20  C9  UNL     1      69.566  70.392 104.910  0.00  0.00    +0.000 A 
ATOM     21  C10 UNL     1      70.836  69.958 104.516  0.00  0.00    +0.000 A 
ATOM     22  C11 UNL     1      71.685  69.336 105.437  0.00  0.00    +0.000 A 
BRANCH  20  23
ATOM     23  C12 UNL     1      68.694  71.033 103.960  0.00  0.00    +0.000 C 
ATOM     24  N2  UNL     1      67.995  71.549 103.197  0.00  0.00    +0.000 NA
ENDBRANCH  20  23
ENDBRANCH  14  17
ENDBRANCH  11  12
ENDBRANCH   1  11
BRANCH   1  25
ATOM     25  O1  UNL     1      72.481  63.315 109.465  0.00  0.00    +0.000 OA
ATOM     26  H10 UNL     1      72.421  63.045 108.513  0.00  0.00    +0.000 HD
ENDBRANCH   1  25
BRANCH   1  27
ATOM     27  C14 UNL     1      73.960  64.669 108.149  0.00  0.00    +0.000 C 
BRANCH  27  28
ATOM     28  N3  UNL     1      73.226  63.963 107.095  0.00  0.00    +0.000 N 
ATOM     29  C15 UNL     1      72.296  64.476 106.271  0.00  0.00    +0.000 A 
ATOM     30  N4  UNL     1      71.774  63.526 105.472  0.00  0.00    +0.000 NA
ATOM     31  C16 UNL     1      72.432  62.416 105.871  0.00  0.00    +0.000 A 
ATOM     32  N5  UNL     1      73.307  62.665 106.864  0.00  0.00    +0.000 NA
ENDBRANCH  27  28
ENDBRANCH   1  27
TORSDOF 8
ENDMDL
MODEL 15
REMARK VINA RESULT:      -6.5      3.335      8.592
REMARK  Name = ./S3722.pdb
REMARK  9 active torsions:
REMARK  status: ('A' for Active; 'I' for Inactive)
REMARK    1  A    between atoms: C1_1  and  C2_2
REMARK    2  A    between atoms: C2_2  and  C3_3
REMARK    3  A    between atoms: C2_2  and  C13_16
REMARK    4  A    between atoms: C4_5  and  C6_8
REMARK    5  A    between atoms: C9_11  and  C12_14
REMARK    6  A    between atoms: C13_16  and  O1_17
REMARK    7  A    between atoms: C13_16  and  C14_18
REMARK    8  A    between atoms: C13_16  and  C17_24
REMARK    9  A    between atoms: C14_18  and  N3_19
REMARK                            x       y       z     vdW  Elec       q    Type
REMARK                         _______ _______ _______ _____ _____    ______ ____
ROOT
ATOM      1  C13 UNL     1      62.237  57.507 105.943  0.00  0.00    +0.000 C 
ENDROOT
BRANCH   1   2
ATOM      2  C17 UNL     1      61.479  56.485 105.062  0.00  0.00    +0.000 A 
ATOM      3  C18 UNL     1      60.127  56.690 104.699  0.00  0.00    +0.000 A 
ATOM      4  C19 UNL     1      59.468  55.805 103.843  0.00  0.00    +0.000 A 
ATOM      5  C20 UNL     1      60.147  54.713 103.308  0.00  0.00    +0.000 A 
ATOM      6  C21 UNL     1      61.493  54.514 103.612  0.00  0.00    +0.000 A 
ATOM      7  C22 UNL     1      62.163  55.397 104.465  0.00  0.00    +0.000 A 
ATOM      8  F1  UNL     1      63.490  55.200 104.673  0.00  0.00    +0.000 F 
ATOM      9  F2  UNL     1      58.172  56.024 103.510  0.00  0.00    +0.000 F 
ENDBRANCH   1   2
BRANCH   1  11
ATOM     10  C1  UNL     1      61.268  56.029 107.855  0.00  0.00    +0.000 C 
ATOM     11  C2  UNL     1      62.460  56.870 107.360  0.00  0.00    +0.000 C 
BRANCH  11  12
ATOM     12  C3  UNL     1      62.890  57.869 108.411  0.00  0.00    +0.000 A 
ATOM     13  N1  UNL     1      62.036  58.761 108.959  0.00  0.00    +0.000 NA
ATOM     14  C4  UNL     1      62.609  59.503 109.946  0.00  0.00    +0.000 A 
ATOM     15  C5  UNL     1      63.950  59.198 110.193  0.00  0.00    +0.000 A 
ATOM     16  S1  UNL     1      64.402  57.963 109.147  0.00  0.00    +0.000 S 
BRANCH  14  17
ATOM     17  C6  UNL     1      61.822  60.502 110.711  0.00  0.00    +0.000 A 
ATOM     18  C7  UNL     1      61.651  60.342 112.100  0.00  0.00    +0.000 A 
ATOM     19  C8  UNL     1      60.922  61.276 112.839  0.00  0.00    +0.000 A 
ATOM     20  C9  UNL     1      60.348  62.382 112.204  0.00  0.00    +0.000 A 
ATOM     21  C10 UNL     1      60.504  62.548 110.824  0.00  0.00    +0.000 A 
ATOM     22  C11 UNL     1      61.235  61.616 110.081  0.00  0.00    +0.000 A 
BRANCH  20  23
ATOM     23  C12 UNL     1      59.596  63.344 112.967  0.00  0.00    +0.000 C 
ATOM     24  N2  UNL     1      58.990  64.116 113.579  0.00  0.00    +0.000 NA
ENDBRANCH  20  23
ENDBRANCH  14  17
ENDBRANCH  11  12
ENDBRANCH   1  11
BRANCH   1  25
ATOM     25  O1  UNL     1      61.446  58.661 106.134  0.00  0.00    +0.000 OA
ATOM     26  H10 UNL     1      60.849  58.773 105.349  0.00  0.00    +0.000 HD
ENDBRANCH   1  25
BRANCH   1  27
ATOM     27  C14 UNL     1      63.591  57.973 105.309  0.00  0.00    +0.000 C 
BRANCH  27  28
ATOM     28  N3  UNL     1      63.400  58.797 104.112  0.00  0.00    +0.000 N 
ATOM     29  C15 UNL     1      63.637  58.443 102.837  0.00  0.00    +0.000 A 
ATOM     30  N4  UNL     1      63.421  59.473 101.996  0.00  0.00    +0.000 NA
ATOM     31  C16 UNL     1      63.054  60.463 102.837  0.00  0.00    +0.000 A 
ATOM     32  N5  UNL     1      63.049  60.070 104.125  0.00  0.00    +0.000 NA
ENDBRANCH  27  28
ENDBRANCH   1  27
TORSDOF 8
ENDMDL
MODEL 16
REMARK VINA RESULT:      -6.5     13.088     14.743
REMARK  Name = ./S3722.pdb
REMARK  9 active torsions:
REMARK  status: ('A' for Active; 'I' for Inactive)
REMARK    1  A    between atoms: C1_1  and  C2_2
REMARK    2  A    between atoms: C2_2  and  C3_3
REMARK    3  A    between atoms: C2_2  and  C13_16
REMARK    4  A    between atoms: C4_5  and  C6_8
REMARK    5  A    between atoms: C9_11  and  C12_14
REMARK    6  A    between atoms: C13_16  and  O1_17
REMARK    7  A    between atoms: C13_16  and  C14_18
REMARK    8  A    between atoms: C13_16  and  C17_24
REMARK    9  A    between atoms: C14_18  and  N3_19
REMARK                            x       y       z     vdW  Elec       q    Type
REMARK                         _______ _______ _______ _____ _____    ______ ____
ROOT
ATOM      1  C13 UNL     1      75.289  65.782 109.390  0.00  0.00    +0.000 C 
ENDROOT
BRANCH   1   2
ATOM      2  C17 UNL     1      76.382  64.717 109.646  0.00  0.00    +0.000 A 
ATOM      3  C18 UNL     1      77.492  64.582 108.780  0.00  0.00    +0.000 A 
ATOM      4  C19 UNL     1      78.515  63.671 109.055  0.00  0.00    +0.000 A 
ATOM      5  C20 UNL     1      78.468  62.895 110.211  0.00  0.00    +0.000 A 
ATOM      6  C21 UNL     1      77.410  63.043 111.105  0.00  0.00    +0.000 A 
ATOM      7  C22 UNL     1      76.383  63.954 110.841  0.00  0.00    +0.000 A 
ATOM      8  F1  UNL     1      75.411  64.111 111.777  0.00  0.00    +0.000 F 
ATOM      9  F2  UNL     1      79.569  63.561 108.209  0.00  0.00    +0.000 F 
ENDBRANCH   1   2
BRANCH   1  11
ATOM     10  C1  UNL     1      73.950  64.012 108.029  0.00  0.00    +0.000 C 
ATOM     11  C2  UNL     1      73.921  65.045 109.171  0.00  0.00    +0.000 C 
BRANCH  11  12
ATOM     12  C3  UNL     1      72.745  65.984 109.020  0.00  0.00    +0.000 A 
ATOM     13  N1  UNL     1      72.613  66.820 107.968  0.00  0.00    +0.000 NA
ATOM     14  C4  UNL     1      71.439  67.510 107.985  0.00  0.00    +0.000 A 
ATOM     15  C5  UNL     1      70.616  67.220 109.075  0.00  0.00    +0.000 A 
ATOM     16  S1  UNL     1      71.390  66.064 110.017  0.00  0.00    +0.000 S 
BRANCH  14  17
ATOM     17  C6  UNL     1      71.079  68.441 106.886  0.00  0.00    +0.000 A 
ATOM     18  C7  UNL     1      71.908  68.537 105.753  0.00  0.00    +0.000 A 
ATOM     19  C8  UNL     1      71.581  69.401 104.704  0.00  0.00    +0.000 A 
ATOM     20  C9  UNL     1      70.424  70.184 104.773  0.00  0.00    +0.000 A 
ATOM     21  C10 UNL     1      69.596  70.102 105.898  0.00  0.00    +0.000 A 
ATOM     22  C11 UNL     1      69.920  69.238 106.948  0.00  0.00    +0.000 A 
BRANCH  20  23
ATOM     23  C12 UNL     1      70.089  71.074 103.692  0.00  0.00    +0.000 C 
ATOM     24  N2  UNL     1      69.820  71.789 102.824  0.00  0.00    +0.000 NA
ENDBRANCH  20  23
ENDBRANCH  14  17
ENDBRANCH  11  12
ENDBRANCH   1  11
BRANCH   1  25
ATOM     25  O1  UNL     1      75.570  66.484 108.198  0.00  0.00    +0.000 OA
ATOM     26  H10 UNL     1      76.501  66.822 108.238  0.00  0.00    +0.000 HD
ENDBRANCH   1  25
BRANCH   1  27
ATOM     27  C14 UNL     1      75.187  66.841 110.539  0.00  0.00    +0.000 C 
BRANCH  27  28
ATOM     28  N3  UNL     1      75.615  68.177 110.115  0.00  0.00    +0.000 N 
ATOM     29  C15 UNL     1      74.839  69.262 109.949  0.00  0.00    +0.000 A 
ATOM     30  N4  UNL     1      75.551  70.304 109.479  0.00  0.00    +0.000 NA
ATOM     31  C16 UNL     1      76.791  69.781 109.364  0.00  0.00    +0.000 A 
ATOM     32  N5  UNL     1      76.840  68.487 109.734  0.00  0.00    +0.000 NA
ENDBRANCH  27  28
ENDBRANCH   1  27
TORSDOF 8
ENDMDL
MODEL 17
REMARK VINA RESULT:      -6.5     11.527     13.209
REMARK  Name = ./S3722.pdb
REMARK  9 active torsions:
REMARK  status: ('A' for Active; 'I' for Inactive)
REMARK    1  A    between atoms: C1_1  and  C2_2
REMARK    2  A    between atoms: C2_2  and  C3_3
REMARK    3  A    between atoms: C2_2  and  C13_16
REMARK    4  A    between atoms: C4_5  and  C6_8
REMARK    5  A    between atoms: C9_11  and  C12_14
REMARK    6  A    between atoms: C13_16  and  O1_17
REMARK    7  A    between atoms: C13_16  and  C14_18
REMARK    8  A    between atoms: C13_16  and  C17_24
REMARK    9  A    between atoms: C14_18  and  N3_19
REMARK                            x       y       z     vdW  Elec       q    Type
REMARK                         _______ _______ _______ _____ _____    ______ ____
ROOT
ATOM      1  C13 UNL     1      74.158  65.026 111.643  0.00  0.00    +0.000 C 
ENDROOT
BRANCH   1   2
ATOM      2  C17 UNL     1      74.511  65.736 112.972  0.00  0.00    +0.000 A 
ATOM      3  C18 UNL     1      74.557  65.025 114.194  0.00  0.00    +0.000 A 
ATOM      4  C19 UNL     1      74.949  65.652 115.379  0.00  0.00    +0.000 A 
ATOM      5  C20 UNL     1      75.331  66.992 115.368  0.00  0.00    +0.000 A 
ATOM      6  C21 UNL     1      75.341  67.702 114.169  0.00  0.00    +0.000 A 
ATOM      7  C22 UNL     1      74.953  67.083 112.977  0.00  0.00    +0.000 A 
ATOM      8  F1  UNL     1      75.048  67.797 111.826  0.00  0.00    +0.000 F 
ATOM      9  F2  UNL     1      74.985  64.949 116.538  0.00  0.00    +0.000 F 
ENDBRANCH   1   2
BRANCH   1  11
ATOM     10  C1  UNL     1      71.558  65.027 111.497  0.00  0.00    +0.000 C 
ATOM     11  C2  UNL     1      72.870  65.698 111.050  0.00  0.00    +0.000 C 
BRANCH  11  12
ATOM     12  C3  UNL     1      72.910  65.860 109.547  0.00  0.00    +0.000 A 
ATOM     13  N1  UNL     1      72.433  64.921 108.702  0.00  0.00    +0.000 NA
ATOM     14  C4  UNL     1      72.486  65.307 107.398  0.00  0.00    +0.000 A 
ATOM     15  C5  UNL     1      73.017  66.583 107.195  0.00  0.00    +0.000 A 
ATOM     16  S1  UNL     1      73.412  67.224 108.697  0.00  0.00    +0.000 S 
BRANCH  14  17
ATOM     17  C6  UNL     1      71.958  64.438 106.317  0.00  0.00    +0.000 A 
ATOM     18  C7  UNL     1      70.686  63.851 106.451  0.00  0.00    +0.000 A 
ATOM     19  C8  UNL     1      70.167  63.037 105.440  0.00  0.00    +0.000 A 
ATOM     20  C9  UNL     1      70.913  62.792 104.283  0.00  0.00    +0.000 A 
ATOM     21  C10 UNL     1      72.183  63.363 104.141  0.00  0.00    +0.000 A 
ATOM     22  C11 UNL     1      72.703  64.180 105.150  0.00  0.00    +0.000 A 
BRANCH  20  23
ATOM     23  C12 UNL     1      70.379  61.952 103.243  0.00  0.00    +0.000 C 
ATOM     24  N2  UNL     1      69.950  61.278 102.406  0.00  0.00    +0.000 NA
ENDBRANCH  20  23
ENDBRANCH  14  17
ENDBRANCH  11  12
ENDBRANCH   1  11
BRANCH   1  25
ATOM     25  O1  UNL     1      73.835  63.674 111.890  0.00  0.00    +0.000 OA
ATOM     26  H10 UNL     1      74.260  63.111 111.193  0.00  0.00    +0.000 HD
ENDBRANCH   1  25
BRANCH   1  27
ATOM     27  C14 UNL     1      75.335  65.040 110.611  0.00  0.00    +0.000 C 
BRANCH  27  28
ATOM     28  N3  UNL     1      76.250  63.907 110.782  0.00  0.00    +0.000 N 
ATOM     29  C15 UNL     1      76.523  62.944 109.885  0.00  0.00    +0.000 A 
ATOM     30  N4  UNL     1      77.353  62.018 110.401  0.00  0.00    +0.000 NA
ATOM     31  C16 UNL     1      77.552  62.473 111.657  0.00  0.00    +0.000 A 
ATOM     32  N5  UNL     1      76.877  63.612 111.905  0.00  0.00    +0.000 NA
ENDBRANCH  27  28
ENDBRANCH   1  27
TORSDOF 8
ENDMDL
MODEL 18
REMARK VINA RESULT:      -6.5     12.520     15.966
REMARK  Name = ./S3722.pdb
REMARK  9 active torsions:
REMARK  status: ('A' for Active; 'I' for Inactive)
REMARK    1  A    between atoms: C1_1  and  C2_2
REMARK    2  A    between atoms: C2_2  and  C3_3
REMARK    3  A    between atoms: C2_2  and  C13_16
REMARK    4  A    between atoms: C4_5  and  C6_8
REMARK    5  A    between atoms: C9_11  and  C12_14
REMARK    6  A    between atoms: C13_16  and  O1_17
REMARK    7  A    between atoms: C13_16  and  C14_18
REMARK    8  A    between atoms: C13_16  and  C17_24
REMARK    9  A    between atoms: C14_18  and  N3_19
REMARK                            x       y       z     vdW  Elec       q    Type
REMARK                         _______ _______ _______ _____ _____    ______ ____
ROOT
ATOM      1  C13 UNL     1      73.446  65.205 111.740  0.00  0.00    +0.000 C 
ENDROOT
BRANCH   1   2
ATOM      2  C17 UNL     1      72.494  65.338 110.526  0.00  0.00    +0.000 A 
ATOM      3  C18 UNL     1      71.716  66.502 110.329  0.00  0.00    +0.000 A 
ATOM      4  C19 UNL     1      70.915  66.650 109.194  0.00  0.00    +0.000 A 
ATOM      5  C20 UNL     1      70.894  65.656 108.218  0.00  0.00    +0.000 A 
ATOM      6  C21 UNL     1      71.688  64.520 108.366  0.00  0.00    +0.000 A 
ATOM      7  C22 UNL     1      72.496  64.364 109.496  0.00  0.00    +0.000 A 
ATOM      8  F1  UNL     1      73.304  63.274 109.559  0.00  0.00    +0.000 F 
ATOM      9  F2  UNL     1      70.178  67.776 109.027  0.00  0.00    +0.000 F 
ENDBRANCH   1   2
BRANCH   1  11
ATOM     10  C1  UNL     1      74.881  66.530 110.018  0.00  0.00    +0.000 C 
ATOM     11  C2  UNL     1      74.876  65.677 111.301  0.00  0.00    +0.000 C 
BRANCH  11  12
ATOM     12  C3  UNL     1      75.882  64.551 111.205  0.00  0.00    +0.000 A 
ATOM     13  N1  UNL     1      76.353  63.903 112.292  0.00  0.00    +0.000 NA
ATOM     14  C4  UNL     1      77.178  62.868 111.973  0.00  0.00    +0.000 A 
ATOM     15  C5  UNL     1      77.371  62.685 110.602  0.00  0.00    +0.000 A 
ATOM     16  S1  UNL     1      76.472  63.850 109.792  0.00  0.00    +0.000 S 
BRANCH  14  17
ATOM     17  C6  UNL     1      77.757  61.995 113.025  0.00  0.00    +0.000 A 
ATOM     18  C7  UNL     1      77.907  62.487 114.336  0.00  0.00    +0.000 A 
ATOM     19  C8  UNL     1      78.441  61.677 115.342  0.00  0.00    +0.000 A 
ATOM     20  C9  UNL     1      78.837  60.367 115.054  0.00  0.00    +0.000 A 
ATOM     21  C10 UNL     1      78.700  59.870 113.754  0.00  0.00    +0.000 A 
ATOM     22  C11 UNL     1      78.164  60.677 112.745  0.00  0.00    +0.000 A 
BRANCH  20  23
ATOM     23  C12 UNL     1      79.388  59.535 116.091  0.00  0.00    +0.000 C 
ATOM     24  N2  UNL     1      79.830  58.866 116.925  0.00  0.00    +0.000 NA
ENDBRANCH  20  23
ENDBRANCH  14  17
ENDBRANCH  11  12
ENDBRANCH   1  11
BRANCH   1  25
ATOM     25  O1  UNL     1      73.561  63.849 112.116  0.00  0.00    +0.000 OA
ATOM     26  H10 UNL     1      73.185  63.737 113.027  0.00  0.00    +0.000 HD
ENDBRANCH   1  25
BRANCH   1  27
ATOM     27  C14 UNL     1      72.946  65.994 112.997  0.00  0.00    +0.000 C 
BRANCH  27  28
ATOM     28  N3  UNL     1      74.045  66.434 113.861  0.00  0.00    +0.000 N 
ATOM     29  C15 UNL     1      74.613  65.744 114.865  0.00  0.00    +0.000 A 
ATOM     30  N4  UNL     1      75.547  66.481 115.496  0.00  0.00    +0.000 NA
ATOM     31  C16 UNL     1      75.500  67.650 114.823  0.00  0.00    +0.000 A 
ATOM     32  N5  UNL     1      74.584  67.639 113.836  0.00  0.00    +0.000 NA
ENDBRANCH  27  28
ENDBRANCH   1  27
TORSDOF 8
ENDMDL
MODEL 19
REMARK VINA RESULT:      -6.5      4.328      9.366
REMARK  Name = ./S3722.pdb
REMARK  9 active torsions:
REMARK  status: ('A' for Active; 'I' for Inactive)
REMARK    1  A    between atoms: C1_1  and  C2_2
REMARK    2  A    between atoms: C2_2  and  C3_3
REMARK    3  A    between atoms: C2_2  and  C13_16
REMARK    4  A    between atoms: C4_5  and  C6_8
REMARK    5  A    between atoms: C9_11  and  C12_14
REMARK    6  A    between atoms: C13_16  and  O1_17
REMARK    7  A    between atoms: C13_16  and  C14_18
REMARK    8  A    between atoms: C13_16  and  C17_24
REMARK    9  A    between atoms: C14_18  and  N3_19
REMARK                            x       y       z     vdW  Elec       q    Type
REMARK                         _______ _______ _______ _____ _____    ______ ____
ROOT
ATOM      1  C13 UNL     1      61.687  59.973 112.202  0.00  0.00    +0.000 C 
ENDROOT
BRANCH   1   2
ATOM      2  C17 UNL     1      60.679  60.927 111.517  0.00  0.00    +0.000 A 
ATOM      3  C18 UNL     1      61.097  62.155 110.954  0.00  0.00    +0.000 A 
ATOM      4  C19 UNL     1      60.200  62.978 110.271  0.00  0.00    +0.000 A 
ATOM      5  C20 UNL     1      58.873  62.584 110.109  0.00  0.00    +0.000 A 
ATOM      6  C21 UNL     1      58.446  61.357 110.613  0.00  0.00    +0.000 A 
ATOM      7  C22 UNL     1      59.338  60.523 111.296  0.00  0.00    +0.000 A 
ATOM      8  F1  UNL     1      58.891  59.308 111.704  0.00  0.00    +0.000 F 
ATOM      9  F2  UNL     1      60.625  64.150 109.740  0.00  0.00    +0.000 F 
ENDBRANCH   1   2
BRANCH   1  11
ATOM     10  C1  UNL     1      60.915  61.300 114.305  0.00  0.00    +0.000 C 
ATOM     11  C2  UNL     1      61.373  59.943 113.740  0.00  0.00    +0.000 C 
BRANCH  11  12
ATOM     12  C3  UNL     1      62.492  59.359 114.574  0.00  0.00    +0.000 A 
ATOM     13  N1  UNL     1      63.714  59.930 114.652  0.00  0.00    +0.000 NA
ATOM     14  C4  UNL     1      64.540  59.292 115.526  0.00  0.00    +0.000 A 
ATOM     15  C5  UNL     1      63.966  58.187 116.161  0.00  0.00    +0.000 A 
ATOM     16  S1  UNL     1      62.388  58.033 115.606  0.00  0.00    +0.000 S 
BRANCH  14  17
ATOM     17  C6  UNL     1      65.909  59.796 115.797  0.00  0.00    +0.000 A 
ATOM     18  C7  UNL     1      67.024  59.074 115.332  0.00  0.00    +0.000 A 
ATOM     19  C8  UNL     1      68.321  59.537 115.568  0.00  0.00    +0.000 A 
ATOM     20  C9  UNL     1      68.525  60.725 116.277  0.00  0.00    +0.000 A 
ATOM     21  C10 UNL     1      67.425  61.447 116.752  0.00  0.00    +0.000 A 
ATOM     22  C11 UNL     1      66.126  60.988 116.515  0.00  0.00    +0.000 A 
BRANCH  20  23
ATOM     23  C12 UNL     1      69.862  61.200 116.522  0.00  0.00    +0.000 C 
ATOM     24  N2  UNL     1      70.936  61.582 116.717  0.00  0.00    +0.000 NA
ENDBRANCH  20  23
ENDBRANCH  14  17
ENDBRANCH  11  12
ENDBRANCH   1  11
BRANCH   1  25
ATOM     25  O1  UNL     1      62.998  60.476 112.063  0.00  0.00    +0.000 OA
ATOM     26  H10 UNL     1      63.098  61.274 112.644  0.00  0.00    +0.000 HD
ENDBRANCH   1  25
BRANCH   1  27
ATOM     27  C14 UNL     1      61.676  58.532 111.590  0.00  0.00    +0.000 C 
BRANCH  27  28
ATOM     28  N3  UNL     1      62.534  58.414 110.407  0.00  0.00    +0.000 N 
ATOM     29  C15 UNL     1      62.144  58.412 109.121  0.00  0.00    +0.000 A 
ATOM     30  N4  UNL     1      63.189  58.212 108.295  0.00  0.00    +0.000 NA
ATOM     31  C16 UNL     1      64.221  58.084 109.157  0.00  0.00    +0.000 A 
ATOM     32  N5  UNL     1      63.834  58.192 110.442  0.00  0.00    +0.000 NA
ENDBRANCH  27  28
ENDBRANCH   1  27
TORSDOF 8
ENDMDL
MODEL 20
REMARK VINA RESULT:      -6.4     19.368     22.561
REMARK  Name = ./S3722.pdb
REMARK  9 active torsions:
REMARK  status: ('A' for Active; 'I' for Inactive)
REMARK    1  A    between atoms: C1_1  and  C2_2
REMARK    2  A    between atoms: C2_2  and  C3_3
REMARK    3  A    between atoms: C2_2  and  C13_16
REMARK    4  A    between atoms: C4_5  and  C6_8
REMARK    5  A    between atoms: C9_11  and  C12_14
REMARK    6  A    between atoms: C13_16  and  O1_17
REMARK    7  A    between atoms: C13_16  and  C14_18
REMARK    8  A    between atoms: C13_16  and  C17_24
REMARK    9  A    between atoms: C14_18  and  N3_19
REMARK                            x       y       z     vdW  Elec       q    Type
REMARK                         _______ _______ _______ _____ _____    ______ ____
ROOT
ATOM      1  C13 UNL     1      78.374  67.933  95.598  0.00  0.00    +0.000 C 
ENDROOT
BRANCH   1   2
ATOM      2  C17 UNL     1      79.535  67.697  94.602  0.00  0.00    +0.000 A 
ATOM      3  C18 UNL     1      80.347  68.765  94.155  0.00  0.00    +0.000 A 
ATOM      4  C19 UNL     1      81.440  68.538  93.316  0.00  0.00    +0.000 A 
ATOM      5  C20 UNL     1      81.764  67.240  92.926  0.00  0.00    +0.000 A 
ATOM      6  C21 UNL     1      81.009  66.166  93.390  0.00  0.00    +0.000 A 
ATOM      7  C22 UNL     1      79.915  66.382  94.233  0.00  0.00    +0.000 A 
ATOM      8  F1  UNL     1      79.255  65.297  94.715  0.00  0.00    +0.000 F 
ATOM      9  F2  UNL     1      82.204  69.579  92.902  0.00  0.00    +0.000 F 
ENDBRANCH   1   2
BRANCH   1  11
ATOM     10  C1  UNL     1      76.800  68.497  93.603  0.00  0.00    +0.000 C 
ATOM     11  C2  UNL     1      77.021  67.637  94.860  0.00  0.00    +0.000 C 
BRANCH  11  12
ATOM     12  C3  UNL     1      75.813  67.687  95.769  0.00  0.00    +0.000 A 
ATOM     13  N1  UNL     1      75.410  68.822  96.380  0.00  0.00    +0.000 NA
ATOM     14  C4  UNL     1      74.252  68.664  97.078  0.00  0.00    +0.000 A 
ATOM     15  C5  UNL     1      73.718  67.374  97.025  0.00  0.00    +0.000 A 
ATOM     16  S1  UNL     1      74.730  66.433  96.070  0.00  0.00    +0.000 S 
BRANCH  14  17
ATOM     17  C6  UNL     1      73.613  69.808  97.776  0.00  0.00    +0.000 A 
ATOM     18  C7  UNL     1      72.285  69.694  98.231  0.00  0.00    +0.000 A 
ATOM     19  C8  UNL     1      71.669  70.756  98.898  0.00  0.00    +0.000 A 
ATOM     20  C9  UNL     1      72.366  71.949  99.116  0.00  0.00    +0.000 A 
ATOM     21  C10 UNL     1      73.683  72.076  98.661  0.00  0.00    +0.000 A 
ATOM     22  C11 UNL     1      74.304  71.015  97.996  0.00  0.00    +0.000 A 
BRANCH  20  23
ATOM     23  C12 UNL     1      71.730  73.043  99.803  0.00  0.00    +0.000 C 
ATOM     24  N2  UNL     1      71.219  73.922 100.353  0.00  0.00    +0.000 NA
ENDBRANCH  20  23
ENDBRANCH  14  17
ENDBRANCH  11  12
ENDBRANCH   1  11
BRANCH   1  25
ATOM     25  O1  UNL     1      78.339  69.290  95.985  0.00  0.00    +0.000 OA
ATOM     26  H10 UNL     1      77.480  69.470  96.445  0.00  0.00    +0.000 HD
ENDBRANCH   1  25
BRANCH   1  27
ATOM     27  C14 UNL     1      78.509  67.082  96.905  0.00  0.00    +0.000 C 
BRANCH  27  28
ATOM     28  N3  UNL     1      79.786  67.299  97.591  0.00  0.00    +0.000 N 
ATOM     29  C15 UNL     1      80.696  66.367  97.924  0.00  0.00    +0.000 A 
ATOM     30  N4  UNL     1      81.720  66.908  98.611  0.00  0.00    +0.000 NA
ATOM     31  C16 UNL     1      81.367  68.209  98.682  0.00  0.00    +0.000 A 
ATOM     32  N5  UNL     1      80.189  68.457  98.078  0.00  0.00    +0.000 NA
ENDBRANCH  27  28
ENDBRANCH   1  27
TORSDOF 8
ENDMDL
