MODEL 1
REMARK VINA RESULT:      -8.3      0.000      0.000
REMARK  Name = ./S4018.pdb
REMARK  21 active torsions:
REMARK  status: ('A' for Active; 'I' for Inactive)
REMARK    1  A    between atoms: O1_1  and  C1_2
REMARK    2  A    between atoms: C1_2  and  C2_3
REMARK    3  A    between atoms: C3_5  and  O3_6
REMARK    4  A    between atoms: O3_6  and  C4_7
REMARK    5  A    between atoms: C12_16  and  O5_17
REMARK    6  A    between atoms: C14_19  and  C39_54
REMARK    7  A    between atoms: C17_22  and  C18_23
REMARK    8  A    between atoms: C23_29  and  O7_30
REMARK    9  A    between atoms: C25_32  and  C28_35
REMARK   10  A    between atoms: C28_35  and  O8_36
REMARK   11  A    between atoms: C29_38  and  O10_42
REMARK   12  A    between atoms: O10_42  and  C33_43
REMARK   13  A    between atoms: C34_45  and  C35_46
REMARK   14  A    between atoms: C35_46  and  O12_47
REMARK   15  A    between atoms: C36_48  and  O13_49
REMARK   16  A    between atoms: C37_50  and  O14_51
REMARK   17  A    between atoms: C38_52  and  O15_53
REMARK   18  A    between atoms: C39_54  and  O16_55
REMARK   19  A    between atoms: C40_57  and  O18_58
REMARK   20  A    between atoms: C41_59  and  O19_60
REMARK   21  A    between atoms: C42_61  and  O20_62
REMARK                            x       y       z     vdW  Elec       q    Type
REMARK                         _______ _______ _______ _____ _____    ______ ____
ROOT
ATOM      1  C4  UNL     1      75.689  63.511 108.339  0.00  0.00    +0.000 A 
ATOM      2  C5  UNL     1      76.760  64.364 108.021  0.00  0.00    +0.000 A 
ATOM      3  C6  UNL     1      77.342  64.329 106.758  0.00  0.00    +0.000 A 
ATOM      4  C7  UNL     1      76.827  63.489 105.775  0.00  0.00    +0.000 A 
ATOM      5  C8  UNL     1      75.732  62.658 106.048  0.00  0.00    +0.000 A 
ATOM      6  C9  UNL     1      75.171  62.640 107.345  0.00  0.00    +0.000 A 
ATOM      7  C10 UNL     1      74.048  61.706 107.625  0.00  0.00    +0.000 C 
ATOM      8  O4  UNL     1      73.452  61.770 108.733  0.00  0.00    +0.000 OA
ATOM      9  C11 UNL     1      73.675  60.658 106.628  0.00  0.00    +0.000 A 
ATOM     10  C12 UNL     1      72.778  59.589 106.920  0.00  0.00    +0.000 A 
ATOM     11  C13 UNL     1      72.656  58.518 106.033  0.00  0.00    +0.000 A 
ATOM     12  C14 UNL     1      73.359  58.496 104.825  0.00  0.00    +0.000 A 
ATOM     13  C15 UNL     1      74.178  59.582 104.495  0.00  0.00    +0.000 A 
ATOM     14  C16 UNL     1      74.325  60.668 105.372  0.00  0.00    +0.000 A 
ATOM     15  C17 UNL     1      75.121  61.877 104.903  0.00  0.00    +0.000 C 
ENDROOT
BRANCH  15  16
ATOM     16  C18 UNL     1      74.295  62.825 103.957  0.00  0.00    +0.000 C 
ATOM     17  C19 UNL     1      74.440  62.404 102.503  0.00  0.00    +0.000 A 
ATOM     18  C20 UNL     1      73.424  61.675 101.844  0.00  0.00    +0.000 A 
ATOM     19  C21 UNL     1      72.168  61.409 102.566  0.00  0.00    +0.000 C 
ATOM     20  O6  UNL     1      71.460  60.412 102.256  0.00  0.00    +0.000 OA
ATOM     21  C22 UNL     1      71.808  62.257 103.728  0.00  0.00    +0.000 A 
ATOM     22  C23 UNL     1      70.480  62.360 104.212  0.00  0.00    +0.000 A 
ATOM     23  C24 UNL     1      70.219  63.071 105.390  0.00  0.00    +0.000 A 
ATOM     24  C25 UNL     1      71.239  63.774 106.046  0.00  0.00    +0.000 A 
ATOM     25  C26 UNL     1      72.534  63.746 105.513  0.00  0.00    +0.000 A 
ATOM     26  C27 UNL     1      72.839  62.960 104.389  0.00  0.00    +0.000 A 
ATOM     27  C29 UNL     1      73.624  61.222 100.521  0.00  0.00    +0.000 A 
ATOM     28  C30 UNL     1      74.877  61.447  99.906  0.00  0.00    +0.000 A 
ATOM     29  C31 UNL     1      75.881  62.157 100.567  0.00  0.00    +0.000 A 
ATOM     30  C32 UNL     1      75.659  62.646 101.850  0.00  0.00    +0.000 A 
BRANCH  22  31
ATOM     31  O7  UNL     1      69.389  61.799 103.542  0.00  0.00    +0.000 OA
ATOM     32  H14 UNL     1      69.386  60.858 103.176  0.00  0.00    +0.000 HD
ENDBRANCH  22  31
BRANCH  24  33
ATOM     33  C28 UNL     1      70.956  64.525 107.291  0.00  0.00    +0.000 C 
ATOM     34  O9  UNL     1      70.268  65.585 107.266  0.00  0.00    +0.000 OA
BRANCH  33  35
ATOM     35  O8  UNL     1      71.454  64.071 108.510  0.00  0.00    +0.000 OA
ATOM     36  H17 UNL     1      72.280  63.493 108.556  0.00  0.00    +0.000 HD
ENDBRANCH  33  35
ENDBRANCH  24  33
BRANCH  27  37
ATOM     37  O10 UNL     1      72.569  60.561  99.850  0.00  0.00    +0.000 OA
BRANCH  37  38
ATOM     38  C33 UNL     1      72.354  60.498  98.433  0.00  0.00    +0.000 C 
ATOM     39  O11 UNL     1      71.898  59.197  98.075  0.00  0.00    +0.000 OA
ATOM     40  C34 UNL     1      71.386  59.045  96.746  0.00  0.00    +0.000 C 
ATOM     41  C36 UNL     1      71.329  60.321  95.876  0.00  0.00    +0.000 C 
ATOM     42  C37 UNL     1      70.641  61.423  96.711  0.00  0.00    +0.000 C 
ATOM     43  C38 UNL     1      71.404  61.674  98.037  0.00  0.00    +0.000 C 
BRANCH  41  44
ATOM     44  O13 UNL     1      72.629  60.718  95.494  0.00  0.00    +0.000 OA
ATOM     45  H27 UNL     1      73.241  60.441  96.219  0.00  0.00    +0.000 HD
ENDBRANCH  41  44
BRANCH  42  46
ATOM     46  O14 UNL     1      70.437  62.612  95.983  0.00  0.00    +0.000 OA
ATOM     47  H29 UNL     1      70.341  62.398  95.023  0.00  0.00    +0.000 HD
ENDBRANCH  42  46
BRANCH  43  48
ATOM     48  O15 UNL     1      72.132  62.879  97.995  0.00  0.00    +0.000 OA
ATOM     49  H31 UNL     1      72.363  63.079  97.043  0.00  0.00    +0.000 HD
ENDBRANCH  43  48
BRANCH  40  50
ATOM     50  C35 UNL     1      72.119  57.901  96.021  0.00  0.00    +0.000 C 
BRANCH  50  51
ATOM     51  O12 UNL     1      73.501  58.134  96.008  0.00  0.00    +0.000 OA
ATOM     52  H25 UNL     1      73.647  59.052  96.349  0.00  0.00    +0.000 HD
ENDBRANCH  50  51
ENDBRANCH  40  50
ENDBRANCH  37  38
ENDBRANCH  27  37
ENDBRANCH  15  16
BRANCH  10  53
ATOM     53  O5  UNL     1      71.974  59.551 108.057  0.00  0.00    +0.000 OA
ATOM     54  H9  UNL     1      70.979  59.728 108.050  0.00  0.00    +0.000 HD
ENDBRANCH  10  53
BRANCH  12  55
ATOM     55  C39 UNL     1      73.220  57.353 103.899  0.00  0.00    +0.000 C 
ATOM     56  O17 UNL     1      73.401  56.176 104.313  0.00  0.00    +0.000 OA
BRANCH  55  57
ATOM     57  O16 UNL     1      72.885  57.565 102.564  0.00  0.00    +0.000 OA
ATOM     58  H32 UNL     1      73.562  57.942 101.913  0.00  0.00    +0.000 HD
ENDBRANCH  55  57
ENDBRANCH  12  55
BRANCH   1  59
ATOM     59  O3  UNL     1      75.120  63.500 109.626  0.00  0.00    +0.000 OA
BRANCH  59  62
ATOM     60  C2  UNL     1      73.475  66.618 110.203  0.00  0.00    +0.000 C 
ATOM     61  O2  UNL     1      73.753  65.347 109.623  0.00  0.00    +0.000 OA
ATOM     62  C3  UNL     1      74.700  64.629 110.397  0.00  0.00    +0.000 C 
ATOM     63  C40 UNL     1      74.050  64.151 111.727  0.00  0.00    +0.000 C 
ATOM     64  C41 UNL     1      72.858  65.056 112.129  0.00  0.00    +0.000 C 
ATOM     65  C42 UNL     1      73.139  66.522 111.729  0.00  0.00    +0.000 C 
BRANCH  63  66
ATOM     66  O18 UNL     1      75.014  64.164 112.747  0.00  0.00    +0.000 OA
ATOM     67  H34 UNL     1      75.832  63.741 112.378  0.00  0.00    +0.000 HD
ENDBRANCH  63  66
BRANCH  64  68
ATOM     68  O19 UNL     1      71.692  64.609 111.474  0.00  0.00    +0.000 OA
ATOM     69  H36 UNL     1      71.301  65.393 110.998  0.00  0.00    +0.000 HD
ENDBRANCH  64  68
BRANCH  65  70
ATOM     70  O20 UNL     1      74.227  67.018 112.473  0.00  0.00    +0.000 OA
ATOM     71  H38 UNL     1      74.203  66.580 113.363  0.00  0.00    +0.000 HD
ENDBRANCH  65  70
BRANCH  60  72
ATOM     72  C1  UNL     1      72.313  67.254 109.417  0.00  0.00    +0.000 C 
BRANCH  72  73
ATOM     73  O1  UNL     1      71.074  66.865 109.950  0.00  0.00    +0.000 OA
ATOM     74  H1  UNL     1      71.241  66.033 110.461  0.00  0.00    +0.000 HD
ENDBRANCH  72  73
ENDBRANCH  60  72
ENDBRANCH  59  62
ENDBRANCH   1  59
TORSDOF 21
ENDMDL
MODEL 2
REMARK VINA RESULT:      -8.1      1.161      1.377
REMARK  Name = ./S4018.pdb
REMARK  21 active torsions:
REMARK  status: ('A' for Active; 'I' for Inactive)
REMARK    1  A    between atoms: O1_1  and  C1_2
REMARK    2  A    between atoms: C1_2  and  C2_3
REMARK    3  A    between atoms: C3_5  and  O3_6
REMARK    4  A    between atoms: O3_6  and  C4_7
REMARK    5  A    between atoms: C12_16  and  O5_17
REMARK    6  A    between atoms: C14_19  and  C39_54
REMARK    7  A    between atoms: C17_22  and  C18_23
REMARK    8  A    between atoms: C23_29  and  O7_30
REMARK    9  A    between atoms: C25_32  and  C28_35
REMARK   10  A    between atoms: C28_35  and  O8_36
REMARK   11  A    between atoms: C29_38  and  O10_42
REMARK   12  A    between atoms: O10_42  and  C33_43
REMARK   13  A    between atoms: C34_45  and  C35_46
REMARK   14  A    between atoms: C35_46  and  O12_47
REMARK   15  A    between atoms: C36_48  and  O13_49
REMARK   16  A    between atoms: C37_50  and  O14_51
REMARK   17  A    between atoms: C38_52  and  O15_53
REMARK   18  A    between atoms: C39_54  and  O16_55
REMARK   19  A    between atoms: C40_57  and  O18_58
REMARK   20  A    between atoms: C41_59  and  O19_60
REMARK   21  A    between atoms: C42_61  and  O20_62
REMARK                            x       y       z     vdW  Elec       q    Type
REMARK                         _______ _______ _______ _____ _____    ______ ____
ROOT
ATOM      1  C4  UNL     1      76.182  63.693 108.967  0.00  0.00    +0.000 A 
ATOM      2  C5  UNL     1      77.220  64.551 108.565  0.00  0.00    +0.000 A 
ATOM      3  C6  UNL     1      77.778  64.442 107.295  0.00  0.00    +0.000 A 
ATOM      4  C7  UNL     1      77.270  63.518 106.387  0.00  0.00    +0.000 A 
ATOM      5  C8  UNL     1      76.207  62.678 106.743  0.00  0.00    +0.000 A 
ATOM      6  C9  UNL     1      75.671  62.737 108.049  0.00  0.00    +0.000 A 
ATOM      7  C10 UNL     1      74.583  61.794 108.420  0.00  0.00    +0.000 C 
ATOM      8  O4  UNL     1      74.007  61.922 109.533  0.00  0.00    +0.000 OA
ATOM      9  C11 UNL     1      74.224  60.666 107.510  0.00  0.00    +0.000 A 
ATOM     10  C12 UNL     1      73.365  59.596 107.897  0.00  0.00    +0.000 A 
ATOM     11  C13 UNL     1      73.259  58.459 107.093  0.00  0.00    +0.000 A 
ATOM     12  C14 UNL     1      73.939  58.370 105.874  0.00  0.00    +0.000 A 
ATOM     13  C15 UNL     1      74.718  59.452 105.449  0.00  0.00    +0.000 A 
ATOM     14  C16 UNL     1      74.849  60.603 106.243  0.00  0.00    +0.000 A 
ATOM     15  C17 UNL     1      75.598  61.797 105.671  0.00  0.00    +0.000 C 
ENDROOT
BRANCH  15  16
ATOM     16  C18 UNL     1      74.725  62.650 104.676  0.00  0.00    +0.000 C 
ATOM     17  C19 UNL     1      74.877  62.146 103.249  0.00  0.00    +0.000 A 
ATOM     18  C20 UNL     1      73.889  61.336 102.647  0.00  0.00    +0.000 A 
ATOM     19  C21 UNL     1      72.650  61.062 103.397  0.00  0.00    +0.000 C 
ATOM     20  O6  UNL     1      71.983  60.019 103.155  0.00  0.00    +0.000 OA
ATOM     21  C22 UNL     1      72.263  61.964 104.507  0.00  0.00    +0.000 A 
ATOM     22  C23 UNL     1      70.935  62.041 104.997  0.00  0.00    +0.000 A 
ATOM     23  C24 UNL     1      70.653  62.813 106.132  0.00  0.00    +0.000 A 
ATOM     24  C25 UNL     1      71.647  63.596 106.733  0.00  0.00    +0.000 A 
ATOM     25  C26 UNL     1      72.938  63.590 106.191  0.00  0.00    +0.000 A 
ATOM     26  C27 UNL     1      73.268  62.749 105.114  0.00  0.00    +0.000 A 
ATOM     27  C29 UNL     1      74.097  60.810 101.352  0.00  0.00    +0.000 A 
ATOM     28  C30 UNL     1      75.335  61.049 100.712  0.00  0.00    +0.000 A 
ATOM     29  C31 UNL     1      76.313  61.840 101.318  0.00  0.00    +0.000 A 
ATOM     30  C32 UNL     1      76.080  62.398 102.570  0.00  0.00    +0.000 A 
BRANCH  22  31
ATOM     31  O7  UNL     1      69.864  61.395 104.375  0.00  0.00    +0.000 OA
ATOM     32  H14 UNL     1      69.534  60.479 104.646  0.00  0.00    +0.000 HD
ENDBRANCH  22  31
BRANCH  24  33
ATOM     33  C28 UNL     1      71.341  64.410 107.933  0.00  0.00    +0.000 C 
ATOM     34  O9  UNL     1      70.611  65.439 107.849  0.00  0.00    +0.000 OA
BRANCH  33  35
ATOM     35  O8  UNL     1      71.866  64.053 109.173  0.00  0.00    +0.000 OA
ATOM     36  H17 UNL     1      71.276  63.966 109.987  0.00  0.00    +0.000 HD
ENDBRANCH  33  35
ENDBRANCH  24  33
BRANCH  27  37
ATOM     37  O10 UNL     1      73.067  60.066 100.734  0.00  0.00    +0.000 OA
BRANCH  37  38
ATOM     38  C33 UNL     1      72.263  60.468  99.616  0.00  0.00    +0.000 C 
ATOM     39  O11 UNL     1      72.546  59.635  98.496  0.00  0.00    +0.000 OA
ATOM     40  C34 UNL     1      71.645  59.730  97.387  0.00  0.00    +0.000 C 
ATOM     41  C36 UNL     1      70.436  60.679  97.557  0.00  0.00    +0.000 C 
ATOM     42  C37 UNL     1      69.766  60.341  98.906  0.00  0.00    +0.000 C 
ATOM     43  C38 UNL     1      70.770  60.487 100.078  0.00  0.00    +0.000 C 
BRANCH  41  44
ATOM     44  O13 UNL     1      70.857  62.026  97.527  0.00  0.00    +0.000 OA
ATOM     45  H27 UNL     1      70.049  62.585  97.628  0.00  0.00    +0.000 HD
ENDBRANCH  41  44
BRANCH  42  46
ATOM     46  O14 UNL     1      68.583  61.075  99.126  0.00  0.00    +0.000 OA
ATOM     47  H29 UNL     1      68.423  61.679  98.361  0.00  0.00    +0.000 HD
ENDBRANCH  42  46
BRANCH  43  48
ATOM     48  O15 UNL     1      70.521  61.650 100.832  0.00  0.00    +0.000 OA
ATOM     49  H31 UNL     1      70.016  62.298 100.261  0.00  0.00    +0.000 HD
ENDBRANCH  43  48
BRANCH  40  50
ATOM     50  C35 UNL     1      72.423  60.034  96.095  0.00  0.00    +0.000 C 
BRANCH  50  51
ATOM     51  O12 UNL     1      71.605  60.707  95.175  0.00  0.00    +0.000 OA
ATOM     52  H25 UNL     1      71.909  60.447  94.270  0.00  0.00    +0.000 HD
ENDBRANCH  50  51
ENDBRANCH  40  50
ENDBRANCH  37  38
ENDBRANCH  27  37
ENDBRANCH  15  16
BRANCH  10  53
ATOM     53  O5  UNL     1      72.585  59.617 109.051  0.00  0.00    +0.000 OA
ATOM     54  H9  UNL     1      72.062  58.823 109.393  0.00  0.00    +0.000 HD
ENDBRANCH  10  53
BRANCH  12  55
ATOM     55  C39 UNL     1      73.817  57.159 105.037  0.00  0.00    +0.000 C 
ATOM     56  O17 UNL     1      74.700  56.261 105.087  0.00  0.00    +0.000 OA
BRANCH  55  57
ATOM     57  O16 UNL     1      72.724  56.998 104.188  0.00  0.00    +0.000 OA
ATOM     58  H32 UNL     1      72.836  56.585 103.271  0.00  0.00    +0.000 HD
ENDBRANCH  55  57
ENDBRANCH  12  55
BRANCH   1  59
ATOM     59  O3  UNL     1      75.638  63.759 110.262  0.00  0.00    +0.000 OA
BRANCH  59  62
ATOM     60  C2  UNL     1      73.875  66.850 110.585  0.00  0.00    +0.000 C 
ATOM     61  O2  UNL     1      74.210  65.553 110.101  0.00  0.00    +0.000 OA
ATOM     62  C3  UNL     1      75.162  64.923 110.943  0.00  0.00    +0.000 C 
ATOM     63  C40 UNL     1      74.496  64.516 112.289  0.00  0.00    +0.000 C 
ATOM     64  C41 UNL     1      73.266  65.404 112.601  0.00  0.00    +0.000 C 
ATOM     65  C42 UNL     1      73.507  66.848 112.106  0.00  0.00    +0.000 C 
BRANCH  63  66
ATOM     66  O18 UNL     1      75.435  64.634 113.327  0.00  0.00    +0.000 OA
ATOM     67  H34 UNL     1      75.224  63.927 113.990  0.00  0.00    +0.000 HD
ENDBRANCH  63  66
BRANCH  64  68
ATOM     68  O19 UNL     1      72.132  64.872 111.954  0.00  0.00    +0.000 OA
ATOM     69  H36 UNL     1      71.954  65.440 111.154  0.00  0.00    +0.000 HD
ENDBRANCH  64  68
BRANCH  65  70
ATOM     70  O20 UNL     1      74.559  67.431 112.837  0.00  0.00    +0.000 OA
ATOM     71  H38 UNL     1      74.413  68.413 112.838  0.00  0.00    +0.000 HD
ENDBRANCH  65  70
BRANCH  60  72
ATOM     72  C1  UNL     1      72.713  67.389 109.732  0.00  0.00    +0.000 C 
BRANCH  72  73
ATOM     73  O1  UNL     1      71.478  66.942 110.226  0.00  0.00    +0.000 OA
ATOM     74  H1  UNL     1      71.115  66.319 109.545  0.00  0.00    +0.000 HD
ENDBRANCH  72  73
ENDBRANCH  60  72
ENDBRANCH  59  62
ENDBRANCH   1  59
TORSDOF 21
ENDMDL
MODEL 3
REMARK VINA RESULT:      -8.0      1.466      2.186
REMARK  Name = ./S4018.pdb
REMARK  21 active torsions:
REMARK  status: ('A' for Active; 'I' for Inactive)
REMARK    1  A    between atoms: O1_1  and  C1_2
REMARK    2  A    between atoms: C1_2  and  C2_3
REMARK    3  A    between atoms: C3_5  and  O3_6
REMARK    4  A    between atoms: O3_6  and  C4_7
REMARK    5  A    between atoms: C12_16  and  O5_17
REMARK    6  A    between atoms: C14_19  and  C39_54
REMARK    7  A    between atoms: C17_22  and  C18_23
REMARK    8  A    between atoms: C23_29  and  O7_30
REMARK    9  A    between atoms: C25_32  and  C28_35
REMARK   10  A    between atoms: C28_35  and  O8_36
REMARK   11  A    between atoms: C29_38  and  O10_42
REMARK   12  A    between atoms: O10_42  and  C33_43
REMARK   13  A    between atoms: C34_45  and  C35_46
REMARK   14  A    between atoms: C35_46  and  O12_47
REMARK   15  A    between atoms: C36_48  and  O13_49
REMARK   16  A    between atoms: C37_50  and  O14_51
REMARK   17  A    between atoms: C38_52  and  O15_53
REMARK   18  A    between atoms: C39_54  and  O16_55
REMARK   19  A    between atoms: C40_57  and  O18_58
REMARK   20  A    between atoms: C41_59  and  O19_60
REMARK   21  A    between atoms: C42_61  and  O20_62
REMARK                            x       y       z     vdW  Elec       q    Type
REMARK                         _______ _______ _______ _____ _____    ______ ____
ROOT
ATOM      1  C4  UNL     1      75.784  63.348 108.700  0.00  0.00    +0.000 A 
ATOM      2  C5  UNL     1      76.895  64.165 108.431  0.00  0.00    +0.000 A 
ATOM      3  C6  UNL     1      77.555  64.086 107.209  0.00  0.00    +0.000 A 
ATOM      4  C7  UNL     1      77.080  63.236 106.214  0.00  0.00    +0.000 A 
ATOM      5  C8  UNL     1      75.948  62.440 106.435  0.00  0.00    +0.000 A 
ATOM      6  C9  UNL     1      75.306  62.467 107.694  0.00  0.00    +0.000 A 
ATOM      7  C10 UNL     1      74.142  61.569 107.923  0.00  0.00    +0.000 C 
ATOM      8  O4  UNL     1      73.480  61.675 108.989  0.00  0.00    +0.000 OA
ATOM      9  C11 UNL     1      73.805  60.507 106.928  0.00  0.00    +0.000 A 
ATOM     10  C12 UNL     1      72.863  59.469 107.184  0.00  0.00    +0.000 A 
ATOM     11  C13 UNL     1      72.769  58.380 106.316  0.00  0.00    +0.000 A 
ATOM     12  C14 UNL     1      73.545  58.312 105.155  0.00  0.00    +0.000 A 
ATOM     13  C15 UNL     1      74.412  59.369 104.854  0.00  0.00    +0.000 A 
ATOM     14  C16 UNL     1      74.533  60.471 105.715  0.00  0.00    +0.000 A 
ATOM     15  C17 UNL     1      75.389  61.647 105.271  0.00  0.00    +0.000 C 
ENDROOT
BRANCH  15  16
ATOM     16  C18 UNL     1      74.650  62.594 104.253  0.00  0.00    +0.000 C 
ATOM     17  C19 UNL     1      74.918  62.166 102.819  0.00  0.00    +0.000 A 
ATOM     18  C20 UNL     1      73.961  61.438 102.078  0.00  0.00    +0.000 A 
ATOM     19  C21 UNL     1      72.646  61.177 102.691  0.00  0.00    +0.000 C 
ATOM     20  O6  UNL     1      71.965  60.181 102.325  0.00  0.00    +0.000 OA
ATOM     21  C22 UNL     1      72.190  62.031 103.814  0.00  0.00    +0.000 A 
ATOM     22  C23 UNL     1      70.826  62.140 104.182  0.00  0.00    +0.000 A 
ATOM     23  C24 UNL     1      70.467  62.857 105.331  0.00  0.00    +0.000 A 
ATOM     24  C25 UNL     1      71.429  63.559 106.068  0.00  0.00    +0.000 A 
ATOM     25  C26 UNL     1      72.765  63.526 105.649  0.00  0.00    +0.000 A 
ATOM     26  C27 UNL     1      73.163  62.734 104.559  0.00  0.00    +0.000 A 
ATOM     27  C29 UNL     1      74.271  60.978 100.779  0.00  0.00    +0.000 A 
ATOM     28  C30 UNL     1      75.574  61.197 100.273  0.00  0.00    +0.000 A 
ATOM     29  C31 UNL     1      76.520  61.907 101.015  0.00  0.00    +0.000 A 
ATOM     30  C32 UNL     1      76.190  62.402 102.272  0.00  0.00    +0.000 A 
BRANCH  22  31
ATOM     31  O7  UNL     1      69.794  61.579 103.423  0.00  0.00    +0.000 OA
ATOM     32  H14 UNL     1      69.461  61.979 102.558  0.00  0.00    +0.000 HD
ENDBRANCH  22  31
BRANCH  24  33
ATOM     33  C28 UNL     1      71.042  64.316 107.282  0.00  0.00    +0.000 C 
ATOM     34  O9  UNL     1      70.305  65.341 107.199  0.00  0.00    +0.000 OA
BRANCH  33  35
ATOM     35  O8  UNL     1      71.495  63.909 108.534  0.00  0.00    +0.000 OA
ATOM     36  H17 UNL     1      70.851  63.646 109.265  0.00  0.00    +0.000 HD
ENDBRANCH  33  35
ENDBRANCH  24  33
BRANCH  27  37
ATOM     37  O10 UNL     1      73.277  60.317 100.023  0.00  0.00    +0.000 OA
BRANCH  37  38
ATOM     38  C33 UNL     1      73.371  59.017  99.424  0.00  0.00    +0.000 C 
ATOM     39  O11 UNL     1      74.280  59.058  98.328  0.00  0.00    +0.000 OA
ATOM     40  C34 UNL     1      74.689  57.795  97.791  0.00  0.00    +0.000 C 
ATOM     41  C36 UNL     1      74.146  56.533  98.500  0.00  0.00    +0.000 C 
ATOM     42  C37 UNL     1      74.401  56.704 100.013  0.00  0.00    +0.000 C 
ATOM     43  C38 UNL     1      73.724  57.992 100.549  0.00  0.00    +0.000 C 
BRANCH  41  44
ATOM     44  O13 UNL     1      72.768  56.373  98.238  0.00  0.00    +0.000 OA
ATOM     45  H27 UNL     1      72.676  55.592  97.639  0.00  0.00    +0.000 HD
ENDBRANCH  41  44
BRANCH  42  46
ATOM     46  O14 UNL     1      74.041  55.565 100.760  0.00  0.00    +0.000 OA
ATOM     47  H29 UNL     1      74.850  55.165 101.161  0.00  0.00    +0.000 HD
ENDBRANCH  42  46
BRANCH  43  48
ATOM     48  O15 UNL     1      72.570  57.696 101.301  0.00  0.00    +0.000 OA
ATOM     49  H31 UNL     1      72.680  56.789 101.708  0.00  0.00    +0.000 HD
ENDBRANCH  43  48
BRANCH  40  50
ATOM     50  C35 UNL     1      74.420  57.750  96.276  0.00  0.00    +0.000 C 
BRANCH  50  51
ATOM     51  O12 UNL     1      73.175  58.324  95.980  0.00  0.00    +0.000 OA
ATOM     52  H25 UNL     1      72.814  58.690  96.826  0.00  0.00    +0.000 HD
ENDBRANCH  50  51
ENDBRANCH  40  50
ENDBRANCH  37  38
ENDBRANCH  27  37
ENDBRANCH  15  16
BRANCH  10  53
ATOM     53  O5  UNL     1      71.988  59.479 108.269  0.00  0.00    +0.000 OA
ATOM     54  H9  UNL     1      71.364  60.245 108.483  0.00  0.00    +0.000 HD
ENDBRANCH  10  53
BRANCH  12  55
ATOM     55  C39 UNL     1      73.433  57.151 104.249  0.00  0.00    +0.000 C 
ATOM     56  O17 UNL     1      72.320  56.586 104.076  0.00  0.00    +0.000 OA
BRANCH  55  57
ATOM     57  O16 UNL     1      74.555  56.673 103.576  0.00  0.00    +0.000 OA
ATOM     58  H32 UNL     1      75.466  57.085 103.728  0.00  0.00    +0.000 HD
ENDBRANCH  55  57
ENDBRANCH  12  55
BRANCH   1  59
ATOM     59  O3  UNL     1      75.135  63.382 109.947  0.00  0.00    +0.000 OA
BRANCH  59  62
ATOM     60  C2  UNL     1      73.450  66.515 110.278  0.00  0.00    +0.000 C 
ATOM     61  O2  UNL     1      73.775  65.226 109.766  0.00  0.00    +0.000 OA
ATOM     62  C3  UNL     1      74.652  64.535 110.641  0.00  0.00    +0.000 C 
ATOM     63  C40 UNL     1      73.891  64.101 111.927  0.00  0.00    +0.000 C 
ATOM     64  C41 UNL     1      72.671  65.018 112.196  0.00  0.00    +0.000 C 
ATOM     65  C42 UNL     1      72.987  66.470 111.772  0.00  0.00    +0.000 C 
BRANCH  63  66
ATOM     66  O18 UNL     1      74.766  64.151 113.024  0.00  0.00    +0.000 OA
ATOM     67  H34 UNL     1      74.778  63.244 113.426  0.00  0.00    +0.000 HD
ENDBRANCH  63  66
BRANCH  64  68
ATOM     68  O19 UNL     1      71.564  64.547 111.461  0.00  0.00    +0.000 OA
ATOM     69  H36 UNL     1      71.601  63.551 111.475  0.00  0.00    +0.000 HD
ENDBRANCH  64  68
BRANCH  65  70
ATOM     70  O20 UNL     1      74.008  66.992 112.588  0.00  0.00    +0.000 OA
ATOM     71  H38 UNL     1      73.601  67.686 113.168  0.00  0.00    +0.000 HD
ENDBRANCH  65  70
BRANCH  60  72
ATOM     72  C1  UNL     1      72.361  67.123 109.376  0.00  0.00    +0.000 C 
BRANCH  72  73
ATOM     73  O1  UNL     1      71.079  66.797 109.848  0.00  0.00    +0.000 OA
ATOM     74  H1  UNL     1      71.056  67.070 110.800  0.00  0.00    +0.000 HD
ENDBRANCH  72  73
ENDBRANCH  60  72
ENDBRANCH  59  62
ENDBRANCH   1  59
TORSDOF 21
ENDMDL
MODEL 4
REMARK VINA RESULT:      -7.9      1.368      1.967
REMARK  Name = ./S4018.pdb
REMARK  21 active torsions:
REMARK  status: ('A' for Active; 'I' for Inactive)
REMARK    1  A    between atoms: O1_1  and  C1_2
REMARK    2  A    between atoms: C1_2  and  C2_3
REMARK    3  A    between atoms: C3_5  and  O3_6
REMARK    4  A    between atoms: O3_6  and  C4_7
REMARK    5  A    between atoms: C12_16  and  O5_17
REMARK    6  A    between atoms: C14_19  and  C39_54
REMARK    7  A    between atoms: C17_22  and  C18_23
REMARK    8  A    between atoms: C23_29  and  O7_30
REMARK    9  A    between atoms: C25_32  and  C28_35
REMARK   10  A    between atoms: C28_35  and  O8_36
REMARK   11  A    between atoms: C29_38  and  O10_42
REMARK   12  A    between atoms: O10_42  and  C33_43
REMARK   13  A    between atoms: C34_45  and  C35_46
REMARK   14  A    between atoms: C35_46  and  O12_47
REMARK   15  A    between atoms: C36_48  and  O13_49
REMARK   16  A    between atoms: C37_50  and  O14_51
REMARK   17  A    between atoms: C38_52  and  O15_53
REMARK   18  A    between atoms: C39_54  and  O16_55
REMARK   19  A    between atoms: C40_57  and  O18_58
REMARK   20  A    between atoms: C41_59  and  O19_60
REMARK   21  A    between atoms: C42_61  and  O20_62
REMARK                            x       y       z     vdW  Elec       q    Type
REMARK                         _______ _______ _______ _____ _____    ______ ____
ROOT
ATOM      1  C4  UNL     1      76.281  63.843 108.903  0.00  0.00    +0.000 A 
ATOM      2  C5  UNL     1      77.210  64.816 108.497  0.00  0.00    +0.000 A 
ATOM      3  C6  UNL     1      77.782  64.766 107.231  0.00  0.00    +0.000 A 
ATOM      4  C7  UNL     1      77.392  63.781 106.327  0.00  0.00    +0.000 A 
ATOM      5  C8  UNL     1      76.436  62.822 106.687  0.00  0.00    +0.000 A 
ATOM      6  C9  UNL     1      75.892  62.826 107.991  0.00  0.00    +0.000 A 
ATOM      7  C10 UNL     1      74.924  61.762 108.366  0.00  0.00    +0.000 C 
ATOM      8  O4  UNL     1      74.333  61.827 109.476  0.00  0.00    +0.000 OA
ATOM      9  C11 UNL     1      74.706  60.592 107.463  0.00  0.00    +0.000 A 
ATOM     10  C12 UNL     1      73.981  59.429 107.856  0.00  0.00    +0.000 A 
ATOM     11  C13 UNL     1      74.015  58.282 107.060  0.00  0.00    +0.000 A 
ATOM     12  C14 UNL     1      74.705  58.267 105.844  0.00  0.00    +0.000 A 
ATOM     13  C15 UNL     1      75.350  59.432 105.413  0.00  0.00    +0.000 A 
ATOM     14  C16 UNL     1      75.339  60.596 106.198  0.00  0.00    +0.000 A 
ATOM     15  C17 UNL     1      75.941  61.867 105.620  0.00  0.00    +0.000 C 
ENDROOT
BRANCH  15  16
ATOM     16  C18 UNL     1      74.976  62.601 104.616  0.00  0.00    +0.000 C 
ATOM     17  C19 UNL     1      75.152  62.068 103.203  0.00  0.00    +0.000 A 
ATOM     18  C20 UNL     1      74.236  61.150 102.644  0.00  0.00    +0.000 A 
ATOM     19  C21 UNL     1      73.041  60.785 103.425  0.00  0.00    +0.000 C 
ATOM     20  O6  UNL     1      72.471  59.677 103.228  0.00  0.00    +0.000 OA
ATOM     21  C22 UNL     1      72.588  61.682 104.515  0.00  0.00    +0.000 A 
ATOM     22  C23 UNL     1      71.266  61.650 105.027  0.00  0.00    +0.000 A 
ATOM     23  C24 UNL     1      70.931  62.427 106.143  0.00  0.00    +0.000 A 
ATOM     24  C25 UNL     1      71.855  63.320 106.701  0.00  0.00    +0.000 A 
ATOM     25  C26 UNL     1      73.133  63.417 106.135  0.00  0.00    +0.000 A 
ATOM     26  C27 UNL     1      73.523  62.578 105.078  0.00  0.00    +0.000 A 
ATOM     27  C29 UNL     1      74.472  60.605 101.363  0.00  0.00    +0.000 A 
ATOM     28  C30 UNL     1      75.672  60.938 100.692  0.00  0.00    +0.000 A 
ATOM     29  C31 UNL     1      76.580  61.837 101.255  0.00  0.00    +0.000 A 
ATOM     30  C32 UNL     1      76.315  62.410 102.494  0.00  0.00    +0.000 A 
BRANCH  22  31
ATOM     31  O7  UNL     1      70.251  60.886 104.445  0.00  0.00    +0.000 OA
ATOM     32  H14 UNL     1      69.479  61.287 103.931  0.00  0.00    +0.000 HD
ENDBRANCH  22  31
BRANCH  24  33
ATOM     33  C28 UNL     1      71.493  64.140 107.881  0.00  0.00    +0.000 C 
ATOM     34  O9  UNL     1      70.709  65.125 107.769  0.00  0.00    +0.000 OA
BRANCH  33  35
ATOM     35  O8  UNL     1      72.024  63.837 109.132  0.00  0.00    +0.000 OA
ATOM     36  H17 UNL     1      72.427  62.932 109.326  0.00  0.00    +0.000 HD
ENDBRANCH  33  35
ENDBRANCH  24  33
BRANCH  27  37
ATOM     37  O10 UNL     1      73.508  59.747 100.787  0.00  0.00    +0.000 OA
BRANCH  37  38
ATOM     38  C33 UNL     1      72.437  60.120  99.908  0.00  0.00    +0.000 C 
ATOM     39  O11 UNL     1      71.547  61.003 100.583  0.00  0.00    +0.000 OA
ATOM     40  C34 UNL     1      70.577  61.676  99.771  0.00  0.00    +0.000 C 
ATOM     41  C36 UNL     1      70.647  61.414  98.249  0.00  0.00    +0.000 C 
ATOM     42  C37 UNL     1      72.113  61.621  97.809  0.00  0.00    +0.000 C 
ATOM     43  C38 UNL     1      73.066  60.681  98.592  0.00  0.00    +0.000 C 
BRANCH  41  44
ATOM     44  O13 UNL     1      70.214  60.103  97.952  0.00  0.00    +0.000 OA
ATOM     45  H27 UNL     1      69.230  60.137  97.864  0.00  0.00    +0.000 HD
ENDBRANCH  41  44
BRANCH  42  46
ATOM     46  O14 UNL     1      72.285  61.510  96.415  0.00  0.00    +0.000 OA
ATOM     47  H29 UNL     1      71.505  61.904  95.955  0.00  0.00    +0.000 HD
ENDBRANCH  42  46
BRANCH  43  48
ATOM     48  O15 UNL     1      73.517  59.615  97.789  0.00  0.00    +0.000 OA
ATOM     49  H31 UNL     1      73.054  59.665  96.904  0.00  0.00    +0.000 HD
ENDBRANCH  43  48
BRANCH  40  50
ATOM     50  C35 UNL     1      69.161  61.428 100.320  0.00  0.00    +0.000 C 
BRANCH  50  51
ATOM     51  O12 UNL     1      69.222  60.868 101.604  0.00  0.00    +0.000 OA
ATOM     52  H25 UNL     1      69.467  59.915 101.496  0.00  0.00    +0.000 HD
ENDBRANCH  50  51
ENDBRANCH  40  50
ENDBRANCH  37  38
ENDBRANCH  27  37
ENDBRANCH  15  16
BRANCH  10  53
ATOM     53  O5  UNL     1      73.199  59.365 109.007  0.00  0.00    +0.000 OA
ATOM     54  H9  UNL     1      73.443  58.824 109.825  0.00  0.00    +0.000 HD
ENDBRANCH  10  53
BRANCH  12  55
ATOM     55  C39 UNL     1      74.732  57.044 105.016  0.00  0.00    +0.000 C 
ATOM     56  O17 UNL     1      75.506  56.094 105.313  0.00  0.00    +0.000 OA
BRANCH  55  57
ATOM     57  O16 UNL     1      73.904  56.929 103.902  0.00  0.00    +0.000 OA
ATOM     58  H32 UNL     1      72.912  57.118 103.972  0.00  0.00    +0.000 HD
ENDBRANCH  55  57
ENDBRANCH  12  55
BRANCH   1  59
ATOM     59  O3  UNL     1      75.728  63.853 110.196  0.00  0.00    +0.000 OA
BRANCH  59  62
ATOM     60  C2  UNL     1      73.720  66.788 110.536  0.00  0.00    +0.000 C 
ATOM     61  O2  UNL     1      74.162  65.527 110.041  0.00  0.00    +0.000 OA
ATOM     62  C3  UNL     1      75.155  64.967 110.885  0.00  0.00    +0.000 C 
ATOM     63  C40 UNL     1      74.515  64.494 112.222  0.00  0.00    +0.000 C 
ATOM     64  C41 UNL     1      73.215  65.277 112.533  0.00  0.00    +0.000 C 
ATOM     65  C42 UNL     1      73.342  66.740 112.054  0.00  0.00    +0.000 C 
BRANCH  63  66
ATOM     66  O18 UNL     1      75.434  64.676 113.268  0.00  0.00    +0.000 OA
ATOM     67  H34 UNL     1      76.184  64.047 113.106  0.00  0.00    +0.000 HD
ENDBRANCH  63  66
BRANCH  64  68
ATOM     68  O19 UNL     1      72.132  64.662 111.872  0.00  0.00    +0.000 OA
ATOM     69  H36 UNL     1      72.342  63.690 111.798  0.00  0.00    +0.000 HD
ENDBRANCH  64  68
BRANCH  65  70
ATOM     70  O20 UNL     1      74.339  67.399 112.799  0.00  0.00    +0.000 OA
ATOM     71  H38 UNL     1      74.636  66.779 113.514  0.00  0.00    +0.000 HD
ENDBRANCH  65  70
BRANCH  60  72
ATOM     72  C1  UNL     1      72.524  67.241 109.679  0.00  0.00    +0.000 C 
BRANCH  72  73
ATOM     73  O1  UNL     1      71.317  66.751 110.202  0.00  0.00    +0.000 OA
ATOM     74  H1  UNL     1      70.592  67.214 109.710  0.00  0.00    +0.000 HD
ENDBRANCH  72  73
ENDBRANCH  60  72
ENDBRANCH  59  62
ENDBRANCH   1  59
TORSDOF 21
ENDMDL
MODEL 5
REMARK VINA RESULT:      -7.9      1.065     10.580
REMARK  Name = ./S4018.pdb
REMARK  21 active torsions:
REMARK  status: ('A' for Active; 'I' for Inactive)
REMARK    1  A    between atoms: O1_1  and  C1_2
REMARK    2  A    between atoms: C1_2  and  C2_3
REMARK    3  A    between atoms: C3_5  and  O3_6
REMARK    4  A    between atoms: O3_6  and  C4_7
REMARK    5  A    between atoms: C12_16  and  O5_17
REMARK    6  A    between atoms: C14_19  and  C39_54
REMARK    7  A    between atoms: C17_22  and  C18_23
REMARK    8  A    between atoms: C23_29  and  O7_30
REMARK    9  A    between atoms: C25_32  and  C28_35
REMARK   10  A    between atoms: C28_35  and  O8_36
REMARK   11  A    between atoms: C29_38  and  O10_42
REMARK   12  A    between atoms: O10_42  and  C33_43
REMARK   13  A    between atoms: C34_45  and  C35_46
REMARK   14  A    between atoms: C35_46  and  O12_47
REMARK   15  A    between atoms: C36_48  and  O13_49
REMARK   16  A    between atoms: C37_50  and  O14_51
REMARK   17  A    between atoms: C38_52  and  O15_53
REMARK   18  A    between atoms: C39_54  and  O16_55
REMARK   19  A    between atoms: C40_57  and  O18_58
REMARK   20  A    between atoms: C41_59  and  O19_60
REMARK   21  A    between atoms: C42_61  and  O20_62
REMARK                            x       y       z     vdW  Elec       q    Type
REMARK                         _______ _______ _______ _____ _____    ______ ____
ROOT
ATOM      1  C4  UNL     1      74.239  60.729 101.080  0.00  0.00    +0.000 A 
ATOM      2  C5  UNL     1      75.551  60.800 100.583  0.00  0.00    +0.000 A 
ATOM      3  C6  UNL     1      76.526  61.527 101.258  0.00  0.00    +0.000 A 
ATOM      4  C7  UNL     1      76.224  62.143 102.470  0.00  0.00    +0.000 A 
ATOM      5  C8  UNL     1      74.936  62.053 103.013  0.00  0.00    +0.000 A 
ATOM      6  C9  UNL     1      73.921  61.369 102.308  0.00  0.00    +0.000 A 
ATOM      7  C10 UNL     1      72.548  61.339 102.878  0.00  0.00    +0.000 C 
ATOM      8  O4  UNL     1      71.666  60.626 102.330  0.00  0.00    +0.000 OA
ATOM      9  C11 UNL     1      72.202  62.200 104.048  0.00  0.00    +0.000 A 
ATOM     10  C12 UNL     1      70.865  62.402 104.499  0.00  0.00    +0.000 A 
ATOM     11  C13 UNL     1      70.586  63.397 105.439  0.00  0.00    +0.000 A 
ATOM     12  C14 UNL     1      71.609  64.169 105.998  0.00  0.00    +0.000 A 
ATOM     13  C15 UNL     1      72.934  63.919 105.621  0.00  0.00    +0.000 A 
ATOM     14  C16 UNL     1      73.240  62.932 104.672  0.00  0.00    +0.000 A 
ATOM     15  C17 UNL     1      74.703  62.615 104.401  0.00  0.00    +0.000 C 
ENDROOT
BRANCH  15  16
ATOM     16  C18 UNL     1      75.340  61.680 105.497  0.00  0.00    +0.000 C 
ATOM     17  C19 UNL     1      75.744  62.480 106.726  0.00  0.00    +0.000 A 
ATOM     18  C20 UNL     1      74.950  62.482 107.894  0.00  0.00    +0.000 A 
ATOM     19  C21 UNL     1      73.761  61.614 107.939  0.00  0.00    +0.000 C 
ATOM     20  O6  UNL     1      72.792  61.907 108.692  0.00  0.00    +0.000 OA
ATOM     21  C22 UNL     1      73.672  60.462 107.010  0.00  0.00    +0.000 A 
ATOM     22  C23 UNL     1      72.811  59.360 107.245  0.00  0.00    +0.000 A 
ATOM     23  C24 UNL     1      72.671  58.363 106.270  0.00  0.00    +0.000 A 
ATOM     24  C25 UNL     1      73.450  58.383 105.106  0.00  0.00    +0.000 A 
ATOM     25  C26 UNL     1      74.367  59.424 104.919  0.00  0.00    +0.000 A 
ATOM     26  C27 UNL     1      74.455  60.486 105.835  0.00  0.00    +0.000 A 
ATOM     27  C29 UNL     1      75.305  63.302 108.988  0.00  0.00    +0.000 A 
ATOM     28  C30 UNL     1      76.416  64.167 108.859  0.00  0.00    +0.000 A 
ATOM     29  C31 UNL     1      77.190  64.169 107.697  0.00  0.00    +0.000 A 
ATOM     30  C32 UNL     1      76.866  63.320 106.644  0.00  0.00    +0.000 A 
BRANCH  22  31
ATOM     31  O7  UNL     1      72.101  59.200 108.438  0.00  0.00    +0.000 OA
ATOM     32  H14 UNL     1      72.545  59.058 109.334  0.00  0.00    +0.000 HD
ENDBRANCH  22  31
BRANCH  24  33
ATOM     33  C28 UNL     1      73.297  57.324 104.080  0.00  0.00    +0.000 C 
ATOM     34  O9  UNL     1      73.455  56.106 104.378  0.00  0.00    +0.000 OA
BRANCH  33  35
ATOM     35  O8  UNL     1      72.982  57.664 102.767  0.00  0.00    +0.000 OA
ATOM     36  H17 UNL     1      72.624  58.578 102.533  0.00  0.00    +0.000 HD
ENDBRANCH  33  35
ENDBRANCH  24  33
BRANCH  27  37
ATOM     37  O10 UNL     1      74.543  63.236 110.177  0.00  0.00    +0.000 OA
BRANCH  37  38
ATOM     38  C33 UNL     1      73.991  64.339 110.910  0.00  0.00    +0.000 C 
ATOM     39  O11 UNL     1      75.036  65.216 111.319  0.00  0.00    +0.000 OA
ATOM     40  C34 UNL     1      74.635  66.493 111.827  0.00  0.00    +0.000 C 
ATOM     41  C36 UNL     1      73.120  66.798 111.815  0.00  0.00    +0.000 C 
ATOM     42  C37 UNL     1      72.590  66.469 110.402  0.00  0.00    +0.000 C 
ATOM     43  C38 UNL     1      72.875  64.991 110.032  0.00  0.00    +0.000 C 
BRANCH  41  44
ATOM     44  O13 UNL     1      72.453  66.028 112.793  0.00  0.00    +0.000 OA
ATOM     45  H27 UNL     1      72.797  66.318 113.673  0.00  0.00    +0.000 HD
ENDBRANCH  41  44
BRANCH  42  46
ATOM     46  O14 UNL     1      71.232  66.806 110.236  0.00  0.00    +0.000 OA
ATOM     47  H29 UNL     1      70.782  66.105 109.706  0.00  0.00    +0.000 HD
ENDBRANCH  42  46
BRANCH  43  48
ATOM     48  O15 UNL     1      71.706  64.208 110.091  0.00  0.00    +0.000 OA
ATOM     49  H31 UNL     1      71.954  63.287 110.390  0.00  0.00    +0.000 HD
ENDBRANCH  43  48
BRANCH  40  50
ATOM     50  C35 UNL     1      75.246  66.727 113.220  0.00  0.00    +0.000 C 
BRANCH  50  51
ATOM     51  O12 UNL     1      74.696  67.874 113.812  0.00  0.00    +0.000 OA
ATOM     52  H25 UNL     1      74.090  68.284 113.145  0.00  0.00    +0.000 HD
ENDBRANCH  50  51
ENDBRANCH  40  50
ENDBRANCH  37  38
ENDBRANCH  27  37
ENDBRANCH  15  16
BRANCH  10  53
ATOM     53  O5  UNL     1      69.785  61.636 104.064  0.00  0.00    +0.000 OA
ATOM     54  H9  UNL     1      69.541  60.735 104.452  0.00  0.00    +0.000 HD
ENDBRANCH  10  53
BRANCH  12  55
ATOM     55  C39 UNL     1      71.295  65.218 106.989  0.00  0.00    +0.000 C 
ATOM     56  O17 UNL     1      70.341  65.063 107.797  0.00  0.00    +0.000 OA
BRANCH  55  57
ATOM     57  O16 UNL     1      72.052  66.386 107.041  0.00  0.00    +0.000 OA
ATOM     58  H32 UNL     1      72.069  66.957 107.876  0.00  0.00    +0.000 HD
ENDBRANCH  55  57
ENDBRANCH  12  55
BRANCH   1  59
ATOM     59  O3  UNL     1      73.230  60.037 100.386  0.00  0.00    +0.000 OA
BRANCH  59  62
ATOM     60  C2  UNL     1      71.550  59.263  97.329  0.00  0.00    +0.000 C 
ATOM     61  O2  UNL     1      71.855  59.250  98.721  0.00  0.00    +0.000 OA
ATOM     62  C3  UNL     1      72.776  60.277  99.051  0.00  0.00    +0.000 C 
ATOM     63  C40 UNL     1      72.081  61.666  98.967  0.00  0.00    +0.000 C 
ATOM     64  C41 UNL     1      70.872  61.634  97.999  0.00  0.00    +0.000 C 
ATOM     65  C42 UNL     1      71.160  60.688  96.812  0.00  0.00    +0.000 C 
BRANCH  63  66
ATOM     66  O18 UNL     1      73.009  62.624  98.528  0.00  0.00    +0.000 OA
ATOM     67  H34 UNL     1      73.258  63.170  99.318  0.00  0.00    +0.000 HD
ENDBRANCH  63  66
BRANCH  64  68
ATOM     68  O19 UNL     1      69.732  61.178  98.693  0.00  0.00    +0.000 OA
ATOM     69  H36 UNL     1      70.009  60.381  99.226  0.00  0.00    +0.000 HD
ENDBRANCH  64  68
BRANCH  65  70
ATOM     70  O20 UNL     1      72.218  61.203  96.039  0.00  0.00    +0.000 OA
ATOM     71  H38 UNL     1      71.838  61.892  95.435  0.00  0.00    +0.000 HD
ENDBRANCH  65  70
BRANCH  60  72
ATOM     72  C1  UNL     1      70.415  58.252  97.084  0.00  0.00    +0.000 C 
BRANCH  72  73
ATOM     73  O1  UNL     1      69.436  58.343  98.086  0.00  0.00    +0.000 OA
ATOM     74  H1  UNL     1      69.889  58.116  98.938  0.00  0.00    +0.000 HD
ENDBRANCH  72  73
ENDBRANCH  60  72
ENDBRANCH  59  62
ENDBRANCH   1  59
TORSDOF 21
ENDMDL
MODEL 6
REMARK VINA RESULT:      -7.8      2.152      4.899
REMARK  Name = ./S4018.pdb
REMARK  21 active torsions:
REMARK  status: ('A' for Active; 'I' for Inactive)
REMARK    1  A    between atoms: O1_1  and  C1_2
REMARK    2  A    between atoms: C1_2  and  C2_3
REMARK    3  A    between atoms: C3_5  and  O3_6
REMARK    4  A    between atoms: O3_6  and  C4_7
REMARK    5  A    between atoms: C12_16  and  O5_17
REMARK    6  A    between atoms: C14_19  and  C39_54
REMARK    7  A    between atoms: C17_22  and  C18_23
REMARK    8  A    between atoms: C23_29  and  O7_30
REMARK    9  A    between atoms: C25_32  and  C28_35
REMARK   10  A    between atoms: C28_35  and  O8_36
REMARK   11  A    between atoms: C29_38  and  O10_42
REMARK   12  A    between atoms: O10_42  and  C33_43
REMARK   13  A    between atoms: C34_45  and  C35_46
REMARK   14  A    between atoms: C35_46  and  O12_47
REMARK   15  A    between atoms: C36_48  and  O13_49
REMARK   16  A    between atoms: C37_50  and  O14_51
REMARK   17  A    between atoms: C38_52  and  O15_53
REMARK   18  A    between atoms: C39_54  and  O16_55
REMARK   19  A    between atoms: C40_57  and  O18_58
REMARK   20  A    between atoms: C41_59  and  O19_60
REMARK   21  A    between atoms: C42_61  and  O20_62
REMARK                            x       y       z     vdW  Elec       q    Type
REMARK                         _______ _______ _______ _____ _____    ______ ____
ROOT
ATOM      1  C4  UNL     1      72.589  66.597 109.066  0.00  0.00    +0.000 A 
ATOM      2  C5  UNL     1      71.244  66.853 109.378  0.00  0.00    +0.000 A 
ATOM      3  C6  UNL     1      70.232  66.511 108.487  0.00  0.00    +0.000 A 
ATOM      4  C7  UNL     1      70.540  65.854 107.299  0.00  0.00    +0.000 A 
ATOM      5  C8  UNL     1      71.869  65.545 106.980  0.00  0.00    +0.000 A 
ATOM      6  C9  UNL     1      72.911  65.942 107.848  0.00  0.00    +0.000 A 
ATOM      7  C10 UNL     1      74.317  65.654 107.457  0.00  0.00    +0.000 C 
ATOM      8  O4  UNL     1      75.246  65.882 108.277  0.00  0.00    +0.000 OA
ATOM      9  C11 UNL     1      74.629  65.165 106.081  0.00  0.00    +0.000 A 
ATOM     10  C12 UNL     1      75.954  65.094 105.561  0.00  0.00    +0.000 A 
ATOM     11  C13 UNL     1      76.160  64.857 104.200  0.00  0.00    +0.000 A 
ATOM     12  C14 UNL     1      75.085  64.629 103.336  0.00  0.00    +0.000 A 
ATOM     13  C15 UNL     1      73.785  64.616 103.856  0.00  0.00    +0.000 A 
ATOM     14  C16 UNL     1      73.550  64.860 105.218  0.00  0.00    +0.000 A 
ATOM     15  C17 UNL     1      72.134  64.701 105.750  0.00  0.00    +0.000 C 
ENDROOT
BRANCH  15  16
ATOM     16  C18 UNL     1      71.740  63.199 106.008  0.00  0.00    +0.000 C 
ATOM     17  C19 UNL     1      71.237  62.542 104.732  0.00  0.00    +0.000 A 
ATOM     18  C20 UNL     1      72.063  61.682 103.974  0.00  0.00    +0.000 A 
ATOM     19  C21 UNL     1      73.402  61.352 104.493  0.00  0.00    +0.000 C 
ATOM     20  O6  UNL     1      74.323  61.019 103.700  0.00  0.00    +0.000 OA
ATOM     21  C22 UNL     1      73.678  61.526 105.939  0.00  0.00    +0.000 A 
ATOM     22  C23 UNL     1      74.749  60.867 106.594  0.00  0.00    +0.000 A 
ATOM     23  C24 UNL     1      75.043  61.169 107.930  0.00  0.00    +0.000 A 
ATOM     24  C25 UNL     1      74.229  62.039 108.665  0.00  0.00    +0.000 A 
ATOM     25  C26 UNL     1      73.116  62.619 108.042  0.00  0.00    +0.000 A 
ATOM     26  C27 UNL     1      72.858  62.408 106.678  0.00  0.00    +0.000 A 
ATOM     27  C29 UNL     1      71.599  61.155 102.748  0.00  0.00    +0.000 A 
ATOM     28  C30 UNL     1      70.334  61.563 102.266  0.00  0.00    +0.000 A 
ATOM     29  C31 UNL     1      69.527  62.424 103.014  0.00  0.00    +0.000 A 
ATOM     30  C32 UNL     1      69.969  62.897 104.246  0.00  0.00    +0.000 A 
BRANCH  22  31
ATOM     31  O7  UNL     1      75.526  59.888 105.968  0.00  0.00    +0.000 OA
ATOM     32  H14 UNL     1      76.537  59.894 105.972  0.00  0.00    +0.000 HD
ENDBRANCH  22  31
BRANCH  24  33
ATOM     33  C28 UNL     1      74.546  62.354 110.079  0.00  0.00    +0.000 C 
ATOM     34  O9  UNL     1      74.611  61.437 110.947  0.00  0.00    +0.000 OA
BRANCH  33  35
ATOM     35  O8  UNL     1      74.768  63.672 110.469  0.00  0.00    +0.000 OA
ATOM     36  H17 UNL     1      75.583  63.930 111.004  0.00  0.00    +0.000 HD
ENDBRANCH  33  35
ENDBRANCH  24  33
BRANCH  27  37
ATOM     37  O10 UNL     1      72.407  60.236 102.040  0.00  0.00    +0.000 OA
BRANCH  37  38
ATOM     38  C33 UNL     1      72.458  60.051 100.618  0.00  0.00    +0.000 C 
ATOM     39  O11 UNL     1      72.754  61.291  99.982  0.00  0.00    +0.000 OA
ATOM     40  C34 UNL     1      73.101  61.229  98.594  0.00  0.00    +0.000 C 
ATOM     41  C36 UNL     1      73.177  59.820  97.962  0.00  0.00    +0.000 C 
ATOM     42  C37 UNL     1      74.049  58.942  98.886  0.00  0.00    +0.000 C 
ATOM     43  C38 UNL     1      73.461  58.889 100.320  0.00  0.00    +0.000 C 
BRANCH  41  44
ATOM     44  O13 UNL     1      71.884  59.272  97.820  0.00  0.00    +0.000 OA
ATOM     45  H27 UNL     1      71.286  60.008  97.543  0.00  0.00    +0.000 HD
ENDBRANCH  41  44
BRANCH  42  46
ATOM     46  O14 UNL     1      74.278  57.655  98.359  0.00  0.00    +0.000 OA
ATOM     47  H29 UNL     1      73.612  57.464  97.655  0.00  0.00    +0.000 HD
ENDBRANCH  42  46
BRANCH  43  48
ATOM     48  O15 UNL     1      72.845  57.650 100.581  0.00  0.00    +0.000 OA
ATOM     49  H31 UNL     1      72.235  57.758 101.367  0.00  0.00    +0.000 HD
ENDBRANCH  43  48
BRANCH  40  50
ATOM     50  C35 UNL     1      72.194  62.165  97.777  0.00  0.00    +0.000 C 
BRANCH  50  51
ATOM     51  O12 UNL     1      72.197  61.795  96.424  0.00  0.00    +0.000 OA
ATOM     52  H25 UNL     1      72.864  61.070  96.321  0.00  0.00    +0.000 HD
ENDBRANCH  50  51
ENDBRANCH  40  50
ENDBRANCH  37  38
ENDBRANCH  27  37
ENDBRANCH  15  16
BRANCH  10  53
ATOM     53  O5  UNL     1      77.095  65.228 106.349  0.00  0.00    +0.000 OA
ATOM     54  H9  UNL     1      77.092  65.184 107.359  0.00  0.00    +0.000 HD
ENDBRANCH  10  53
BRANCH  12  55
ATOM     55  C39 UNL     1      75.321  64.383 101.899  0.00  0.00    +0.000 C 
ATOM     56  O17 UNL     1      75.877  65.262 101.187  0.00  0.00    +0.000 OA
BRANCH  55  57
ATOM     57  O16 UNL     1      74.932  63.178 101.318  0.00  0.00    +0.000 OA
ATOM     58  H32 UNL     1      74.068  62.727 101.588  0.00  0.00    +0.000 HD
ENDBRANCH  55  57
ENDBRANCH  12  55
BRANCH   1  59
ATOM     59  O3  UNL     1      73.628  66.978 109.935  0.00  0.00    +0.000 OA
BRANCH  59  62
ATOM     60  C2  UNL     1      72.869  65.633 113.157  0.00  0.00    +0.000 C 
ATOM     61  O2  UNL     1      73.155  65.665 111.762  0.00  0.00    +0.000 OA
ATOM     62  C3  UNL     1      73.616  66.947 111.365  0.00  0.00    +0.000 C 
ATOM     63  C40 UNL     1      75.051  67.191 111.913  0.00  0.00    +0.000 C 
ATOM     64  C41 UNL     1      75.324  66.339 113.178  0.00  0.00    +0.000 C 
ATOM     65  C42 UNL     1      74.037  66.207 114.024  0.00  0.00    +0.000 C 
BRANCH  63  66
ATOM     66  O18 UNL     1      75.207  68.552 112.222  0.00  0.00    +0.000 OA
ATOM     67  H34 UNL     1      75.523  69.001 111.396  0.00  0.00    +0.000 HD
ENDBRANCH  63  66
BRANCH  64  68
ATOM     68  O19 UNL     1      75.760  65.056 112.791  0.00  0.00    +0.000 OA
ATOM     69  H36 UNL     1      75.053  64.407 113.064  0.00  0.00    +0.000 HD
ENDBRANCH  64  68
BRANCH  65  70
ATOM     70  O20 UNL     1      73.665  67.471 114.522  0.00  0.00    +0.000 OA
ATOM     71  H38 UNL     1      74.485  67.911 114.864  0.00  0.00    +0.000 HD
ENDBRANCH  65  70
BRANCH  60  72
ATOM     72  C1  UNL     1      72.555  64.175 113.542  0.00  0.00    +0.000 C 
BRANCH  72  73
ATOM     73  O1  UNL     1      73.604  63.320 113.169  0.00  0.00    +0.000 OA
ATOM     74  H1  UNL     1      73.886  62.850 113.994  0.00  0.00    +0.000 HD
ENDBRANCH  72  73
ENDBRANCH  60  72
ENDBRANCH  59  62
ENDBRANCH   1  59
TORSDOF 21
ENDMDL
MODEL 7
REMARK VINA RESULT:      -7.7      1.074     10.698
REMARK  Name = ./S4018.pdb
REMARK  21 active torsions:
REMARK  status: ('A' for Active; 'I' for Inactive)
REMARK    1  A    between atoms: O1_1  and  C1_2
REMARK    2  A    between atoms: C1_2  and  C2_3
REMARK    3  A    between atoms: C3_5  and  O3_6
REMARK    4  A    between atoms: O3_6  and  C4_7
REMARK    5  A    between atoms: C12_16  and  O5_17
REMARK    6  A    between atoms: C14_19  and  C39_54
REMARK    7  A    between atoms: C17_22  and  C18_23
REMARK    8  A    between atoms: C23_29  and  O7_30
REMARK    9  A    between atoms: C25_32  and  C28_35
REMARK   10  A    between atoms: C28_35  and  O8_36
REMARK   11  A    between atoms: C29_38  and  O10_42
REMARK   12  A    between atoms: O10_42  and  C33_43
REMARK   13  A    between atoms: C34_45  and  C35_46
REMARK   14  A    between atoms: C35_46  and  O12_47
REMARK   15  A    between atoms: C36_48  and  O13_49
REMARK   16  A    between atoms: C37_50  and  O14_51
REMARK   17  A    between atoms: C38_52  and  O15_53
REMARK   18  A    between atoms: C39_54  and  O16_55
REMARK   19  A    between atoms: C40_57  and  O18_58
REMARK   20  A    between atoms: C41_59  and  O19_60
REMARK   21  A    between atoms: C42_61  and  O20_62
REMARK                            x       y       z     vdW  Elec       q    Type
REMARK                         _______ _______ _______ _____ _____    ______ ____
ROOT
ATOM      1  C4  UNL     1      74.143  60.918 101.164  0.00  0.00    +0.000 A 
ATOM      2  C5  UNL     1      75.424  61.074 100.608  0.00  0.00    +0.000 A 
ATOM      3  C6  UNL     1      76.395  61.823 101.264  0.00  0.00    +0.000 A 
ATOM      4  C7  UNL     1      76.124  62.377 102.512  0.00  0.00    +0.000 A 
ATOM      5  C8  UNL     1      74.871  62.202 103.113  0.00  0.00    +0.000 A 
ATOM      6  C9  UNL     1      73.856  61.495 102.429  0.00  0.00    +0.000 A 
ATOM      7  C10 UNL     1      72.516  61.374 103.063  0.00  0.00    +0.000 C 
ATOM      8  O4  UNL     1      71.644  60.639 102.529  0.00  0.00    +0.000 OA
ATOM      9  C11 UNL     1      72.187  62.172 104.282  0.00  0.00    +0.000 A 
ATOM     10  C12 UNL     1      70.866  62.289 104.803  0.00  0.00    +0.000 A 
ATOM     11  C13 UNL     1      70.587  63.232 105.795  0.00  0.00    +0.000 A 
ATOM     12  C14 UNL     1      71.597  64.034 106.335  0.00  0.00    +0.000 A 
ATOM     13  C15 UNL     1      72.912  63.865 105.886  0.00  0.00    +0.000 A 
ATOM     14  C16 UNL     1      73.218  62.931 104.884  0.00  0.00    +0.000 A 
ATOM     15  C17 UNL     1      74.680  62.698 104.531  0.00  0.00    +0.000 C 
ENDROOT
BRANCH  15  16
ATOM     16  C18 UNL     1      75.415  61.757 105.557  0.00  0.00    +0.000 C 
ATOM     17  C19 UNL     1      76.048  62.564 106.679  0.00  0.00    +0.000 A 
ATOM     18  C20 UNL     1      75.441  62.656 107.951  0.00  0.00    +0.000 A 
ATOM     19  C21 UNL     1      74.220  61.871 108.207  0.00  0.00    +0.000 C 
ATOM     20  O6  UNL     1      73.396  62.252 109.082  0.00  0.00    +0.000 OA
ATOM     21  C22 UNL     1      73.921  60.700 107.348  0.00  0.00    +0.000 A 
ATOM     22  C23 UNL     1      73.039  59.667 107.752  0.00  0.00    +0.000 A 
ATOM     23  C24 UNL     1      72.692  58.653 106.850  0.00  0.00    +0.000 A 
ATOM     24  C25 UNL     1      73.286  58.584 105.583  0.00  0.00    +0.000 A 
ATOM     25  C26 UNL     1      74.228  59.555 105.221  0.00  0.00    +0.000 A 
ATOM     26  C27 UNL     1      74.518  60.636 106.070  0.00  0.00    +0.000 A 
ATOM     27  C29 UNL     1      76.006  63.483 108.947  0.00  0.00    +0.000 A 
ATOM     28  C30 UNL     1      77.138  64.266 108.621  0.00  0.00    +0.000 A 
ATOM     29  C31 UNL     1      77.726  64.181 107.357  0.00  0.00    +0.000 A 
ATOM     30  C32 UNL     1      77.195  63.324 106.398  0.00  0.00    +0.000 A 
BRANCH  22  31
ATOM     31  O7  UNL     1      72.507  59.591 109.043  0.00  0.00    +0.000 OA
ATOM     32  H14 UNL     1      71.668  60.077 109.327  0.00  0.00    +0.000 HD
ENDBRANCH  22  31
BRANCH  24  33
ATOM     33  C28 UNL     1      72.915  57.508 104.634  0.00  0.00    +0.000 C 
ATOM     34  O9  UNL     1      72.610  56.354 105.051  0.00  0.00    +0.000 OA
BRANCH  33  35
ATOM     35  O8  UNL     1      72.906  57.756 103.264  0.00  0.00    +0.000 OA
ATOM     36  H17 UNL     1      73.656  58.263 102.818  0.00  0.00    +0.000 HD
ENDBRANCH  33  35
ENDBRANCH  24  33
BRANCH  27  37
ATOM     37  O10 UNL     1      75.430  63.504 110.238  0.00  0.00    +0.000 OA
BRANCH  37  38
ATOM     38  C33 UNL     1      75.061  64.663 110.998  0.00  0.00    +0.000 C 
ATOM     39  O11 UNL     1      74.779  65.746 110.117  0.00  0.00    +0.000 OA
ATOM     40  C34 UNL     1      74.143  66.891 110.696  0.00  0.00    +0.000 C 
ATOM     41  C36 UNL     1      73.778  66.796 112.195  0.00  0.00    +0.000 C 
ATOM     42  C37 UNL     1      73.028  65.463 112.408  0.00  0.00    +0.000 C 
ATOM     43  C38 UNL     1      73.894  64.259 111.957  0.00  0.00    +0.000 C 
BRANCH  41  44
ATOM     44  O13 UNL     1      74.943  66.849 112.991  0.00  0.00    +0.000 OA
ATOM     45  H27 UNL     1      74.829  66.188 113.717  0.00  0.00    +0.000 HD
ENDBRANCH  41  44
BRANCH  42  46
ATOM     46  O14 UNL     1      72.550  65.310 113.724  0.00  0.00    +0.000 OA
ATOM     47  H29 UNL     1      72.159  64.409 113.830  0.00  0.00    +0.000 HD
ENDBRANCH  42  46
BRANCH  43  48
ATOM     48  O15 UNL     1      74.409  63.550 113.059  0.00  0.00    +0.000 OA
ATOM     49  H31 UNL     1      73.723  62.887 113.360  0.00  0.00    +0.000 HD
ENDBRANCH  43  48
BRANCH  40  50
ATOM     50  C35 UNL     1      74.957  68.162 110.394  0.00  0.00    +0.000 C 
BRANCH  50  51
ATOM     51  O12 UNL     1      74.862  69.071 111.457  0.00  0.00    +0.000 OA
ATOM     52  H25 UNL     1      74.235  69.784 111.176  0.00  0.00    +0.000 HD
ENDBRANCH  50  51
ENDBRANCH  40  50
ENDBRANCH  37  38
ENDBRANCH  27  37
ENDBRANCH  15  16
BRANCH  10  53
ATOM     53  O5  UNL     1      69.805  61.486 104.391  0.00  0.00    +0.000 OA
ATOM     54  H9  UNL     1      69.917  60.629 103.868  0.00  0.00    +0.000 HD
ENDBRANCH  10  53
BRANCH  12  55
ATOM     55  C39 UNL     1      71.283  65.027 107.382  0.00  0.00    +0.000 C 
ATOM     56  O17 UNL     1      70.307  65.812 107.239  0.00  0.00    +0.000 OA
BRANCH  55  57
ATOM     57  O16 UNL     1      72.061  65.105 108.534  0.00  0.00    +0.000 OA
ATOM     58  H32 UNL     1      72.791  65.800 108.621  0.00  0.00    +0.000 HD
ENDBRANCH  55  57
ENDBRANCH  12  55
BRANCH   1  59
ATOM     59  O3  UNL     1      73.135  60.203 100.491  0.00  0.00    +0.000 OA
BRANCH  59  62
ATOM     60  C2  UNL     1      71.641  59.189  97.409  0.00  0.00    +0.000 C 
ATOM     61  O2  UNL     1      71.883  59.259  98.811  0.00  0.00    +0.000 OA
ATOM     62  C3  UNL     1      72.730  60.353  99.128  0.00  0.00    +0.000 C 
ATOM     63  C40 UNL     1      71.961  61.693  98.947  0.00  0.00    +0.000 C 
ATOM     64  C41 UNL     1      70.799  61.544  97.932  0.00  0.00    +0.000 C 
ATOM     65  C42 UNL     1      71.194  60.562  96.806  0.00  0.00    +0.000 C 
BRANCH  63  66
ATOM     66  O18 UNL     1      72.851  62.683  98.500  0.00  0.00    +0.000 OA
ATOM     67  H34 UNL     1      73.689  62.222  98.239  0.00  0.00    +0.000 HD
ENDBRANCH  63  66
BRANCH  64  68
ATOM     68  O19 UNL     1      69.658  61.055  98.599  0.00  0.00    +0.000 OA
ATOM     69  H36 UNL     1      69.710  61.369  99.544  0.00  0.00    +0.000 HD
ENDBRANCH  64  68
BRANCH  65  70
ATOM     70  O20 UNL     1      72.254  61.103  96.054  0.00  0.00    +0.000 OA
ATOM     71  H38 UNL     1      72.597  61.893  96.546  0.00  0.00    +0.000 HD
ENDBRANCH  65  70
BRANCH  60  72
ATOM     72  C1  UNL     1      70.577  58.103  97.166  0.00  0.00    +0.000 C 
BRANCH  72  73
ATOM     73  O1  UNL     1      69.403  58.379  97.884  0.00  0.00    +0.000 OA
ATOM     74  H1  UNL     1      69.631  58.265  98.842  0.00  0.00    +0.000 HD
ENDBRANCH  72  73
ENDBRANCH  60  72
ENDBRANCH  59  62
ENDBRANCH   1  59
TORSDOF 21
ENDMDL
MODEL 8
REMARK VINA RESULT:      -7.5      4.345      7.753
REMARK  Name = ./S4018.pdb
REMARK  21 active torsions:
REMARK  status: ('A' for Active; 'I' for Inactive)
REMARK    1  A    between atoms: O1_1  and  C1_2
REMARK    2  A    between atoms: C1_2  and  C2_3
REMARK    3  A    between atoms: C3_5  and  O3_6
REMARK    4  A    between atoms: O3_6  and  C4_7
REMARK    5  A    between atoms: C12_16  and  O5_17
REMARK    6  A    between atoms: C14_19  and  C39_54
REMARK    7  A    between atoms: C17_22  and  C18_23
REMARK    8  A    between atoms: C23_29  and  O7_30
REMARK    9  A    between atoms: C25_32  and  C28_35
REMARK   10  A    between atoms: C28_35  and  O8_36
REMARK   11  A    between atoms: C29_38  and  O10_42
REMARK   12  A    between atoms: O10_42  and  C33_43
REMARK   13  A    between atoms: C34_45  and  C35_46
REMARK   14  A    between atoms: C35_46  and  O12_47
REMARK   15  A    between atoms: C36_48  and  O13_49
REMARK   16  A    between atoms: C37_50  and  O14_51
REMARK   17  A    between atoms: C38_52  and  O15_53
REMARK   18  A    between atoms: C39_54  and  O16_55
REMARK   19  A    between atoms: C40_57  and  O18_58
REMARK   20  A    between atoms: C41_59  and  O19_60
REMARK   21  A    between atoms: C42_61  and  O20_62
REMARK                            x       y       z     vdW  Elec       q    Type
REMARK                         _______ _______ _______ _____ _____    ______ ____
ROOT
ATOM      1  C4  UNL     1      75.052  69.600 108.820  0.00  0.00    +0.000 A 
ATOM      2  C5  UNL     1      73.980  70.493 108.649  0.00  0.00    +0.000 A 
ATOM      3  C6  UNL     1      72.848  70.112 107.936  0.00  0.00    +0.000 A 
ATOM      4  C7  UNL     1      72.740  68.817 107.437  0.00  0.00    +0.000 A 
ATOM      5  C8  UNL     1      73.773  67.890 107.630  0.00  0.00    +0.000 A 
ATOM      6  C9  UNL     1      74.954  68.283 108.298  0.00  0.00    +0.000 A 
ATOM      7  C10 UNL     1      76.060  67.298 108.438  0.00  0.00    +0.000 C 
ATOM      8  O4  UNL     1      77.062  67.589 109.143  0.00  0.00    +0.000 OA
ATOM      9  C11 UNL     1      76.011  66.004 107.693  0.00  0.00    +0.000 A 
ATOM     10  C12 UNL     1      77.126  65.122 107.590  0.00  0.00    +0.000 A 
ATOM     11  C13 UNL     1      77.092  64.054 106.691  0.00  0.00    +0.000 A 
ATOM     12  C14 UNL     1      75.954  63.794 105.921  0.00  0.00    +0.000 A 
ATOM     13  C15 UNL     1      74.825  64.607 106.079  0.00  0.00    +0.000 A 
ATOM     14  C16 UNL     1      74.836  65.692 106.970  0.00  0.00    +0.000 A 
ATOM     15  C17 UNL     1      73.541  66.457 107.197  0.00  0.00    +0.000 C 
ENDROOT
BRANCH  15  16
ATOM     16  C18 UNL     1      72.562  65.724 108.188  0.00  0.00    +0.000 C 
ATOM     17  C19 UNL     1      71.924  64.513 107.527  0.00  0.00    +0.000 A 
ATOM     18  C20 UNL     1      72.384  63.204 107.793  0.00  0.00    +0.000 A 
ATOM     19  C21 UNL     1      73.441  63.020 108.803  0.00  0.00    +0.000 C 
ATOM     20  O6  UNL     1      74.202  62.017 108.747  0.00  0.00    +0.000 OA
ATOM     21  C22 UNL     1      73.667  64.082 109.813  0.00  0.00    +0.000 A 
ATOM     22  C23 UNL     1      74.337  63.837 111.038  0.00  0.00    +0.000 A 
ATOM     23  C24 UNL     1      74.638  64.903 111.895  0.00  0.00    +0.000 A 
ATOM     24  C25 UNL     1      74.193  66.201 111.611  0.00  0.00    +0.000 A 
ATOM     25  C26 UNL     1      73.450  66.425 110.444  0.00  0.00    +0.000 A 
ATOM     26  C27 UNL     1      73.222  65.390 109.521  0.00  0.00    +0.000 A 
ATOM     27  C29 UNL     1      71.831  62.105 107.099  0.00  0.00    +0.000 A 
ATOM     28  C30 UNL     1      70.871  62.350 106.090  0.00  0.00    +0.000 A 
ATOM     29  C31 UNL     1      70.429  63.647 105.823  0.00  0.00    +0.000 A 
ATOM     30  C32 UNL     1      70.940  64.720 106.547  0.00  0.00    +0.000 A 
BRANCH  22  31
ATOM     31  O7  UNL     1      74.697  62.553 111.456  0.00  0.00    +0.000 OA
ATOM     32  H14 UNL     1      74.197  62.040 112.169  0.00  0.00    +0.000 HD
ENDBRANCH  22  31
BRANCH  24  33
ATOM     33  C28 UNL     1      74.514  67.324 112.523  0.00  0.00    +0.000 C 
ATOM     34  O9  UNL     1      74.135  67.308 113.728  0.00  0.00    +0.000 OA
BRANCH  33  35
ATOM     35  O8  UNL     1      75.235  68.420 112.055  0.00  0.00    +0.000 OA
ATOM     36  H17 UNL     1      76.193  68.574 112.331  0.00  0.00    +0.000 HD
ENDBRANCH  33  35
ENDBRANCH  24  33
BRANCH  27  37
ATOM     37  O10 UNL     1      72.249  60.796 107.431  0.00  0.00    +0.000 OA
BRANCH  37  38
ATOM     38  C33 UNL     1      72.532  59.724 106.520  0.00  0.00    +0.000 C 
ATOM     39  O11 UNL     1      73.886  59.310 106.673  0.00  0.00    +0.000 OA
ATOM     40  C34 UNL     1      74.254  58.083 106.032  0.00  0.00    +0.000 C 
ATOM     41  C36 UNL     1      73.126  57.318 105.302  0.00  0.00    +0.000 C 
ATOM     42  C37 UNL     1      71.934  57.206 106.277  0.00  0.00    +0.000 C 
ATOM     43  C38 UNL     1      71.461  58.607 106.741  0.00  0.00    +0.000 C 
BRANCH  41  44
ATOM     44  O13 UNL     1      72.749  57.998 104.124  0.00  0.00    +0.000 OA
ATOM     45  H27 UNL     1      71.796  58.241 104.222  0.00  0.00    +0.000 HD
ENDBRANCH  41  44
BRANCH  42  46
ATOM     46  O14 UNL     1      70.875  56.433 105.759  0.00  0.00    +0.000 OA
ATOM     47  H29 UNL     1      70.028  56.707 106.186  0.00  0.00    +0.000 HD
ENDBRANCH  42  46
BRANCH  43  48
ATOM     48  O15 UNL     1      70.253  58.978 106.120  0.00  0.00    +0.000 OA
ATOM     49  H31 UNL     1      69.493  58.665 106.689  0.00  0.00    +0.000 HD
ENDBRANCH  43  48
BRANCH  40  50
ATOM     50  C35 UNL     1      75.469  58.305 105.114  0.00  0.00    +0.000 C 
BRANCH  50  51
ATOM     51  O12 UNL     1      75.158  59.223 104.101  0.00  0.00    +0.000 OA
ATOM     52  H25 UNL     1      74.668  58.728 103.398  0.00  0.00    +0.000 HD
ENDBRANCH  50  51
ENDBRANCH  40  50
ENDBRANCH  37  38
ENDBRANCH  27  37
ENDBRANCH  15  16
BRANCH  10  53
ATOM     53  O5  UNL     1      78.276  65.246 108.366  0.00  0.00    +0.000 OA
ATOM     54  H9  UNL     1      79.018  65.905 108.174  0.00  0.00    +0.000 HD
ENDBRANCH  10  53
BRANCH  12  55
ATOM     55  C39 UNL     1      75.936  62.661 104.973  0.00  0.00    +0.000 C 
ATOM     56  O17 UNL     1      76.894  62.488 104.173  0.00  0.00    +0.000 OA
BRANCH  55  57
ATOM     57  O16 UNL     1      74.862  61.774 104.957  0.00  0.00    +0.000 OA
ATOM     58  H32 UNL     1      74.217  61.726 105.734  0.00  0.00    +0.000 HD
ENDBRANCH  55  57
ENDBRANCH  12  55
BRANCH   1  59
ATOM     59  O3  UNL     1      76.224  69.985 109.497  0.00  0.00    +0.000 OA
BRANCH  59  62
ATOM     60  C2  UNL     1      79.413  71.595 109.537  0.00  0.00    +0.000 C 
ATOM     61  O2  UNL     1      78.427  70.588 109.747  0.00  0.00    +0.000 OA
ATOM     62  C3  UNL     1      77.237  70.882 109.034  0.00  0.00    +0.000 C 
ATOM     63  C40 UNL     1      77.465  70.683 107.508  0.00  0.00    +0.000 C 
ATOM     64  C41 UNL     1      78.961  70.845 107.136  0.00  0.00    +0.000 C 
ATOM     65  C42 UNL     1      79.620  71.927 108.021  0.00  0.00    +0.000 C 
BRANCH  63  66
ATOM     66  O18 UNL     1      76.701  71.622 106.797  0.00  0.00    +0.000 OA
ATOM     67  H34 UNL     1      75.813  71.209 106.636  0.00  0.00    +0.000 HD
ENDBRANCH  63  66
BRANCH  64  68
ATOM     68  O19 UNL     1      79.624  69.616 107.330  0.00  0.00    +0.000 OA
ATOM     69  H36 UNL     1      80.581  69.755 107.086  0.00  0.00    +0.000 HD
ENDBRANCH  64  68
BRANCH  65  70
ATOM     70  O20 UNL     1      79.047  73.182 107.742  0.00  0.00    +0.000 OA
ATOM     71  H38 UNL     1      79.469  73.524 106.911  0.00  0.00    +0.000 HD
ENDBRANCH  65  70
BRANCH  60  72
ATOM     72  C1  UNL     1      80.725  71.116 110.185  0.00  0.00    +0.000 C 
BRANCH  72  73
ATOM     73  O1  UNL     1      81.669  70.765 109.208  0.00  0.00    +0.000 OA
ATOM     74  H1  UNL     1      82.120  71.607 108.941  0.00  0.00    +0.000 HD
ENDBRANCH  72  73
ENDBRANCH  60  72
ENDBRANCH  59  62
ENDBRANCH   1  59
TORSDOF 21
ENDMDL
MODEL 9
REMARK VINA RESULT:      -7.5      1.407     10.654
REMARK  Name = ./S4018.pdb
REMARK  21 active torsions:
REMARK  status: ('A' for Active; 'I' for Inactive)
REMARK    1  A    between atoms: O1_1  and  C1_2
REMARK    2  A    between atoms: C1_2  and  C2_3
REMARK    3  A    between atoms: C3_5  and  O3_6
REMARK    4  A    between atoms: O3_6  and  C4_7
REMARK    5  A    between atoms: C12_16  and  O5_17
REMARK    6  A    between atoms: C14_19  and  C39_54
REMARK    7  A    between atoms: C17_22  and  C18_23
REMARK    8  A    between atoms: C23_29  and  O7_30
REMARK    9  A    between atoms: C25_32  and  C28_35
REMARK   10  A    between atoms: C28_35  and  O8_36
REMARK   11  A    between atoms: C29_38  and  O10_42
REMARK   12  A    between atoms: O10_42  and  C33_43
REMARK   13  A    between atoms: C34_45  and  C35_46
REMARK   14  A    between atoms: C35_46  and  O12_47
REMARK   15  A    between atoms: C36_48  and  O13_49
REMARK   16  A    between atoms: C37_50  and  O14_51
REMARK   17  A    between atoms: C38_52  and  O15_53
REMARK   18  A    between atoms: C39_54  and  O16_55
REMARK   19  A    between atoms: C40_57  and  O18_58
REMARK   20  A    between atoms: C41_59  and  O19_60
REMARK   21  A    between atoms: C42_61  and  O20_62
REMARK                            x       y       z     vdW  Elec       q    Type
REMARK                         _______ _______ _______ _____ _____    ______ ____
ROOT
ATOM      1  C4  UNL     1      72.847  60.568 101.604  0.00  0.00    +0.000 A 
ATOM      2  C5  UNL     1      73.987  60.416 100.797  0.00  0.00    +0.000 A 
ATOM      3  C6  UNL     1      75.182  61.044 101.132  0.00  0.00    +0.000 A 
ATOM      4  C7  UNL     1      75.276  61.783 102.308  0.00  0.00    +0.000 A 
ATOM      5  C8  UNL     1      74.169  61.917 103.156  0.00  0.00    +0.000 A 
ATOM      6  C9  UNL     1      72.933  61.335 102.796  0.00  0.00    +0.000 A 
ATOM      7  C10 UNL     1      71.758  61.542 103.685  0.00  0.00    +0.000 C 
ATOM      8  O4  UNL     1      70.688  60.923 103.448  0.00  0.00    +0.000 OA
ATOM      9  C11 UNL     1      71.829  62.526 104.806  0.00  0.00    +0.000 A 
ATOM     10  C12 UNL     1      70.685  62.948 105.545  0.00  0.00    +0.000 A 
ATOM     11  C13 UNL     1      70.778  64.038 106.413  0.00  0.00    +0.000 A 
ATOM     12  C14 UNL     1      71.994  64.696 106.620  0.00  0.00    +0.000 A 
ATOM     13  C15 UNL     1      73.138  64.234 105.960  0.00  0.00    +0.000 A 
ATOM     14  C16 UNL     1      73.071  63.146 105.075  0.00  0.00    +0.000 A 
ATOM     15  C17 UNL     1      74.368  62.606 104.491  0.00  0.00    +0.000 C 
ENDROOT
BRANCH  15  16
ATOM     16  C18 UNL     1      75.149  61.673 105.491  0.00  0.00    +0.000 C 
ATOM     17  C19 UNL     1      75.821  62.489 106.583  0.00  0.00    +0.000 A 
ATOM     18  C20 UNL     1      75.265  62.583 107.878  0.00  0.00    +0.000 A 
ATOM     19  C21 UNL     1      74.059  61.794 108.185  0.00  0.00    +0.000 C 
ATOM     20  O6  UNL     1      73.269  62.174 109.092  0.00  0.00    +0.000 OA
ATOM     21  C22 UNL     1      73.733  60.617 107.345  0.00  0.00    +0.000 A 
ATOM     22  C23 UNL     1      72.873  59.581 107.788  0.00  0.00    +0.000 A 
ATOM     23  C24 UNL     1      72.496  58.561 106.905  0.00  0.00    +0.000 A 
ATOM     24  C25 UNL     1      73.039  58.489 105.616  0.00  0.00    +0.000 A 
ATOM     25  C26 UNL     1      73.961  59.464 105.212  0.00  0.00    +0.000 A 
ATOM     26  C27 UNL     1      74.279  60.550 106.044  0.00  0.00    +0.000 A 
ATOM     27  C29 UNL     1      75.865  63.418 108.847  0.00  0.00    +0.000 A 
ATOM     28  C30 UNL     1      76.978  64.205 108.472  0.00  0.00    +0.000 A 
ATOM     29  C31 UNL     1      77.516  64.117 107.187  0.00  0.00    +0.000 A 
ATOM     30  C32 UNL     1      76.952  63.254 106.253  0.00  0.00    +0.000 A 
BRANCH  22  31
ATOM     31  O7  UNL     1      72.394  59.509 109.099  0.00  0.00    +0.000 OA
ATOM     32  H14 UNL     1      72.956  59.202 109.880  0.00  0.00    +0.000 HD
ENDBRANCH  22  31
BRANCH  24  33
ATOM     33  C28 UNL     1      72.636  57.407 104.687  0.00  0.00    +0.000 C 
ATOM     34  O9  UNL     1      72.863  57.500 103.447  0.00  0.00    +0.000 OA
BRANCH  33  35
ATOM     35  O8  UNL     1      71.992  56.272 105.174  0.00  0.00    +0.000 OA
ATOM     36  H17 UNL     1      71.119  56.339 105.676  0.00  0.00    +0.000 HD
ENDBRANCH  33  35
ENDBRANCH  24  33
BRANCH  27  37
ATOM     37  O10 UNL     1      75.340  63.442 110.159  0.00  0.00    +0.000 OA
BRANCH  37  38
ATOM     38  C33 UNL     1      75.050  64.603 110.951  0.00  0.00    +0.000 C 
ATOM     39  O11 UNL     1      74.854  65.728 110.099  0.00  0.00    +0.000 OA
ATOM     40  C34 UNL     1      74.298  66.899 110.707  0.00  0.00    +0.000 C 
ATOM     41  C36 UNL     1      73.917  66.789 112.202  0.00  0.00    +0.000 C 
ATOM     42  C37 UNL     1      73.070  65.508 112.372  0.00  0.00    +0.000 C 
ATOM     43  C38 UNL     1      73.850  64.258 111.891  0.00  0.00    +0.000 C 
BRANCH  41  44
ATOM     44  O13 UNL     1      75.076  66.735 113.005  0.00  0.00    +0.000 OA
ATOM     45  H27 UNL     1      75.456  65.828 112.905  0.00  0.00    +0.000 HD
ENDBRANCH  41  44
BRANCH  42  46
ATOM     46  O14 UNL     1      72.573  65.353 113.681  0.00  0.00    +0.000 OA
ATOM     47  H29 UNL     1      71.684  64.925 113.647  0.00  0.00    +0.000 HD
ENDBRANCH  42  46
BRANCH  43  48
ATOM     48  O15 UNL     1      74.305  63.482 112.976  0.00  0.00    +0.000 OA
ATOM     49  H31 UNL     1      73.728  63.676 113.769  0.00  0.00    +0.000 HD
ENDBRANCH  43  48
BRANCH  40  50
ATOM     50  C35 UNL     1      75.204  68.116 110.446  0.00  0.00    +0.000 C 
BRANCH  50  51
ATOM     51  O12 UNL     1      74.942  69.133 111.375  0.00  0.00    +0.000 OA
ATOM     52  H25 UNL     1      74.648  68.695 112.212  0.00  0.00    +0.000 HD
ENDBRANCH  50  51
ENDBRANCH  40  50
ENDBRANCH  37  38
ENDBRANCH  27  37
ENDBRANCH  15  16
BRANCH  10  53
ATOM     53  O5  UNL     1      69.447  62.313 105.472  0.00  0.00    +0.000 OA
ATOM     54  H9  UNL     1      69.007  61.845 106.251  0.00  0.00    +0.000 HD
ENDBRANCH  10  53
BRANCH  12  55
ATOM     55  C39 UNL     1      72.072  65.848 107.541  0.00  0.00    +0.000 C 
ATOM     56  O17 UNL     1      72.290  67.006 107.093  0.00  0.00    +0.000 OA
BRANCH  55  57
ATOM     57  O16 UNL     1      71.904  65.666 108.912  0.00  0.00    +0.000 OA
ATOM     58  H32 UNL     1      71.965  66.449 109.550  0.00  0.00    +0.000 HD
ENDBRANCH  55  57
ENDBRANCH  12  55
BRANCH   1  59
ATOM     59  O3  UNL     1      71.619  59.978 101.255  0.00  0.00    +0.000 OA
BRANCH  59  62
ATOM     60  C2  UNL     1      70.705  61.535  98.172  0.00  0.00    +0.000 C 
ATOM     61  O2  UNL     1      71.513  60.873  99.141  0.00  0.00    +0.000 OA
ATOM     62  C3  UNL     1      70.725  60.387 100.216  0.00  0.00    +0.000 C 
ATOM     63  C40 UNL     1      69.867  59.178  99.747  0.00  0.00    +0.000 C 
ATOM     64  C41 UNL     1      69.614  59.225  98.219  0.00  0.00    +0.000 C 
ATOM     65  C42 UNL     1      69.460  60.688  97.746  0.00  0.00    +0.000 C 
BRANCH  63  66
ATOM     66  O18 UNL     1      68.638  59.188 100.426  0.00  0.00    +0.000 OA
ATOM     67  H34 UNL     1      68.195  60.049 100.211  0.00  0.00    +0.000 HD
ENDBRANCH  63  66
BRANCH  64  68
ATOM     68  O19 UNL     1      70.702  58.631  97.548  0.00  0.00    +0.000 OA
ATOM     69  H36 UNL     1      71.534  58.926  98.012  0.00  0.00    +0.000 HD
ENDBRANCH  64  68
BRANCH  65  70
ATOM     70  O20 UNL     1      68.302  61.252  98.314  0.00  0.00    +0.000 OA
ATOM     71  H38 UNL     1      68.399  61.204  99.300  0.00  0.00    +0.000 HD
ENDBRANCH  65  70
BRANCH  60  72
ATOM     72  C1  UNL     1      71.594  61.866  96.960  0.00  0.00    +0.000 C 
BRANCH  72  73
ATOM     73  O1  UNL     1      70.815  62.164  95.831  0.00  0.00    +0.000 OA
ATOM     74  H1  UNL     1      70.220  61.383  95.691  0.00  0.00    +0.000 HD
ENDBRANCH  72  73
ENDBRANCH  60  72
ENDBRANCH  59  62
ENDBRANCH   1  59
TORSDOF 21
ENDMDL
MODEL 10
REMARK VINA RESULT:      -7.4      1.830     10.870
REMARK  Name = ./S4018.pdb
REMARK  21 active torsions:
REMARK  status: ('A' for Active; 'I' for Inactive)
REMARK    1  A    between atoms: O1_1  and  C1_2
REMARK    2  A    between atoms: C1_2  and  C2_3
REMARK    3  A    between atoms: C3_5  and  O3_6
REMARK    4  A    between atoms: O3_6  and  C4_7
REMARK    5  A    between atoms: C12_16  and  O5_17
REMARK    6  A    between atoms: C14_19  and  C39_54
REMARK    7  A    between atoms: C17_22  and  C18_23
REMARK    8  A    between atoms: C23_29  and  O7_30
REMARK    9  A    between atoms: C25_32  and  C28_35
REMARK   10  A    between atoms: C28_35  and  O8_36
REMARK   11  A    between atoms: C29_38  and  O10_42
REMARK   12  A    between atoms: O10_42  and  C33_43
REMARK   13  A    between atoms: C34_45  and  C35_46
REMARK   14  A    between atoms: C35_46  and  O12_47
REMARK   15  A    between atoms: C36_48  and  O13_49
REMARK   16  A    between atoms: C37_50  and  O14_51
REMARK   17  A    between atoms: C38_52  and  O15_53
REMARK   18  A    between atoms: C39_54  and  O16_55
REMARK   19  A    between atoms: C40_57  and  O18_58
REMARK   20  A    between atoms: C41_59  and  O19_60
REMARK   21  A    between atoms: C42_61  and  O20_62
REMARK                            x       y       z     vdW  Elec       q    Type
REMARK                         _______ _______ _______ _____ _____    ______ ____
ROOT
ATOM      1  C4  UNL     1      70.991  60.879 101.589  0.00  0.00    +0.000 A 
ATOM      2  C5  UNL     1      69.956  61.747 101.200  0.00  0.00    +0.000 A 
ATOM      3  C6  UNL     1      69.405  62.644 102.109  0.00  0.00    +0.000 A 
ATOM      4  C7  UNL     1      69.918  62.734 103.400  0.00  0.00    +0.000 A 
ATOM      5  C8  UNL     1      70.978  61.912 103.805  0.00  0.00    +0.000 A 
ATOM      6  C9  UNL     1      71.506  60.954 102.911  0.00  0.00    +0.000 A 
ATOM      7  C10 UNL     1      72.591  60.053 103.384  0.00  0.00    +0.000 C 
ATOM      8  O4  UNL     1      73.160  59.286 102.563  0.00  0.00    +0.000 OA
ATOM      9  C11 UNL     1      72.954  60.012 104.832  0.00  0.00    +0.000 A 
ATOM     10  C12 UNL     1      73.809  59.019 105.393  0.00  0.00    +0.000 A 
ATOM     11  C13 UNL     1      73.919  58.892 106.779  0.00  0.00    +0.000 A 
ATOM     12  C14 UNL     1      73.246  59.765 107.639  0.00  0.00    +0.000 A 
ATOM     13  C15 UNL     1      72.471  60.795 107.094  0.00  0.00    +0.000 A 
ATOM     14  C16 UNL     1      72.337  60.939 105.704  0.00  0.00    +0.000 A 
ATOM     15  C17 UNL     1      71.592  62.153 105.169  0.00  0.00    +0.000 C 
ENDROOT
BRANCH  15  16
ATOM     16  C18 UNL     1      72.472  63.458 105.163  0.00  0.00    +0.000 C 
ATOM     17  C19 UNL     1      72.256  64.266 106.433  0.00  0.00    +0.000 A 
ATOM     18  C20 UNL     1      73.189  64.233 107.493  0.00  0.00    +0.000 A 
ATOM     19  C21 UNL     1      74.436  63.469 107.310  0.00  0.00    +0.000 C 
ATOM     20  O6  UNL     1      75.049  63.010 108.312  0.00  0.00    +0.000 OA
ATOM     21  C22 UNL     1      74.895  63.155 105.936  0.00  0.00    +0.000 A 
ATOM     22  C23 UNL     1      76.239  62.813 105.643  0.00  0.00    +0.000 A 
ATOM     23  C24 UNL     1      76.589  62.399 104.351  0.00  0.00    +0.000 A 
ATOM     24  C25 UNL     1      75.649  62.417 103.312  0.00  0.00    +0.000 A 
ATOM     25  C26 UNL     1      74.343  62.845 103.584  0.00  0.00    +0.000 A 
ATOM     26  C27 UNL     1      73.945  63.170 104.891  0.00  0.00    +0.000 A 
ATOM     27  C29 UNL     1      72.919  64.924 108.695  0.00  0.00    +0.000 A 
ATOM     28  C30 UNL     1      71.675  65.580 108.839  0.00  0.00    +0.000 A 
ATOM     29  C31 UNL     1      70.751  65.599 107.792  0.00  0.00    +0.000 A 
ATOM     30  C32 UNL     1      71.045  64.960 106.592  0.00  0.00    +0.000 A 
BRANCH  22  31
ATOM     31  O7  UNL     1      77.262  62.897 106.592  0.00  0.00    +0.000 OA
ATOM     32  H14 UNL     1      77.206  62.472 107.507  0.00  0.00    +0.000 HD
ENDBRANCH  22  31
BRANCH  24  33
ATOM     33  C28 UNL     1      76.026  61.979 101.947  0.00  0.00    +0.000 C 
ATOM     34  O9  UNL     1      76.981  62.532 101.330  0.00  0.00    +0.000 OA
BRANCH  33  35
ATOM     35  O8  UNL     1      75.323  60.951 101.324  0.00  0.00    +0.000 OA
ATOM     36  H17 UNL     1      74.925  60.191 101.855  0.00  0.00    +0.000 HD
ENDBRANCH  33  35
ENDBRANCH  24  33
BRANCH  27  37
ATOM     37  O10 UNL     1      73.896  64.944 109.716  0.00  0.00    +0.000 OA
BRANCH  37  38
ATOM     38  C33 UNL     1      73.708  65.337 111.083  0.00  0.00    +0.000 C 
ATOM     39  O11 UNL     1      73.919  64.218 111.938  0.00  0.00    +0.000 OA
ATOM     40  C34 UNL     1      74.031  64.497 113.338  0.00  0.00    +0.000 C 
ATOM     41  C36 UNL     1      73.971  65.985 113.754  0.00  0.00    +0.000 C 
ATOM     42  C37 UNL     1      74.965  66.757 112.860  0.00  0.00    +0.000 C 
ATOM     43  C38 UNL     1      74.623  66.574 111.359  0.00  0.00    +0.000 C 
BRANCH  41  44
ATOM     44  O13 UNL     1      72.661  66.489 113.601  0.00  0.00    +0.000 OA
ATOM     45  H27 UNL     1      72.074  65.717 113.413  0.00  0.00    +0.000 HD
ENDBRANCH  41  44
BRANCH  42  46
ATOM     46  O14 UNL     1      75.077  68.116 113.216  0.00  0.00    +0.000 OA
ATOM     47  H29 UNL     1      74.280  68.606 112.900  0.00  0.00    +0.000 HD
ENDBRANCH  42  46
BRANCH  43  48
ATOM     48  O15 UNL     1      74.032  67.732 110.817  0.00  0.00    +0.000 OA
ATOM     49  H31 UNL     1      73.089  67.791 111.144  0.00  0.00    +0.000 HD
ENDBRANCH  43  48
BRANCH  40  50
ATOM     50  C35 UNL     1      73.020  63.650 114.132  0.00  0.00    +0.000 C 
BRANCH  50  51
ATOM     51  O12 UNL     1      72.653  64.304 115.316  0.00  0.00    +0.000 OA
ATOM     52  H25 UNL     1      72.570  63.612 116.019  0.00  0.00    +0.000 HD
ENDBRANCH  50  51
ENDBRANCH  40  50
ENDBRANCH  37  38
ENDBRANCH  27  37
ENDBRANCH  15  16
BRANCH  10  53
ATOM     53  O5  UNL     1      74.583  58.151 104.625  0.00  0.00    +0.000 OA
ATOM     54  H9  UNL     1      74.871  58.343 103.676  0.00  0.00    +0.000 HD
ENDBRANCH  10  53
BRANCH  12  55
ATOM     55  C39 UNL     1      73.372  59.615 109.104  0.00  0.00    +0.000 C 
ATOM     56  O17 UNL     1      72.857  58.624 109.687  0.00  0.00    +0.000 OA
BRANCH  55  57
ATOM     57  O16 UNL     1      74.062  60.567 109.852  0.00  0.00    +0.000 OA
ATOM     58  H32 UNL     1      74.765  60.289 110.524  0.00  0.00    +0.000 HD
ENDBRANCH  55  57
ENDBRANCH  12  55
BRANCH   1  59
ATOM     59  O3  UNL     1      71.527  59.933 100.696  0.00  0.00    +0.000 OA
BRANCH  59  62
ATOM     60  C2  UNL     1      70.397  60.497  97.354  0.00  0.00    +0.000 C 
ATOM     61  O2  UNL     1      70.442  60.579  98.776  0.00  0.00    +0.000 OA
ATOM     62  C3  UNL     1      71.663  60.060  99.279  0.00  0.00    +0.000 C 
ATOM     63  C40 UNL     1      72.833  61.028  98.942  0.00  0.00    +0.000 C 
ATOM     64  C41 UNL     1      72.511  61.891  97.696  0.00  0.00    +0.000 C 
ATOM     65  C42 UNL     1      71.685  61.074  96.678  0.00  0.00    +0.000 C 
BRANCH  63  66
ATOM     66  O18 UNL     1      74.001  60.283  98.708  0.00  0.00    +0.000 OA
ATOM     67  H34 UNL     1      73.746  59.522  98.126  0.00  0.00    +0.000 HD
ENDBRANCH  63  66
BRANCH  64  68
ATOM     68  O19 UNL     1      71.773  63.025  98.093  0.00  0.00    +0.000 OA
ATOM     69  H36 UNL     1      72.216  63.397  98.905  0.00  0.00    +0.000 HD
ENDBRANCH  64  68
BRANCH  65  70
ATOM     70  O20 UNL     1      72.461  60.010  96.180  0.00  0.00    +0.000 OA
ATOM     71  H38 UNL     1      72.695  60.225  95.240  0.00  0.00    +0.000 HD
ENDBRANCH  65  70
BRANCH  60  72
ATOM     72  C1  UNL     1      69.137  61.241  96.876  0.00  0.00    +0.000 C 
BRANCH  72  73
ATOM     73  O1  UNL     1      68.152  61.253  97.876  0.00  0.00    +0.000 OA
ATOM     74  H1  UNL     1      68.364  62.020  98.467  0.00  0.00    +0.000 HD
ENDBRANCH  72  73
ENDBRANCH  60  72
ENDBRANCH  59  62
ENDBRANCH   1  59
TORSDOF 21
ENDMDL
MODEL 11
REMARK VINA RESULT:      -7.4      2.079     11.133
REMARK  Name = ./S4018.pdb
REMARK  21 active torsions:
REMARK  status: ('A' for Active; 'I' for Inactive)
REMARK    1  A    between atoms: O1_1  and  C1_2
REMARK    2  A    between atoms: C1_2  and  C2_3
REMARK    3  A    between atoms: C3_5  and  O3_6
REMARK    4  A    between atoms: O3_6  and  C4_7
REMARK    5  A    between atoms: C12_16  and  O5_17
REMARK    6  A    between atoms: C14_19  and  C39_54
REMARK    7  A    between atoms: C17_22  and  C18_23
REMARK    8  A    between atoms: C23_29  and  O7_30
REMARK    9  A    between atoms: C25_32  and  C28_35
REMARK   10  A    between atoms: C28_35  and  O8_36
REMARK   11  A    between atoms: C29_38  and  O10_42
REMARK   12  A    between atoms: O10_42  and  C33_43
REMARK   13  A    between atoms: C34_45  and  C35_46
REMARK   14  A    between atoms: C35_46  and  O12_47
REMARK   15  A    between atoms: C36_48  and  O13_49
REMARK   16  A    between atoms: C37_50  and  O14_51
REMARK   17  A    between atoms: C38_52  and  O15_53
REMARK   18  A    between atoms: C39_54  and  O16_55
REMARK   19  A    between atoms: C40_57  and  O18_58
REMARK   20  A    between atoms: C41_59  and  O19_60
REMARK   21  A    between atoms: C42_61  and  O20_62
REMARK                            x       y       z     vdW  Elec       q    Type
REMARK                         _______ _______ _______ _____ _____    ______ ____
ROOT
ATOM      1  C4  UNL     1      73.753  62.580 102.555  0.00  0.00    +0.000 A 
ATOM      2  C5  UNL     1      74.917  62.916 101.844  0.00  0.00    +0.000 A 
ATOM      3  C6  UNL     1      75.705  63.992 102.243  0.00  0.00    +0.000 A 
ATOM      4  C7  UNL     1      75.378  64.709 103.390  0.00  0.00    +0.000 A 
ATOM      5  C8  UNL     1      74.247  64.371 104.145  0.00  0.00    +0.000 A 
ATOM      6  C9  UNL     1      73.405  63.320 103.717  0.00  0.00    +0.000 A 
ATOM      7  C10 UNL     1      72.179  63.019 104.503  0.00  0.00    +0.000 C 
ATOM      8  O4  UNL     1      71.491  62.006 104.211  0.00  0.00    +0.000 OA
ATOM      9  C11 UNL     1      71.733  63.949 105.583  0.00  0.00    +0.000 A 
ATOM     10  C12 UNL     1      70.458  63.856 106.214  0.00  0.00    +0.000 A 
ATOM     11  C13 UNL     1      70.009  64.889 107.039  0.00  0.00    +0.000 A 
ATOM     12  C14 UNL     1      70.815  65.999 107.310  0.00  0.00    +0.000 A 
ATOM     13  C15 UNL     1      72.101  66.057 106.760  0.00  0.00    +0.000 A 
ATOM     14  C16 UNL     1      72.573  65.036 105.920  0.00  0.00    +0.000 A 
ATOM     15  C17 UNL     1      74.022  65.087 105.460  0.00  0.00    +0.000 C 
ENDROOT
BRANCH  15  16
ATOM     16  C18 UNL     1      75.031  64.576 106.555  0.00  0.00    +0.000 C 
ATOM     17  C19 UNL     1      74.977  65.453 107.796  0.00  0.00    +0.000 A 
ATOM     18  C20 UNL     1      74.279  65.046 108.955  0.00  0.00    +0.000 A 
ATOM     19  C21 UNL     1      73.675  63.702 108.976  0.00  0.00    +0.000 C 
ATOM     20  O6  UNL     1      72.684  63.466 109.719  0.00  0.00    +0.000 OA
ATOM     21  C22 UNL     1      74.175  62.670 108.036  0.00  0.00    +0.000 A 
ATOM     22  C23 UNL     1      73.972  61.283 108.250  0.00  0.00    +0.000 A 
ATOM     23  C24 UNL     1      74.351  60.362 107.265  0.00  0.00    +0.000 A 
ATOM     24  C25 UNL     1      75.026  60.781 106.111  0.00  0.00    +0.000 A 
ATOM     25  C26 UNL     1      75.308  62.143 105.945  0.00  0.00    +0.000 A 
ATOM     26  C27 UNL     1      74.851  63.096 106.871  0.00  0.00    +0.000 A 
ATOM     27  C29 UNL     1      74.173  65.918 110.060  0.00  0.00    +0.000 A 
ATOM     28  C30 UNL     1      74.711  67.221 109.954  0.00  0.00    +0.000 A 
ATOM     29  C31 UNL     1      75.389  67.623 108.802  0.00  0.00    +0.000 A 
ATOM     30  C32 UNL     1      75.536  66.740 107.737  0.00  0.00    +0.000 A 
BRANCH  22  31
ATOM     31  O7  UNL     1      73.426  60.776 109.432  0.00  0.00    +0.000 OA
ATOM     32  H14 UNL     1      73.353  61.312 110.285  0.00  0.00    +0.000 HD
ENDBRANCH  22  31
BRANCH  24  33
ATOM     33  C28 UNL     1      75.424  59.801 105.073  0.00  0.00    +0.000 C 
ATOM     34  O9  UNL     1      76.422  59.044 105.247  0.00  0.00    +0.000 OA
BRANCH  33  35
ATOM     35  O8  UNL     1      74.703  59.708 103.885  0.00  0.00    +0.000 OA
ATOM     36  H17 UNL     1      74.761  58.888 103.300  0.00  0.00    +0.000 HD
ENDBRANCH  33  35
ENDBRANCH  24  33
BRANCH  27  37
ATOM     37  O10 UNL     1      73.536  65.466 111.239  0.00  0.00    +0.000 OA
BRANCH  37  38
ATOM     38  C33 UNL     1      74.160  65.169 112.496  0.00  0.00    +0.000 C 
ATOM     39  O11 UNL     1      74.054  66.294 113.363  0.00  0.00    +0.000 OA
ATOM     40  C34 UNL     1      74.387  66.074 114.738  0.00  0.00    +0.000 C 
ATOM     41  C36 UNL     1      74.763  64.628 115.136  0.00  0.00    +0.000 C 
ATOM     42  C37 UNL     1      73.668  63.692 114.579  0.00  0.00    +0.000 C 
ATOM     43  C38 UNL     1      73.538  63.842 113.041  0.00  0.00    +0.000 C 
BRANCH  41  44
ATOM     44  O13 UNL     1      76.030  64.286 114.615  0.00  0.00    +0.000 OA
ATOM     45  H27 UNL     1      75.929  63.417 114.155  0.00  0.00    +0.000 HD
ENDBRANCH  41  44
BRANCH  42  46
ATOM     46  O14 UNL     1      73.848  62.350 114.968  0.00  0.00    +0.000 OA
ATOM     47  H29 UNL     1      74.463  61.904 114.337  0.00  0.00    +0.000 HD
ENDBRANCH  42  46
BRANCH  43  48
ATOM     48  O15 UNL     1      74.099  62.742 112.364  0.00  0.00    +0.000 OA
ATOM     49  H31 UNL     1      74.324  63.023 111.432  0.00  0.00    +0.000 HD
ENDBRANCH  43  48
BRANCH  40  50
ATOM     50  C35 UNL     1      75.459  67.080 115.194  0.00  0.00    +0.000 C 
BRANCH  50  51
ATOM     51  O12 UNL     1      76.217  66.548 116.247  0.00  0.00    +0.000 OA
ATOM     52  H25 UNL     1      75.594  66.375 116.997  0.00  0.00    +0.000 HD
ENDBRANCH  50  51
ENDBRANCH  40  50
ENDBRANCH  37  38
ENDBRANCH  27  37
ENDBRANCH  15  16
BRANCH  10  53
ATOM     53  O5  UNL     1      69.611  62.759 106.073  0.00  0.00    +0.000 OA
ATOM     54  H9  UNL     1      68.648  62.824 105.773  0.00  0.00    +0.000 HD
ENDBRANCH  10  53
BRANCH  12  55
ATOM     55  C39 UNL     1      70.323  67.083 108.185  0.00  0.00    +0.000 C 
ATOM     56  O17 UNL     1      70.275  66.919 109.433  0.00  0.00    +0.000 OA
BRANCH  55  57
ATOM     57  O16 UNL     1      69.909  68.295 107.637  0.00  0.00    +0.000 OA
ATOM     58  H32 UNL     1      69.202  68.856 108.094  0.00  0.00    +0.000 HD
ENDBRANCH  55  57
ENDBRANCH  12  55
BRANCH   1  59
ATOM     59  O3  UNL     1      72.920  61.526 102.138  0.00  0.00    +0.000 OA
BRANCH  59  62
ATOM     60  C2  UNL     1      71.862  59.766  99.215  0.00  0.00    +0.000 C 
ATOM     61  O2  UNL     1      72.244  59.989 100.569  0.00  0.00    +0.000 OA
ATOM     62  C3  UNL     1      72.283  61.375 100.867  0.00  0.00    +0.000 C 
ATOM     63  C40 UNL     1      70.839  61.950 100.924  0.00  0.00    +0.000 C 
ATOM     64  C41 UNL     1      69.860  61.102 100.073  0.00  0.00    +0.000 C 
ATOM     65  C42 UNL     1      70.575  60.561  98.814  0.00  0.00    +0.000 C 
BRANCH  63  66
ATOM     66  O18 UNL     1      70.846  63.273 100.452  0.00  0.00    +0.000 OA
ATOM     67  H34 UNL     1      70.660  63.234  99.479  0.00  0.00    +0.000 HD
ENDBRANCH  63  66
BRANCH  64  68
ATOM     68  O19 UNL     1      69.391  60.020 100.844  0.00  0.00    +0.000 OA
ATOM     69  H36 UNL     1      70.050  59.278 100.747  0.00  0.00    +0.000 HD
ENDBRANCH  64  68
BRANCH  65  70
ATOM     70  O20 UNL     1      70.936  61.632  97.975  0.00  0.00    +0.000 OA
ATOM     71  H38 UNL     1      70.538  61.460  97.083  0.00  0.00    +0.000 HD
ENDBRANCH  65  70
BRANCH  60  72
ATOM     72  C1  UNL     1      71.663  58.252  99.022  0.00  0.00    +0.000 C 
BRANCH  72  73
ATOM     73  O1  UNL     1      71.017  57.684 100.131  0.00  0.00    +0.000 OA
ATOM     74  H1  UNL     1      71.478  56.825 100.312  0.00  0.00    +0.000 HD
ENDBRANCH  72  73
ENDBRANCH  60  72
ENDBRANCH  59  62
ENDBRANCH   1  59
TORSDOF 21
ENDMDL
MODEL 12
REMARK VINA RESULT:      -7.4      1.720     10.749
REMARK  Name = ./S4018.pdb
REMARK  21 active torsions:
REMARK  status: ('A' for Active; 'I' for Inactive)
REMARK    1  A    between atoms: O1_1  and  C1_2
REMARK    2  A    between atoms: C1_2  and  C2_3
REMARK    3  A    between atoms: C3_5  and  O3_6
REMARK    4  A    between atoms: O3_6  and  C4_7
REMARK    5  A    between atoms: C12_16  and  O5_17
REMARK    6  A    between atoms: C14_19  and  C39_54
REMARK    7  A    between atoms: C17_22  and  C18_23
REMARK    8  A    between atoms: C23_29  and  O7_30
REMARK    9  A    between atoms: C25_32  and  C28_35
REMARK   10  A    between atoms: C28_35  and  O8_36
REMARK   11  A    between atoms: C29_38  and  O10_42
REMARK   12  A    between atoms: O10_42  and  C33_43
REMARK   13  A    between atoms: C34_45  and  C35_46
REMARK   14  A    between atoms: C35_46  and  O12_47
REMARK   15  A    between atoms: C36_48  and  O13_49
REMARK   16  A    between atoms: C37_50  and  O14_51
REMARK   17  A    between atoms: C38_52  and  O15_53
REMARK   18  A    between atoms: C39_54  and  O16_55
REMARK   19  A    between atoms: C40_57  and  O18_58
REMARK   20  A    between atoms: C41_59  and  O19_60
REMARK   21  A    between atoms: C42_61  and  O20_62
REMARK                            x       y       z     vdW  Elec       q    Type
REMARK                         _______ _______ _______ _____ _____    ______ ____
ROOT
ATOM      1  C4  UNL     1      74.304  63.236 101.980  0.00  0.00    +0.000 A 
ATOM      2  C5  UNL     1      75.583  63.538 101.482  0.00  0.00    +0.000 A 
ATOM      3  C6  UNL     1      76.584  63.998 102.330  0.00  0.00    +0.000 A 
ATOM      4  C7  UNL     1      76.346  64.105 103.698  0.00  0.00    +0.000 A 
ATOM      5  C8  UNL     1      75.094  63.770 104.231  0.00  0.00    +0.000 A 
ATOM      6  C9  UNL     1      74.050  63.361 103.372  0.00  0.00    +0.000 A 
ATOM      7  C10 UNL     1      72.715  63.067 103.957  0.00  0.00    +0.000 C 
ATOM      8  O4  UNL     1      71.814  62.577 103.226  0.00  0.00    +0.000 OA
ATOM      9  C11 UNL     1      72.425  63.416 105.380  0.00  0.00    +0.000 A 
ATOM     10  C12 UNL     1      71.114  63.384 105.939  0.00  0.00    +0.000 A 
ATOM     11  C13 UNL     1      70.876  63.945 107.196  0.00  0.00    +0.000 A 
ATOM     12  C14 UNL     1      71.917  64.492 107.952  0.00  0.00    +0.000 A 
ATOM     13  C15 UNL     1      73.221  64.451 107.444  0.00  0.00    +0.000 A 
ATOM     14  C16 UNL     1      73.486  63.901 106.180  0.00  0.00    +0.000 A 
ATOM     15  C17 UNL     1      74.935  63.764 105.738  0.00  0.00    +0.000 C 
ENDROOT
BRANCH  15  16
ATOM     16  C18 UNL     1      75.654  62.514 106.371  0.00  0.00    +0.000 C 
ATOM     17  C19 UNL     1      76.447  62.910 107.606  0.00  0.00    +0.000 A 
ATOM     18  C20 UNL     1      75.952  62.667 108.907  0.00  0.00    +0.000 A 
ATOM     19  C21 UNL     1      74.684  61.930 109.051  0.00  0.00    +0.000 C 
ATOM     20  O6  UNL     1      73.972  62.094 110.079  0.00  0.00    +0.000 OA
ATOM     21  C22 UNL     1      74.208  61.086 107.929  0.00  0.00    +0.000 A 
ATOM     22  C23 UNL     1      73.263  60.044 108.109  0.00  0.00    +0.000 A 
ATOM     23  C24 UNL     1      72.751  59.367 106.995  0.00  0.00    +0.000 A 
ATOM     24  C25 UNL     1      73.236  59.631 105.708  0.00  0.00    +0.000 A 
ATOM     25  C26 UNL     1      74.236  60.597 105.544  0.00  0.00    +0.000 A 
ATOM     26  C27 UNL     1      74.695  61.358 106.632  0.00  0.00    +0.000 A 
ATOM     27  C29 UNL     1      76.670  63.124 110.034  0.00  0.00    +0.000 A 
ATOM     28  C30 UNL     1      77.843  63.887 109.831  0.00  0.00    +0.000 A 
ATOM     29  C31 UNL     1      78.321  64.135 108.542  0.00  0.00    +0.000 A 
ATOM     30  C32 UNL     1      77.637  63.637 107.439  0.00  0.00    +0.000 A 
BRANCH  22  31
ATOM     31  O7  UNL     1      72.829  59.632 109.372  0.00  0.00    +0.000 OA
ATOM     32  H14 UNL     1      73.257  58.875 109.887  0.00  0.00    +0.000 HD
ENDBRANCH  22  31
BRANCH  24  33
ATOM     33  C28 UNL     1      72.689  58.909 104.535  0.00  0.00    +0.000 C 
ATOM     34  O9  UNL     1      72.651  57.646 104.512  0.00  0.00    +0.000 OA
BRANCH  33  35
ATOM     35  O8  UNL     1      72.218  59.620 103.434  0.00  0.00    +0.000 OA
ATOM     36  H17 UNL     1      72.759  59.691 102.585  0.00  0.00    +0.000 HD
ENDBRANCH  33  35
ENDBRANCH  24  33
BRANCH  27  37
ATOM     37  O10 UNL     1      76.201  62.807 111.329  0.00  0.00    +0.000 OA
BRANCH  37  38
ATOM     38  C33 UNL     1      75.710  63.723 112.317  0.00  0.00    +0.000 C 
ATOM     39  O11 UNL     1      75.213  64.896 111.680  0.00  0.00    +0.000 OA
ATOM     40  C34 UNL     1      74.450  65.791 112.497  0.00  0.00    +0.000 C 
ATOM     41  C36 UNL     1      74.200  65.352 113.958  0.00  0.00    +0.000 C 
ATOM     42  C37 UNL     1      73.674  63.901 113.924  0.00  0.00    +0.000 C 
ATOM     43  C38 UNL     1      74.681  62.961 113.213  0.00  0.00    +0.000 C 
BRANCH  41  44
ATOM     44  O13 UNL     1      75.392  65.438 114.710  0.00  0.00    +0.000 OA
ATOM     45  H27 UNL     1      75.547  64.547 115.109  0.00  0.00    +0.000 HD
ENDBRANCH  41  44
BRANCH  42  46
ATOM     46  O14 UNL     1      73.310  63.423 115.199  0.00  0.00    +0.000 OA
ATOM     47  H29 UNL     1      73.952  62.730 115.486  0.00  0.00    +0.000 HD
ENDBRANCH  42  46
BRANCH  43  48
ATOM     48  O15 UNL     1      75.366  62.145 114.134  0.00  0.00    +0.000 OA
ATOM     49  H31 UNL     1      75.464  61.232 113.739  0.00  0.00    +0.000 HD
ENDBRANCH  43  48
BRANCH  40  50
ATOM     50  C35 UNL     1      75.043  67.210 112.428  0.00  0.00    +0.000 C 
BRANCH  50  51
ATOM     51  O12 UNL     1      74.801  67.902 113.624  0.00  0.00    +0.000 OA
ATOM     52  H25 UNL     1      73.892  68.290 113.558  0.00  0.00    +0.000 HD
ENDBRANCH  50  51
ENDBRANCH  40  50
ENDBRANCH  37  38
ENDBRANCH  27  37
ENDBRANCH  15  16
BRANCH  10  53
ATOM     53  O5  UNL     1      70.024  62.794 105.304  0.00  0.00    +0.000 OA
ATOM     54  H9  UNL     1      69.677  61.870 105.521  0.00  0.00    +0.000 HD
ENDBRANCH  10  53
BRANCH  12  55
ATOM     55  C39 UNL     1      71.647  65.082 109.278  0.00  0.00    +0.000 C 
ATOM     56  O17 UNL     1      71.282  66.285 109.375  0.00  0.00    +0.000 OA
BRANCH  55  57
ATOM     57  O16 UNL     1      71.791  64.316 110.433  0.00  0.00    +0.000 OA
ATOM     58  H32 UNL     1      71.076  64.317 111.149  0.00  0.00    +0.000 HD
ENDBRANCH  55  57
ENDBRANCH  12  55
BRANCH   1  59
ATOM     59  O3  UNL     1      73.267  62.815 101.129  0.00  0.00    +0.000 OA
BRANCH  59  62
ATOM     60  C2  UNL     1      73.915  59.445 100.135  0.00  0.00    +0.000 C 
ATOM     61  O2  UNL     1      73.629  60.550 100.987  0.00  0.00    +0.000 OA
ATOM     62  C3  UNL     1      73.280  61.700 100.234  0.00  0.00    +0.000 C 
ATOM     63  C40 UNL     1      71.873  61.513  99.597  0.00  0.00    +0.000 C 
ATOM     64  C41 UNL     1      71.531  60.013  99.415  0.00  0.00    +0.000 C 
ATOM     65  C42 UNL     1      72.804  59.212  99.059  0.00  0.00    +0.000 C 
BRANCH  63  66
ATOM     66  O18 UNL     1      71.837  62.158  98.350  0.00  0.00    +0.000 OA
ATOM     67  H34 UNL     1      71.370  61.548  97.722  0.00  0.00    +0.000 HD
ENDBRANCH  63  66
BRANCH  64  68
ATOM     68  O19 UNL     1      70.984  59.511 100.613  0.00  0.00    +0.000 OA
ATOM     69  H36 UNL     1      70.936  60.270 101.258  0.00  0.00    +0.000 HD
ENDBRANCH  64  68
BRANCH  65  70
ATOM     70  O20 UNL     1      73.286  59.621  97.801  0.00  0.00    +0.000 OA
ATOM     71  H38 UNL     1      74.175  60.037  97.943  0.00  0.00    +0.000 HD
ENDBRANCH  65  70
BRANCH  60  72
ATOM     72  C1  UNL     1      74.103  58.199 101.020  0.00  0.00    +0.000 C 
BRANCH  72  73
ATOM     73  O1  UNL     1      72.863  57.675 101.417  0.00  0.00    +0.000 OA
ATOM     74  H1  UNL     1      72.190  58.046 100.790  0.00  0.00    +0.000 HD
ENDBRANCH  72  73
ENDBRANCH  60  72
ENDBRANCH  59  62
ENDBRANCH   1  59
TORSDOF 21
ENDMDL
MODEL 13
REMARK VINA RESULT:      -7.3      1.973      2.968
REMARK  Name = ./S4018.pdb
REMARK  21 active torsions:
REMARK  status: ('A' for Active; 'I' for Inactive)
REMARK    1  A    between atoms: O1_1  and  C1_2
REMARK    2  A    between atoms: C1_2  and  C2_3
REMARK    3  A    between atoms: C3_5  and  O3_6
REMARK    4  A    between atoms: O3_6  and  C4_7
REMARK    5  A    between atoms: C12_16  and  O5_17
REMARK    6  A    between atoms: C14_19  and  C39_54
REMARK    7  A    between atoms: C17_22  and  C18_23
REMARK    8  A    between atoms: C23_29  and  O7_30
REMARK    9  A    between atoms: C25_32  and  C28_35
REMARK   10  A    between atoms: C28_35  and  O8_36
REMARK   11  A    between atoms: C29_38  and  O10_42
REMARK   12  A    between atoms: O10_42  and  C33_43
REMARK   13  A    between atoms: C34_45  and  C35_46
REMARK   14  A    between atoms: C35_46  and  O12_47
REMARK   15  A    between atoms: C36_48  and  O13_49
REMARK   16  A    between atoms: C37_50  and  O14_51
REMARK   17  A    between atoms: C38_52  and  O15_53
REMARK   18  A    between atoms: C39_54  and  O16_55
REMARK   19  A    between atoms: C40_57  and  O18_58
REMARK   20  A    between atoms: C41_59  and  O19_60
REMARK   21  A    between atoms: C42_61  and  O20_62
REMARK                            x       y       z     vdW  Elec       q    Type
REMARK                         _______ _______ _______ _____ _____    ______ ____
ROOT
ATOM      1  C4  UNL     1      74.279  65.707 109.567  0.00  0.00    +0.000 A 
ATOM      2  C5  UNL     1      74.774  67.006 109.362  0.00  0.00    +0.000 A 
ATOM      3  C6  UNL     1      75.394  67.348 108.165  0.00  0.00    +0.000 A 
ATOM      4  C7  UNL     1      75.476  66.418 107.131  0.00  0.00    +0.000 A 
ATOM      5  C8  UNL     1      74.954  65.128 107.290  0.00  0.00    +0.000 A 
ATOM      6  C9  UNL     1      74.376  64.750 108.522  0.00  0.00    +0.000 A 
ATOM      7  C10 UNL     1      73.882  63.357 108.685  0.00  0.00    +0.000 C 
ATOM      8  O4  UNL     1      73.248  63.043 109.726  0.00  0.00    +0.000 OA
ATOM      9  C11 UNL     1      74.194  62.324 107.652  0.00  0.00    +0.000 A 
ATOM     10  C12 UNL     1      73.962  60.931 107.847  0.00  0.00    +0.000 A 
ATOM     11  C13 UNL     1      74.491  60.002 106.949  0.00  0.00    +0.000 A 
ATOM     12  C14 UNL     1      75.202  60.413 105.818  0.00  0.00    +0.000 A 
ATOM     13  C15 UNL     1      75.363  61.783 105.577  0.00  0.00    +0.000 A 
ATOM     14  C16 UNL     1      74.849  62.738 106.468  0.00  0.00    +0.000 A 
ATOM     15  C17 UNL     1      74.938  64.208 106.086  0.00  0.00    +0.000 C 
ENDROOT
BRANCH  15  16
ATOM     16  C18 UNL     1      73.823  64.644 105.063  0.00  0.00    +0.000 C 
ATOM     17  C19 UNL     1      73.968  63.895 103.748  0.00  0.00    +0.000 A 
ATOM     18  C20 UNL     1      73.137  62.798 103.431  0.00  0.00    +0.000 A 
ATOM     19  C21 UNL     1      72.052  62.444 104.364  0.00  0.00    +0.000 C 
ATOM     20  O6  UNL     1      71.613  61.263 104.404  0.00  0.00    +0.000 OA
ATOM     21  C22 UNL     1      71.566  63.462 105.326  0.00  0.00    +0.000 A 
ATOM     22  C23 UNL     1      70.296  63.374 105.950  0.00  0.00    +0.000 A 
ATOM     23  C24 UNL     1      69.943  64.292 106.948  0.00  0.00    +0.000 A 
ATOM     24  C25 UNL     1      70.785  65.365 107.267  0.00  0.00    +0.000 A 
ATOM     25  C26 UNL     1      71.999  65.503 106.582  0.00  0.00    +0.000 A 
ATOM     26  C27 UNL     1      72.419  64.540 105.649  0.00  0.00    +0.000 A 
ATOM     27  C29 UNL     1      73.352  62.067 102.242  0.00  0.00    +0.000 A 
ATOM     28  C30 UNL     1      74.453  62.409 101.422  0.00  0.00    +0.000 A 
ATOM     29  C31 UNL     1      75.279  63.487 101.747  0.00  0.00    +0.000 A 
ATOM     30  C32 UNL     1      75.029  64.235 102.893  0.00  0.00    +0.000 A 
BRANCH  22  31
ATOM     31  O7  UNL     1      69.347  62.412 105.594  0.00  0.00    +0.000 OA
ATOM     32  H14 UNL     1      68.893  62.387 104.692  0.00  0.00    +0.000 HD
ENDBRANCH  22  31
BRANCH  24  33
ATOM     33  C28 UNL     1      70.405  66.333 108.323  0.00  0.00    +0.000 C 
ATOM     34  O9  UNL     1      70.671  66.104 109.537  0.00  0.00    +0.000 OA
BRANCH  33  35
ATOM     35  O8  UNL     1      69.738  67.508 107.986  0.00  0.00    +0.000 OA
ATOM     36  H17 UNL     1      68.757  67.505 107.749  0.00  0.00    +0.000 HD
ENDBRANCH  33  35
ENDBRANCH  24  33
BRANCH  27  37
ATOM     37  O10 UNL     1      72.465  61.021 101.903  0.00  0.00    +0.000 OA
BRANCH  37  38
ATOM     38  C33 UNL     1      71.619  60.948 100.746  0.00  0.00    +0.000 C 
ATOM     39  O11 UNL     1      71.875  59.738 100.040  0.00  0.00    +0.000 OA
ATOM     40  C34 UNL     1      70.936  59.386  99.017  0.00  0.00    +0.000 C 
ATOM     41  C36 UNL     1      69.721  60.326  98.839  0.00  0.00    +0.000 C 
ATOM     42  C37 UNL     1      69.101  60.552 100.235  0.00  0.00    +0.000 C 
ATOM     43  C38 UNL     1      70.142  61.150 101.216  0.00  0.00    +0.000 C 
BRANCH  41  44
ATOM     44  O13 UNL     1      70.123  61.550  98.263  0.00  0.00    +0.000 OA
ATOM     45  H27 UNL     1      70.688  62.012  98.930  0.00  0.00    +0.000 HD
ENDBRANCH  41  44
BRANCH  42  46
ATOM     46  O14 UNL     1      67.916  61.314 100.189  0.00  0.00    +0.000 OA
ATOM     47  H29 UNL     1      67.724  61.567  99.254  0.00  0.00    +0.000 HD
ENDBRANCH  42  46
BRANCH  43  48
ATOM     48  O15 UNL     1      69.902  62.517 101.456  0.00  0.00    +0.000 OA
ATOM     49  H31 UNL     1      70.778  63.000 101.444  0.00  0.00    +0.000 HD
ENDBRANCH  43  48
BRANCH  40  50
ATOM     50  C35 UNL     1      71.666  59.152  97.682  0.00  0.00    +0.000 C 
BRANCH  50  51
ATOM     51  O12 UNL     1      73.013  59.529  97.786  0.00  0.00    +0.000 OA
ATOM     52  H25 UNL     1      73.370  59.595  96.866  0.00  0.00    +0.000 HD
ENDBRANCH  50  51
ENDBRANCH  40  50
ENDBRANCH  37  38
ENDBRANCH  27  37
ENDBRANCH  15  16
BRANCH  10  53
ATOM     53  O5  UNL     1      73.201  60.421 108.896  0.00  0.00    +0.000 OA
ATOM     54  H9  UNL     1      73.263  59.467 109.225  0.00  0.00    +0.000 HD
ENDBRANCH  10  53
BRANCH  12  55
ATOM     55  C39 UNL     1      75.756  59.416 104.880  0.00  0.00    +0.000 C 
ATOM     56  O17 UNL     1      76.598  58.567 105.280  0.00  0.00    +0.000 OA
BRANCH  55  57
ATOM     57  O16 UNL     1      75.353  59.404 103.547  0.00  0.00    +0.000 OA
ATOM     58  H32 UNL     1      74.806  60.163 103.163  0.00  0.00    +0.000 HD
ENDBRANCH  55  57
ENDBRANCH  12  55
BRANCH   1  59
ATOM     59  O3  UNL     1      73.691  65.332 110.789  0.00  0.00    +0.000 OA
BRANCH  59  62
ATOM     60  C2  UNL     1      75.203  66.259 113.891  0.00  0.00    +0.000 C 
ATOM     61  O2  UNL     1      74.345  66.326 112.756  0.00  0.00    +0.000 OA
ATOM     62  C3  UNL     1      74.355  65.104 112.035  0.00  0.00    +0.000 C 
ATOM     63  C40 UNL     1      73.607  64.004 112.841  0.00  0.00    +0.000 C 
ATOM     64  C41 UNL     1      73.621  64.310 114.360  0.00  0.00    +0.000 C 
ATOM     65  C42 UNL     1      74.953  64.982 114.760  0.00  0.00    +0.000 C 
BRANCH  63  66
ATOM     66  O18 UNL     1      74.217  62.760 112.607  0.00  0.00    +0.000 OA
ATOM     67  H34 UNL     1      73.598  62.065 112.951  0.00  0.00    +0.000 HD
ENDBRANCH  63  66
BRANCH  64  68
ATOM     68  O19 UNL     1      72.551  65.173 114.671  0.00  0.00    +0.000 OA
ATOM     69  H36 UNL     1      72.614  65.956 114.057  0.00  0.00    +0.000 HD
ENDBRANCH  64  68
BRANCH  65  70
ATOM     70  O20 UNL     1      76.017  64.080 114.571  0.00  0.00    +0.000 OA
ATOM     71  H38 UNL     1      76.582  64.434 113.837  0.00  0.00    +0.000 HD
ENDBRANCH  65  70
BRANCH  60  72
ATOM     72  C1  UNL     1      74.999  67.543 114.716  0.00  0.00    +0.000 C 
BRANCH  72  73
ATOM     73  O1  UNL     1      76.060  68.441 114.520  0.00  0.00    +0.000 OA
ATOM     74  H1  UNL     1      76.349  68.327 113.578  0.00  0.00    +0.000 HD
ENDBRANCH  72  73
ENDBRANCH  60  72
ENDBRANCH  59  62
ENDBRANCH   1  59
TORSDOF 21
ENDMDL
MODEL 14
REMARK VINA RESULT:      -7.3      2.417      4.565
REMARK  Name = ./S4018.pdb
REMARK  21 active torsions:
REMARK  status: ('A' for Active; 'I' for Inactive)
REMARK    1  A    between atoms: O1_1  and  C1_2
REMARK    2  A    between atoms: C1_2  and  C2_3
REMARK    3  A    between atoms: C3_5  and  O3_6
REMARK    4  A    between atoms: O3_6  and  C4_7
REMARK    5  A    between atoms: C12_16  and  O5_17
REMARK    6  A    between atoms: C14_19  and  C39_54
REMARK    7  A    between atoms: C17_22  and  C18_23
REMARK    8  A    between atoms: C23_29  and  O7_30
REMARK    9  A    between atoms: C25_32  and  C28_35
REMARK   10  A    between atoms: C28_35  and  O8_36
REMARK   11  A    between atoms: C29_38  and  O10_42
REMARK   12  A    between atoms: O10_42  and  C33_43
REMARK   13  A    between atoms: C34_45  and  C35_46
REMARK   14  A    between atoms: C35_46  and  O12_47
REMARK   15  A    between atoms: C36_48  and  O13_49
REMARK   16  A    between atoms: C37_50  and  O14_51
REMARK   17  A    between atoms: C38_52  and  O15_53
REMARK   18  A    between atoms: C39_54  and  O16_55
REMARK   19  A    between atoms: C40_57  and  O18_58
REMARK   20  A    between atoms: C41_59  and  O19_60
REMARK   21  A    between atoms: C42_61  and  O20_62
REMARK                            x       y       z     vdW  Elec       q    Type
REMARK                         _______ _______ _______ _____ _____    ______ ____
ROOT
ATOM      1  C4  UNL     1      75.402  64.254 110.905  0.00  0.00    +0.000 A 
ATOM      2  C5  UNL     1      76.548  63.525 111.263  0.00  0.00    +0.000 A 
ATOM      3  C6  UNL     1      77.006  62.485 110.461  0.00  0.00    +0.000 A 
ATOM      4  C7  UNL     1      76.365  62.196 109.260  0.00  0.00    +0.000 A 
ATOM      5  C8  UNL     1      75.245  62.934 108.854  0.00  0.00    +0.000 A 
ATOM      6  C9  UNL     1      74.734  63.952 109.689  0.00  0.00    +0.000 A 
ATOM      7  C10 UNL     1      73.510  64.681 109.262  0.00  0.00    +0.000 C 
ATOM      8  O4  UNL     1      73.119  65.676 109.928  0.00  0.00    +0.000 OA
ATOM      9  C11 UNL     1      72.715  64.195 108.095  0.00  0.00    +0.000 A 
ATOM     10  C12 UNL     1      71.419  64.693 107.773  0.00  0.00    +0.000 A 
ATOM     11  C13 UNL     1      70.634  64.037 106.822  0.00  0.00    +0.000 A 
ATOM     12  C14 UNL     1      71.119  62.925 106.128  0.00  0.00    +0.000 A 
ATOM     13  C15 UNL     1      72.423  62.481 106.380  0.00  0.00    +0.000 A 
ATOM     14  C16 UNL     1      73.229  63.117 107.337  0.00  0.00    +0.000 A 
ATOM     15  C17 UNL     1      74.678  62.676 107.472  0.00  0.00    +0.000 C 
ENDROOT
BRANCH  15  16
ATOM     16  C18 UNL     1      75.612  63.288 106.362  0.00  0.00    +0.000 C 
ATOM     17  C19 UNL     1      75.503  62.500 105.066  0.00  0.00    +0.000 A 
ATOM     18  C20 UNL     1      74.731  62.971 103.981  0.00  0.00    +0.000 A 
ATOM     19  C21 UNL     1      74.100  64.299 104.091  0.00  0.00    +0.000 C 
ATOM     20  O6  UNL     1      73.063  64.562 103.424  0.00  0.00    +0.000 OA
ATOM     21  C22 UNL     1      74.633  65.273 105.073  0.00  0.00    +0.000 A 
ATOM     22  C23 UNL     1      74.390  66.666 104.972  0.00  0.00    +0.000 A 
ATOM     23  C24 UNL     1      74.807  67.524 105.998  0.00  0.00    +0.000 A 
ATOM     24  C25 UNL     1      75.556  67.041 107.078  0.00  0.00    +0.000 A 
ATOM     25  C26 UNL     1      75.874  65.678 107.129  0.00  0.00    +0.000 A 
ATOM     26  C27 UNL     1      75.384  64.782 106.164  0.00  0.00    +0.000 A 
ATOM     27  C29 UNL     1      74.578  62.177 102.823  0.00  0.00    +0.000 A 
ATOM     28  C30 UNL     1      75.148  60.883 102.805  0.00  0.00    +0.000 A 
ATOM     29  C31 UNL     1      75.900  60.417 103.885  0.00  0.00    +0.000 A 
ATOM     30  C32 UNL     1      76.090  61.226 105.001  0.00  0.00    +0.000 A 
BRANCH  22  31
ATOM     31  O7  UNL     1      73.766  67.243 103.862  0.00  0.00    +0.000 OA
ATOM     32  H14 UNL     1      73.777  68.235 103.672  0.00  0.00    +0.000 HD
ENDBRANCH  22  31
BRANCH  24  33
ATOM     33  C28 UNL     1      75.994  67.954 108.160  0.00  0.00    +0.000 C 
ATOM     34  O9  UNL     1      75.912  69.208 108.021  0.00  0.00    +0.000 OA
BRANCH  33  35
ATOM     35  O8  UNL     1      76.512  67.438 109.345  0.00  0.00    +0.000 OA
ATOM     36  H17 UNL     1      75.928  67.303 110.157  0.00  0.00    +0.000 HD
ENDBRANCH  33  35
ENDBRANCH  24  33
BRANCH  27  37
ATOM     37  O10 UNL     1      73.865  62.696 101.718  0.00  0.00    +0.000 OA
BRANCH  37  38
ATOM     38  C33 UNL     1      72.847  62.029 100.959  0.00  0.00    +0.000 C 
ATOM     39  O11 UNL     1      73.357  60.802 100.445  0.00  0.00    +0.000 OA
ATOM     40  C34 UNL     1      72.397  59.894  99.892  0.00  0.00    +0.000 C 
ATOM     41  C36 UNL     1      70.913  60.321  99.973  0.00  0.00    +0.000 C 
ATOM     42  C37 UNL     1      70.632  60.751 101.429  0.00  0.00    +0.000 C 
ATOM     43  C38 UNL     1      71.578  61.900 101.863  0.00  0.00    +0.000 C 
BRANCH  41  44
ATOM     44  O13 UNL     1      70.655  61.381  99.077  0.00  0.00    +0.000 OA
ATOM     45  H27 UNL     1      71.522  61.812  98.880  0.00  0.00    +0.000 HD
ENDBRANCH  41  44
BRANCH  42  46
ATOM     46  O14 UNL     1      69.277  61.065 101.653  0.00  0.00    +0.000 OA
ATOM     47  H29 UNL     1      69.179  62.043 101.755  0.00  0.00    +0.000 HD
ENDBRANCH  42  46
BRANCH  43  48
ATOM     48  O15 UNL     1      70.903  63.135 101.912  0.00  0.00    +0.000 OA
ATOM     49  H31 UNL     1      70.860  63.437 102.864  0.00  0.00    +0.000 HD
ENDBRANCH  43  48
BRANCH  40  50
ATOM     50  C35 UNL     1      72.795  59.509  98.456  0.00  0.00    +0.000 C 
BRANCH  50  51
ATOM     51  O12 UNL     1      72.858  60.649  97.641  0.00  0.00    +0.000 OA
ATOM     52  H25 UNL     1      73.649  61.171  97.929  0.00  0.00    +0.000 HD
ENDBRANCH  50  51
ENDBRANCH  40  50
ENDBRANCH  37  38
ENDBRANCH  27  37
ENDBRANCH  15  16
BRANCH  10  53
ATOM     53  O5  UNL     1      70.872  65.838 108.349  0.00  0.00    +0.000 OA
ATOM     54  H9  UNL     1      70.760  66.716 107.860  0.00  0.00    +0.000 HD
ENDBRANCH  10  53
BRANCH  12  55
ATOM     55  C39 UNL     1      70.274  62.243 105.126  0.00  0.00    +0.000 C 
ATOM     56  O17 UNL     1      70.255  60.984 105.064  0.00  0.00    +0.000 OA
BRANCH  55  57
ATOM     57  O16 UNL     1      69.492  62.984 104.244  0.00  0.00    +0.000 OA
ATOM     58  H32 UNL     1      69.910  63.673 103.633  0.00  0.00    +0.000 HD
ENDBRANCH  55  57
ENDBRANCH  12  55
BRANCH   1  59
ATOM     59  O3  UNL     1      74.899  65.278 111.728  0.00  0.00    +0.000 OA
BRANCH  59  62
ATOM     60  C2  UNL     1      74.925  64.797 115.269  0.00  0.00    +0.000 C 
ATOM     61  O2  UNL     1      75.378  65.184 113.974  0.00  0.00    +0.000 OA
ATOM     62  C3  UNL     1      74.321  65.138 113.029  0.00  0.00    +0.000 C 
ATOM     63  C40 UNL     1      73.319  66.298 113.293  0.00  0.00    +0.000 C 
ATOM     64  C41 UNL     1      73.365  66.759 114.772  0.00  0.00    +0.000 C 
ATOM     65  C42 UNL     1      73.624  65.552 115.701  0.00  0.00    +0.000 C 
BRANCH  63  66
ATOM     66  O18 UNL     1      72.019  65.872 112.974  0.00  0.00    +0.000 OA
ATOM     67  H34 UNL     1      71.803  65.121 113.585  0.00  0.00    +0.000 HD
ENDBRANCH  63  66
BRANCH  64  68
ATOM     68  O19 UNL     1      74.400  67.702 114.933  0.00  0.00    +0.000 OA
ATOM     69  H36 UNL     1      74.461  67.910 115.907  0.00  0.00    +0.000 HD
ENDBRANCH  64  68
BRANCH  65  70
ATOM     70  O20 UNL     1      72.534  64.663 115.641  0.00  0.00    +0.000 OA
ATOM     71  H38 UNL     1      72.003  64.785 116.470  0.00  0.00    +0.000 HD
ENDBRANCH  65  70
BRANCH  60  72
ATOM     72  C1  UNL     1      76.071  65.048 116.266  0.00  0.00    +0.000 C 
BRANCH  72  73
ATOM     73  O1  UNL     1      76.304  66.423 116.428  0.00  0.00    +0.000 OA
ATOM     74  H1  UNL     1      76.093  66.845 115.556  0.00  0.00    +0.000 HD
ENDBRANCH  72  73
ENDBRANCH  60  72
ENDBRANCH  59  62
ENDBRANCH   1  59
TORSDOF 21
ENDMDL
MODEL 15
REMARK VINA RESULT:      -7.3      4.194      8.160
REMARK  Name = ./S4018.pdb
REMARK  21 active torsions:
REMARK  status: ('A' for Active; 'I' for Inactive)
REMARK    1  A    between atoms: O1_1  and  C1_2
REMARK    2  A    between atoms: C1_2  and  C2_3
REMARK    3  A    between atoms: C3_5  and  O3_6
REMARK    4  A    between atoms: O3_6  and  C4_7
REMARK    5  A    between atoms: C12_16  and  O5_17
REMARK    6  A    between atoms: C14_19  and  C39_54
REMARK    7  A    between atoms: C17_22  and  C18_23
REMARK    8  A    between atoms: C23_29  and  O7_30
REMARK    9  A    between atoms: C25_32  and  C28_35
REMARK   10  A    between atoms: C28_35  and  O8_36
REMARK   11  A    between atoms: C29_38  and  O10_42
REMARK   12  A    between atoms: O10_42  and  C33_43
REMARK   13  A    between atoms: C34_45  and  C35_46
REMARK   14  A    between atoms: C35_46  and  O12_47
REMARK   15  A    between atoms: C36_48  and  O13_49
REMARK   16  A    between atoms: C37_50  and  O14_51
REMARK   17  A    between atoms: C38_52  and  O15_53
REMARK   18  A    between atoms: C39_54  and  O16_55
REMARK   19  A    between atoms: C40_57  and  O18_58
REMARK   20  A    between atoms: C41_59  and  O19_60
REMARK   21  A    between atoms: C42_61  and  O20_62
REMARK                            x       y       z     vdW  Elec       q    Type
REMARK                         _______ _______ _______ _____ _____    ______ ____
ROOT
ATOM      1  C4  UNL     1      72.027  70.266 107.845  0.00  0.00    +0.000 A 
ATOM      2  C5  UNL     1      70.777  70.312 107.204  0.00  0.00    +0.000 A 
ATOM      3  C6  UNL     1      70.301  69.212 106.498  0.00  0.00    +0.000 A 
ATOM      4  C7  UNL     1      71.034  68.029 106.472  0.00  0.00    +0.000 A 
ATOM      5  C8  UNL     1      72.264  67.937 107.138  0.00  0.00    +0.000 A 
ATOM      6  C9  UNL     1      72.787  69.066 107.807  0.00  0.00    +0.000 A 
ATOM      7  C10 UNL     1      74.121  68.960 108.456  0.00  0.00    +0.000 C 
ATOM      8  O4  UNL     1      74.541  69.912 109.165  0.00  0.00    +0.000 OA
ATOM      9  C11 UNL     1      74.982  67.764 108.212  0.00  0.00    +0.000 A 
ATOM     10  C12 UNL     1      76.351  67.697 108.602  0.00  0.00    +0.000 A 
ATOM     11  C13 UNL     1      77.160  66.657 108.138  0.00  0.00    +0.000 A 
ATOM     12  C14 UNL     1      76.637  65.637 107.337  0.00  0.00    +0.000 A 
ATOM     13  C15 UNL     1      75.274  65.653 107.019  0.00  0.00    +0.000 A 
ATOM     14  C16 UNL     1      74.441  66.691 107.465  0.00  0.00    +0.000 A 
ATOM     15  C17 UNL     1      72.947  66.586 107.201  0.00  0.00    +0.000 C 
ENDROOT
BRANCH  15  16
ATOM     16  C18 UNL     1      72.210  65.634 108.216  0.00  0.00    +0.000 C 
ATOM     17  C19 UNL     1      71.690  64.389 107.515  0.00  0.00    +0.000 A 
ATOM     18  C20 UNL     1      72.370  63.154 107.610  0.00  0.00    +0.000 A 
ATOM     19  C21 UNL     1      73.552  63.067 108.486  0.00  0.00    +0.000 C 
ATOM     20  O6  UNL     1      74.444  62.205 108.259  0.00  0.00    +0.000 OA
ATOM     21  C22 UNL     1      73.730  64.072 109.561  0.00  0.00    +0.000 A 
ATOM     22  C23 UNL     1      74.567  63.846 110.683  0.00  0.00    +0.000 A 
ATOM     23  C24 UNL     1      74.801  64.879 111.599  0.00  0.00    +0.000 A 
ATOM     24  C25 UNL     1      74.136  66.107 111.483  0.00  0.00    +0.000 A 
ATOM     25  C26 UNL     1      73.238  66.296 110.424  0.00  0.00    +0.000 A 
ATOM     26  C27 UNL     1      73.062  65.311 109.438  0.00  0.00    +0.000 A 
ATOM     27  C29 UNL     1      71.912  62.036 106.878  0.00  0.00    +0.000 A 
ATOM     28  C30 UNL     1      70.816  62.200 106.000  0.00  0.00    +0.000 A 
ATOM     29  C31 UNL     1      70.156  63.426 105.901  0.00  0.00    +0.000 A 
ATOM     30  C32 UNL     1      70.579  64.509 106.664  0.00  0.00    +0.000 A 
BRANCH  22  31
ATOM     31  O7  UNL     1      75.162  62.608 110.941  0.00  0.00    +0.000 OA
ATOM     32  H14 UNL     1      76.114  62.505 111.264  0.00  0.00    +0.000 HD
ENDBRANCH  22  31
BRANCH  24  33
ATOM     33  C28 UNL     1      74.388  67.195 112.456  0.00  0.00    +0.000 C 
ATOM     34  O9  UNL     1      74.059  67.067 113.670  0.00  0.00    +0.000 OA
BRANCH  33  35
ATOM     35  O8  UNL     1      74.985  68.382 112.040  0.00  0.00    +0.000 OA
ATOM     36  H17 UNL     1      74.450  69.232 111.940  0.00  0.00    +0.000 HD
ENDBRANCH  33  35
ENDBRANCH  24  33
BRANCH  27  37
ATOM     37  O10 UNL     1      72.557  60.790 107.043  0.00  0.00    +0.000 OA
BRANCH  37  38
ATOM     38  C33 UNL     1      72.822  59.814 106.025  0.00  0.00    +0.000 C 
ATOM     39  O11 UNL     1      74.225  59.582 105.936  0.00  0.00    +0.000 OA
ATOM     40  C34 UNL     1      74.636  58.451 105.160  0.00  0.00    +0.000 C 
ATOM     41  C36 UNL     1      73.510  57.576 104.561  0.00  0.00    +0.000 C 
ATOM     42  C37 UNL     1      72.518  57.253 105.699  0.00  0.00    +0.000 C 
ATOM     43  C38 UNL     1      71.953  58.551 106.330  0.00  0.00    +0.000 C 
BRANCH  41  44
ATOM     44  O13 UNL     1      72.863  58.257 103.507  0.00  0.00    +0.000 OA
ATOM     45  H27 UNL     1      71.954  57.878 103.433  0.00  0.00    +0.000 HD
ENDBRANCH  41  44
BRANCH  42  46
ATOM     46  O14 UNL     1      71.496  56.370 105.297  0.00  0.00    +0.000 OA
ATOM     47  H29 UNL     1      70.616  56.784 105.469  0.00  0.00    +0.000 HD
ENDBRANCH  42  46
BRANCH  43  48
ATOM     48  O15 UNL     1      70.622  58.784 105.931  0.00  0.00    +0.000 OA
ATOM     49  H31 UNL     1      70.017  58.227 106.500  0.00  0.00    +0.000 HD
ENDBRANCH  43  48
BRANCH  40  50
ATOM     50  C35 UNL     1      75.646  58.884 104.083  0.00  0.00    +0.000 C 
BRANCH  50  51
ATOM     51  O12 UNL     1      75.172  60.004 103.386  0.00  0.00    +0.000 OA
ATOM     52  H25 UNL     1      74.260  60.193 103.722  0.00  0.00    +0.000 HD
ENDBRANCH  50  51
ENDBRANCH  40  50
ENDBRANCH  37  38
ENDBRANCH  27  37
ENDBRANCH  15  16
BRANCH  10  53
ATOM     53  O5  UNL     1      76.950  68.617 109.459  0.00  0.00    +0.000 OA
ATOM     54  H9  UNL     1      77.801  68.437 109.974  0.00  0.00    +0.000 HD
ENDBRANCH  10  53
BRANCH  12  55
ATOM     55  C39 UNL     1      77.508  64.546 106.854  0.00  0.00    +0.000 C 
ATOM     56  O17 UNL     1      77.033  63.625 106.137  0.00  0.00    +0.000 OA
BRANCH  55  57
ATOM     57  O16 UNL     1      78.861  64.526 107.186  0.00  0.00    +0.000 OA
ATOM     58  H32 UNL     1      79.549  64.167 106.538  0.00  0.00    +0.000 HD
ENDBRANCH  55  57
ENDBRANCH  12  55
BRANCH   1  59
ATOM     59  O3  UNL     1      72.544  71.385 108.523  0.00  0.00    +0.000 OA
BRANCH  59  62
ATOM     60  C2  UNL     1      70.386  74.211 108.867  0.00  0.00    +0.000 C 
ATOM     61  O2  UNL     1      70.993  72.956 109.161  0.00  0.00    +0.000 OA
ATOM     62  C3  UNL     1      72.150  72.750 108.366  0.00  0.00    +0.000 C 
ATOM     63  C40 UNL     1      73.296  73.691 108.838  0.00  0.00    +0.000 C 
ATOM     64  C41 UNL     1      72.736  74.952 109.543  0.00  0.00    +0.000 C 
ATOM     65  C42 UNL     1      71.411  75.393 108.881  0.00  0.00    +0.000 C 
BRANCH  63  66
ATOM     66  O18 UNL     1      74.067  74.077 107.730  0.00  0.00    +0.000 OA
ATOM     67  H34 UNL     1      73.452  74.514 107.087  0.00  0.00    +0.000 HD
ENDBRANCH  63  66
BRANCH  64  68
ATOM     68  O19 UNL     1      72.503  74.660 110.903  0.00  0.00    +0.000 OA
ATOM     69  H36 UNL     1      73.213  74.024 111.195  0.00  0.00    +0.000 HD
ENDBRANCH  64  68
BRANCH  65  70
ATOM     70  O20 UNL     1      71.656  75.807 107.558  0.00  0.00    +0.000 OA
ATOM     71  H38 UNL     1      72.625  75.686 107.382  0.00  0.00    +0.000 HD
ENDBRANCH  65  70
BRANCH  60  72
ATOM     72  C1  UNL     1      69.257  74.442 109.889  0.00  0.00    +0.000 C 
BRANCH  72  73
ATOM     73  O1  UNL     1      69.656  74.048 111.175  0.00  0.00    +0.000 OA
ATOM     74  H1  UNL     1      68.851  74.119 111.750  0.00  0.00    +0.000 HD
ENDBRANCH  72  73
ENDBRANCH  60  72
ENDBRANCH  59  62
ENDBRANCH   1  59
TORSDOF 21
ENDMDL
MODEL 16
REMARK VINA RESULT:      -7.3      4.609     10.930
REMARK  Name = ./S4018.pdb
REMARK  21 active torsions:
REMARK  status: ('A' for Active; 'I' for Inactive)
REMARK    1  A    between atoms: O1_1  and  C1_2
REMARK    2  A    between atoms: C1_2  and  C2_3
REMARK    3  A    between atoms: C3_5  and  O3_6
REMARK    4  A    between atoms: O3_6  and  C4_7
REMARK    5  A    between atoms: C12_16  and  O5_17
REMARK    6  A    between atoms: C14_19  and  C39_54
REMARK    7  A    between atoms: C17_22  and  C18_23
REMARK    8  A    between atoms: C23_29  and  O7_30
REMARK    9  A    between atoms: C25_32  and  C28_35
REMARK   10  A    between atoms: C28_35  and  O8_36
REMARK   11  A    between atoms: C29_38  and  O10_42
REMARK   12  A    between atoms: O10_42  and  C33_43
REMARK   13  A    between atoms: C34_45  and  C35_46
REMARK   14  A    between atoms: C35_46  and  O12_47
REMARK   15  A    between atoms: C36_48  and  O13_49
REMARK   16  A    between atoms: C37_50  and  O14_51
REMARK   17  A    between atoms: C38_52  and  O15_53
REMARK   18  A    between atoms: C39_54  and  O16_55
REMARK   19  A    between atoms: C40_57  and  O18_58
REMARK   20  A    between atoms: C41_59  and  O19_60
REMARK   21  A    between atoms: C42_61  and  O20_62
REMARK                            x       y       z     vdW  Elec       q    Type
REMARK                         _______ _______ _______ _____ _____    ______ ____
ROOT
ATOM      1  C4  UNL     1      72.215  63.257 105.186  0.00  0.00    +0.000 A 
ATOM      2  C5  UNL     1      73.002  62.893 104.081  0.00  0.00    +0.000 A 
ATOM      3  C6  UNL     1      73.852  63.816 103.481  0.00  0.00    +0.000 A 
ATOM      4  C7  UNL     1      73.978  65.097 104.011  0.00  0.00    +0.000 A 
ATOM      5  C8  UNL     1      73.239  65.477 105.140  0.00  0.00    +0.000 A 
ATOM      6  C9  UNL     1      72.326  64.568 105.721  0.00  0.00    +0.000 A 
ATOM      7  C10 UNL     1      71.511  65.016 106.881  0.00  0.00    +0.000 C 
ATOM      8  O4  UNL     1      70.791  64.181 107.491  0.00  0.00    +0.000 OA
ATOM      9  C11 UNL     1      71.494  66.457 107.276  0.00  0.00    +0.000 A 
ATOM     10  C12 UNL     1      70.568  66.996 108.216  0.00  0.00    +0.000 A 
ATOM     11  C13 UNL     1      70.448  68.380 108.363  0.00  0.00    +0.000 A 
ATOM     12  C14 UNL     1      71.264  69.257 107.643  0.00  0.00    +0.000 A 
ATOM     13  C15 UNL     1      72.233  68.731 106.780  0.00  0.00    +0.000 A 
ATOM     14  C16 UNL     1      72.369  67.344 106.607  0.00  0.00    +0.000 A 
ATOM     15  C17 UNL     1      73.523  66.829 105.761  0.00  0.00    +0.000 C 
ENDROOT
BRANCH  15  16
ATOM     16  C18 UNL     1      74.893  66.810 106.538  0.00  0.00    +0.000 C 
ATOM     17  C19 UNL     1      75.828  67.890 106.018  0.00  0.00    +0.000 A 
ATOM     18  C20 UNL     1      76.011  69.104 106.719  0.00  0.00    +0.000 A 
ATOM     19  C21 UNL     1      75.347  69.270 108.024  0.00  0.00    +0.000 C 
ATOM     20  O6  UNL     1      75.072  70.425 108.450  0.00  0.00    +0.000 OA
ATOM     21  C22 UNL     1      74.909  68.066 108.770  0.00  0.00    +0.000 A 
ATOM     22  C23 UNL     1      74.656  68.086 110.165  0.00  0.00    +0.000 A 
ATOM     23  C24 UNL     1      74.119  66.955 110.793  0.00  0.00    +0.000 A 
ATOM     24  C25 UNL     1      73.924  65.764 110.084  0.00  0.00    +0.000 A 
ATOM     25  C26 UNL     1      74.261  65.719 108.725  0.00  0.00    +0.000 A 
ATOM     26  C27 UNL     1      74.708  66.868 108.051  0.00  0.00    +0.000 A 
ATOM     27  C29 UNL     1      76.818  70.123 106.168  0.00  0.00    +0.000 A 
ATOM     28  C30 UNL     1      77.371  69.934 104.880  0.00  0.00    +0.000 A 
ATOM     29  C31 UNL     1      77.176  68.737 104.187  0.00  0.00    +0.000 A 
ATOM     30  C32 UNL     1      76.424  67.717 104.759  0.00  0.00    +0.000 A 
BRANCH  22  31
ATOM     31  O7  UNL     1      74.949  69.192 110.967  0.00  0.00    +0.000 OA
ATOM     32  H14 UNL     1      74.446  70.068 110.912  0.00  0.00    +0.000 HD
ENDBRANCH  22  31
BRANCH  24  33
ATOM     33  C28 UNL     1      73.356  64.571 110.755  0.00  0.00    +0.000 C 
ATOM     34  O9  UNL     1      73.989  63.987 111.681  0.00  0.00    +0.000 OA
BRANCH  33  35
ATOM     35  O8  UNL     1      72.115  64.073 110.365  0.00  0.00    +0.000 OA
ATOM     36  H17 UNL     1      71.902  63.089 110.428  0.00  0.00    +0.000 HD
ENDBRANCH  33  35
ENDBRANCH  24  33
BRANCH  27  37
ATOM     37  O10 UNL     1      77.052  71.300 106.916  0.00  0.00    +0.000 OA
BRANCH  37  38
ATOM     38  C33 UNL     1      78.300  71.731 107.478  0.00  0.00    +0.000 C 
ATOM     39  O11 UNL     1      78.215  73.107 107.835  0.00  0.00    +0.000 OA
ATOM     40  C34 UNL     1      79.277  73.621 108.648  0.00  0.00    +0.000 C 
ATOM     41  C36 UNL     1      80.358  72.610 109.094  0.00  0.00    +0.000 C 
ATOM     42  C37 UNL     1      79.631  71.382 109.683  0.00  0.00    +0.000 C 
ATOM     43  C38 UNL     1      78.665  70.757 108.644  0.00  0.00    +0.000 C 
BRANCH  41  44
ATOM     44  O13 UNL     1      81.169  72.238 108.000  0.00  0.00    +0.000 OA
ATOM     45  H27 UNL     1      82.109  72.312 108.297  0.00  0.00    +0.000 HD
ENDBRANCH  41  44
BRANCH  42  46
ATOM     46  O14 UNL     1      80.519  70.429 110.222  0.00  0.00    +0.000 OA
ATOM     47  H29 UNL     1      80.004  69.720 110.678  0.00  0.00    +0.000 HD
ENDBRANCH  42  46
BRANCH  43  48
ATOM     48  O15 UNL     1      79.178  69.556 108.116  0.00  0.00    +0.000 OA
ATOM     49  H31 UNL     1      78.446  69.086 107.623  0.00  0.00    +0.000 HD
ENDBRANCH  43  48
BRANCH  40  50
ATOM     50  C35 UNL     1      79.903  74.859 107.983  0.00  0.00    +0.000 C 
BRANCH  50  51
ATOM     51  O12 UNL     1      81.166  75.126 108.531  0.00  0.00    +0.000 OA
ATOM     52  H25 UNL     1      81.365  74.399 109.174  0.00  0.00    +0.000 HD
ENDBRANCH  50  51
ENDBRANCH  40  50
ENDBRANCH  37  38
ENDBRANCH  27  37
ENDBRANCH  15  16
BRANCH  10  53
ATOM     53  O5  UNL     1      69.764  66.210 109.038  0.00  0.00    +0.000 OA
ATOM     54  H9  UNL     1      68.870  66.508 109.404  0.00  0.00    +0.000 HD
ENDBRANCH  10  53
BRANCH  12  55
ATOM     55  C39 UNL     1      71.122  70.717 107.810  0.00  0.00    +0.000 C 
ATOM     56  O17 UNL     1      70.094  71.308 107.382  0.00  0.00    +0.000 OA
BRANCH  55  57
ATOM     57  O16 UNL     1      72.120  71.454 108.443  0.00  0.00    +0.000 OA
ATOM     58  H32 UNL     1      72.493  71.163 109.337  0.00  0.00    +0.000 HD
ENDBRANCH  55  57
ENDBRANCH  12  55
BRANCH   1  59
ATOM     59  O3  UNL     1      71.315  62.350 105.775  0.00  0.00    +0.000 OA
BRANCH  59  62
ATOM     60  C2  UNL     1      71.717  58.916 106.673  0.00  0.00    +0.000 C 
ATOM     61  O2  UNL     1      71.665  60.080 105.854  0.00  0.00    +0.000 OA
ATOM     62  C3  UNL     1      71.629  61.259 106.643  0.00  0.00    +0.000 C 
ATOM     63  C40 UNL     1      73.013  61.495 107.314  0.00  0.00    +0.000 C 
ATOM     64  C41 UNL     1      73.797  60.168 107.472  0.00  0.00    +0.000 C 
ATOM     65  C42 UNL     1      72.826  59.004 107.774  0.00  0.00    +0.000 C 
BRANCH  63  66
ATOM     66  O18 UNL     1      72.824  62.081 108.576  0.00  0.00    +0.000 OA
ATOM     67  H34 UNL     1      72.335  62.932 108.430  0.00  0.00    +0.000 HD
ENDBRANCH  63  66
BRANCH  64  68
ATOM     68  O19 UNL     1      74.494  59.894 106.278  0.00  0.00    +0.000 OA
ATOM     69  H36 UNL     1      74.846  60.762 105.935  0.00  0.00    +0.000 HD
ENDBRANCH  64  68
BRANCH  65  70
ATOM     70  O20 UNL     1      72.217  59.206 109.027  0.00  0.00    +0.000 OA
ATOM     71  H38 UNL     1      71.670  60.032 108.964  0.00  0.00    +0.000 HD
ENDBRANCH  65  70
BRANCH  60  72
ATOM     72  C1  UNL     1      71.940  57.700 105.755  0.00  0.00    +0.000 C 
BRANCH  72  73
ATOM     73  O1  UNL     1      73.227  57.168 105.931  0.00  0.00    +0.000 OA
ATOM     74  H1  UNL     1      73.559  57.522 106.795  0.00  0.00    +0.000 HD
ENDBRANCH  72  73
ENDBRANCH  60  72
ENDBRANCH  59  62
ENDBRANCH   1  59
TORSDOF 21
ENDMDL
MODEL 17
REMARK VINA RESULT:      -7.3      1.801     10.353
REMARK  Name = ./S4018.pdb
REMARK  21 active torsions:
REMARK  status: ('A' for Active; 'I' for Inactive)
REMARK    1  A    between atoms: O1_1  and  C1_2
REMARK    2  A    between atoms: C1_2  and  C2_3
REMARK    3  A    between atoms: C3_5  and  O3_6
REMARK    4  A    between atoms: O3_6  and  C4_7
REMARK    5  A    between atoms: C12_16  and  O5_17
REMARK    6  A    between atoms: C14_19  and  C39_54
REMARK    7  A    between atoms: C17_22  and  C18_23
REMARK    8  A    between atoms: C23_29  and  O7_30
REMARK    9  A    between atoms: C25_32  and  C28_35
REMARK   10  A    between atoms: C28_35  and  O8_36
REMARK   11  A    between atoms: C29_38  and  O10_42
REMARK   12  A    between atoms: O10_42  and  C33_43
REMARK   13  A    between atoms: C34_45  and  C35_46
REMARK   14  A    between atoms: C35_46  and  O12_47
REMARK   15  A    between atoms: C36_48  and  O13_49
REMARK   16  A    between atoms: C37_50  and  O14_51
REMARK   17  A    between atoms: C38_52  and  O15_53
REMARK   18  A    between atoms: C39_54  and  O16_55
REMARK   19  A    between atoms: C40_57  and  O18_58
REMARK   20  A    between atoms: C41_59  and  O19_60
REMARK   21  A    between atoms: C42_61  and  O20_62
REMARK                            x       y       z     vdW  Elec       q    Type
REMARK                         _______ _______ _______ _____ _____    ______ ____
ROOT
ATOM      1  C4  UNL     1      72.664  60.652 101.389  0.00  0.00    +0.000 A 
ATOM      2  C5  UNL     1      73.720  60.565 100.465  0.00  0.00    +0.000 A 
ATOM      3  C6  UNL     1      74.874  61.323 100.633  0.00  0.00    +0.000 A 
ATOM      4  C7  UNL     1      75.019  62.134 101.756  0.00  0.00    +0.000 A 
ATOM      5  C8  UNL     1      74.002  62.209 102.717  0.00  0.00    +0.000 A 
ATOM      6  C9  UNL     1      72.800  61.491 102.527  0.00  0.00    +0.000 A 
ATOM      7  C10 UNL     1      71.714  61.634 103.532  0.00  0.00    +0.000 C 
ATOM      8  O4  UNL     1      70.692  60.902 103.447  0.00  0.00    +0.000 OA
ATOM      9  C11 UNL     1      71.805  62.683 104.592  0.00  0.00    +0.000 A 
ATOM     10  C12 UNL     1      70.711  63.034 105.436  0.00  0.00    +0.000 A 
ATOM     11  C13 UNL     1      70.785  64.176 106.237  0.00  0.00    +0.000 A 
ATOM     12  C14 UNL     1      71.943  64.958 106.274  0.00  0.00    +0.000 A 
ATOM     13  C15 UNL     1      73.051  64.571 105.511  0.00  0.00    +0.000 A 
ATOM     14  C16 UNL     1      72.999  63.434 104.690  0.00  0.00    +0.000 A 
ATOM     15  C17 UNL     1      74.273  62.988 103.988  0.00  0.00    +0.000 C 
ENDROOT
BRANCH  15  16
ATOM     16  C18 UNL     1      75.249  62.193 104.934  0.00  0.00    +0.000 C 
ATOM     17  C19 UNL     1      75.987  63.136 105.871  0.00  0.00    +0.000 A 
ATOM     18  C20 UNL     1      75.594  63.289 107.219  0.00  0.00    +0.000 A 
ATOM     19  C21 UNL     1      74.506  62.440 107.736  0.00  0.00    +0.000 C 
ATOM     20  O6  UNL     1      73.810  62.830 108.712  0.00  0.00    +0.000 OA
ATOM     21  C22 UNL     1      74.172  61.182 107.026  0.00  0.00    +0.000 A 
ATOM     22  C23 UNL     1      73.463  60.123 107.648  0.00  0.00    +0.000 A 
ATOM     23  C24 UNL     1      73.060  59.014 106.892  0.00  0.00    +0.000 A 
ATOM     24  C25 UNL     1      73.439  58.884 105.550  0.00  0.00    +0.000 A 
ATOM     25  C26 UNL     1      74.219  59.889 104.963  0.00  0.00    +0.000 A 
ATOM     26  C27 UNL     1      74.551  61.056 105.671  0.00  0.00    +0.000 A 
ATOM     27  C29 UNL     1      76.243  64.236 108.042  0.00  0.00    +0.000 A 
ATOM     28  C30 UNL     1      77.231  65.071 107.471  0.00  0.00    +0.000 A 
ATOM     29  C31 UNL     1      77.606  64.924 106.134  0.00  0.00    +0.000 A 
ATOM     30  C32 UNL     1      77.000  63.953 105.344  0.00  0.00    +0.000 A 
BRANCH  22  31
ATOM     31  O7  UNL     1      73.162  60.117 109.012  0.00  0.00    +0.000 OA
ATOM     32  H14 UNL     1      73.707  60.615 109.703  0.00  0.00    +0.000 HD
ENDBRANCH  22  31
BRANCH  24  33
ATOM     33  C28 UNL     1      73.011  57.708 104.757  0.00  0.00    +0.000 C 
ATOM     34  O9  UNL     1      72.978  57.755 103.494  0.00  0.00    +0.000 OA
BRANCH  33  35
ATOM     35  O8  UNL     1      72.629  56.533 105.399  0.00  0.00    +0.000 OA
ATOM     36  H17 UNL     1      72.509  55.671 104.888  0.00  0.00    +0.000 HD
ENDBRANCH  33  35
ENDBRANCH  24  33
BRANCH  27  37
ATOM     37  O10 UNL     1      75.890  64.322 109.408  0.00  0.00    +0.000 OA
BRANCH  37  38
ATOM     38  C33 UNL     1      74.916  65.198 109.993  0.00  0.00    +0.000 C 
ATOM     39  O11 UNL     1      74.062  64.456 110.859  0.00  0.00    +0.000 OA
ATOM     40  C34 UNL     1      73.210  65.219 111.721  0.00  0.00    +0.000 C 
ATOM     41  C36 UNL     1      73.359  66.757 111.658  0.00  0.00    +0.000 C 
ATOM     42  C37 UNL     1      74.863  67.084 111.783  0.00  0.00    +0.000 C 
ATOM     43  C38 UNL     1      75.678  66.388 110.662  0.00  0.00    +0.000 C 
BRANCH  41  44
ATOM     44  O13 UNL     1      72.835  67.255 110.445  0.00  0.00    +0.000 OA
ATOM     45  H27 UNL     1      71.939  66.854 110.330  0.00  0.00    +0.000 HD
ENDBRANCH  41  44
BRANCH  42  46
ATOM     46  O14 UNL     1      75.117  68.469 111.842  0.00  0.00    +0.000 OA
ATOM     47  H29 UNL     1      75.007  68.862 110.943  0.00  0.00    +0.000 HD
ENDBRANCH  42  46
BRANCH  43  48
ATOM     48  O15 UNL     1      76.087  67.305 109.674  0.00  0.00    +0.000 OA
ATOM     49  H31 UNL     1      75.613  68.172 109.829  0.00  0.00    +0.000 HD
ENDBRANCH  43  48
BRANCH  40  50
ATOM     50  C35 UNL     1      71.744  64.787 111.537  0.00  0.00    +0.000 C 
BRANCH  50  51
ATOM     51  O12 UNL     1      71.534  64.299 110.240  0.00  0.00    +0.000 OA
ATOM     52  H25 UNL     1      70.699  63.768 110.259  0.00  0.00    +0.000 HD
ENDBRANCH  50  51
ENDBRANCH  40  50
ENDBRANCH  37  38
ENDBRANCH  27  37
ENDBRANCH  15  16
BRANCH  10  53
ATOM     53  O5  UNL     1      69.544  62.280 105.533  0.00  0.00    +0.000 OA
ATOM     54  H9  UNL     1      69.201  61.880 106.395  0.00  0.00    +0.000 HD
ENDBRANCH  10  53
BRANCH  12  55
ATOM     55  C39 UNL     1      72.003  66.163 107.127  0.00  0.00    +0.000 C 
ATOM     56  O17 UNL     1      72.800  67.099 106.848  0.00  0.00    +0.000 OA
BRANCH  55  57
ATOM     57  O16 UNL     1      71.179  66.276 108.244  0.00  0.00    +0.000 OA
ATOM     58  H32 UNL     1      71.518  66.029 109.165  0.00  0.00    +0.000 HD
ENDBRANCH  55  57
ENDBRANCH  12  55
BRANCH   1  59
ATOM     59  O3  UNL     1      71.472  59.928 101.208  0.00  0.00    +0.000 OA
BRANCH  59  62
ATOM     60  C2  UNL     1      69.006  58.510  99.046  0.00  0.00    +0.000 C 
ATOM     61  O2  UNL     1      69.663  58.878 100.256  0.00  0.00    +0.000 OA
ATOM     62  C3  UNL     1      70.702  59.812 100.009  0.00  0.00    +0.000 C 
ATOM     63  C40 UNL     1      70.097  61.194  99.630  0.00  0.00    +0.000 C 
ATOM     64  C41 UNL     1      68.677  61.043  99.029  0.00  0.00    +0.000 C 
ATOM     65  C42 UNL     1      68.585  59.749  98.190  0.00  0.00    +0.000 C 
BRANCH  63  66
ATOM     66  O18 UNL     1      70.936  61.829  98.700  0.00  0.00    +0.000 OA
ATOM     67  H34 UNL     1      71.869  61.674  98.998  0.00  0.00    +0.000 HD
ENDBRANCH  63  66
BRANCH  64  68
ATOM     68  O19 UNL     1      67.733  60.989 100.074  0.00  0.00    +0.000 OA
ATOM     69  H36 UNL     1      66.955  60.459  99.744  0.00  0.00    +0.000 HD
ENDBRANCH  64  68
BRANCH  65  70
ATOM     70  O20 UNL     1      69.434  59.847  97.071  0.00  0.00    +0.000 OA
ATOM     71  H38 UNL     1      70.294  59.412  97.309  0.00  0.00    +0.000 HD
ENDBRANCH  65  70
BRANCH  60  72
ATOM     72  C1  UNL     1      67.785  57.647  99.414  0.00  0.00    +0.000 C 
BRANCH  72  73
ATOM     73  O1  UNL     1      67.491  57.751 100.782  0.00  0.00    +0.000 OA
ATOM     74  H1  UNL     1      68.340  57.580 101.264  0.00  0.00    +0.000 HD
ENDBRANCH  72  73
ENDBRANCH  60  72
ENDBRANCH  59  62
ENDBRANCH   1  59
TORSDOF 21
ENDMDL
MODEL 18
REMARK VINA RESULT:      -7.3      1.532      2.074
REMARK  Name = ./S4018.pdb
REMARK  21 active torsions:
REMARK  status: ('A' for Active; 'I' for Inactive)
REMARK    1  A    between atoms: O1_1  and  C1_2
REMARK    2  A    between atoms: C1_2  and  C2_3
REMARK    3  A    between atoms: C3_5  and  O3_6
REMARK    4  A    between atoms: O3_6  and  C4_7
REMARK    5  A    between atoms: C12_16  and  O5_17
REMARK    6  A    between atoms: C14_19  and  C39_54
REMARK    7  A    between atoms: C17_22  and  C18_23
REMARK    8  A    between atoms: C23_29  and  O7_30
REMARK    9  A    between atoms: C25_32  and  C28_35
REMARK   10  A    between atoms: C28_35  and  O8_36
REMARK   11  A    between atoms: C29_38  and  O10_42
REMARK   12  A    between atoms: O10_42  and  C33_43
REMARK   13  A    between atoms: C34_45  and  C35_46
REMARK   14  A    between atoms: C35_46  and  O12_47
REMARK   15  A    between atoms: C36_48  and  O13_49
REMARK   16  A    between atoms: C37_50  and  O14_51
REMARK   17  A    between atoms: C38_52  and  O15_53
REMARK   18  A    between atoms: C39_54  and  O16_55
REMARK   19  A    between atoms: C40_57  and  O18_58
REMARK   20  A    between atoms: C41_59  and  O19_60
REMARK   21  A    between atoms: C42_61  and  O20_62
REMARK                            x       y       z     vdW  Elec       q    Type
REMARK                         _______ _______ _______ _____ _____    ______ ____
ROOT
ATOM      1  C4  UNL     1      75.803  62.783 109.631  0.00  0.00    +0.000 A 
ATOM      2  C5  UNL     1      76.890  63.673 109.595  0.00  0.00    +0.000 A 
ATOM      3  C6  UNL     1      77.532  63.960 108.395  0.00  0.00    +0.000 A 
ATOM      4  C7  UNL     1      77.062  63.414 107.204  0.00  0.00    +0.000 A 
ATOM      5  C8  UNL     1      75.953  62.557 107.201  0.00  0.00    +0.000 A 
ATOM      6  C9  UNL     1      75.331  62.209 108.420  0.00  0.00    +0.000 A 
ATOM      7  C10 UNL     1      74.193  61.251 108.396  0.00  0.00    +0.000 C 
ATOM      8  O4  UNL     1      73.546  61.033 109.454  0.00  0.00    +0.000 OA
ATOM      9  C11 UNL     1      73.866  60.505 107.144  0.00  0.00    +0.000 A 
ATOM     10  C12 UNL     1      72.953  59.411 107.105  0.00  0.00    +0.000 A 
ATOM     11  C13 UNL     1      72.871  58.610 105.964  0.00  0.00    +0.000 A 
ATOM     12  C14 UNL     1      73.631  58.894 104.826  0.00  0.00    +0.000 A 
ATOM     13  C15 UNL     1      74.468  60.016 104.829  0.00  0.00    +0.000 A 
ATOM     14  C16 UNL     1      74.575  60.833 105.965  0.00  0.00    +0.000 A 
ATOM     15  C17 UNL     1      75.396  62.110 105.865  0.00  0.00    +0.000 C 
ENDROOT
BRANCH  15  16
ATOM     16  C18 UNL     1      74.618  63.285 105.162  0.00  0.00    +0.000 C 
ATOM     17  C19 UNL     1      74.508  63.046 103.665  0.00  0.00    +0.000 A 
ATOM     18  C20 UNL     1      73.314  62.564 103.083  0.00  0.00    +0.000 A 
ATOM     19  C21 UNL     1      72.133  62.385 103.946  0.00  0.00    +0.000 C 
ATOM     20  O6  UNL     1      71.242  61.550 103.631  0.00  0.00    +0.000 OA
ATOM     21  C22 UNL     1      72.064  63.112 105.236  0.00  0.00    +0.000 A 
ATOM     22  C23 UNL     1      70.841  63.338 105.917  0.00  0.00    +0.000 A 
ATOM     23  C24 UNL     1      70.849  63.914 107.193  0.00  0.00    +0.000 A 
ATOM     24  C25 UNL     1      72.042  64.370 107.768  0.00  0.00    +0.000 A 
ATOM     25  C26 UNL     1      73.238  64.229 107.053  0.00  0.00    +0.000 A 
ATOM     26  C27 UNL     1      73.269  63.566 105.815  0.00  0.00    +0.000 A 
ATOM     27  C29 UNL     1      73.269  62.269 101.702  0.00  0.00    +0.000 A 
ATOM     28  C30 UNL     1      74.454  62.394 100.940  0.00  0.00    +0.000 A 
ATOM     29  C31 UNL     1      75.634  62.858 101.524  0.00  0.00    +0.000 A 
ATOM     30  C32 UNL     1      75.658  63.197 102.872  0.00  0.00    +0.000 A 
BRANCH  22  31
ATOM     31  O7  UNL     1      69.598  63.033 105.355  0.00  0.00    +0.000 OA
ATOM     32  H14 UNL     1      69.306  63.357 104.443  0.00  0.00    +0.000 HD
ENDBRANCH  22  31
BRANCH  24  33
ATOM     33  C28 UNL     1      72.043  64.979 109.119  0.00  0.00    +0.000 C 
ATOM     34  O9  UNL     1      72.369  66.190 109.283  0.00  0.00    +0.000 OA
BRANCH  33  35
ATOM     35  O8  UNL     1      71.690  64.218 110.230  0.00  0.00    +0.000 OA
ATOM     36  H17 UNL     1      71.772  64.587 111.166  0.00  0.00    +0.000 HD
ENDBRANCH  33  35
ENDBRANCH  24  33
BRANCH  27  37
ATOM     37  O10 UNL     1      72.046  61.861 101.122  0.00  0.00    +0.000 OA
BRANCH  37  38
ATOM     38  C33 UNL     1      71.875  60.995  99.991  0.00  0.00    +0.000 C 
ATOM     39  O11 UNL     1      71.196  59.809 100.392  0.00  0.00    +0.000 OA
ATOM     40  C34 UNL     1      70.713  58.964  99.342  0.00  0.00    +0.000 C 
ATOM     41  C36 UNL     1      70.929  59.466  97.895  0.00  0.00    +0.000 C 
ATOM     42  C37 UNL     1      70.430  60.926  97.831  0.00  0.00    +0.000 C 
ATOM     43  C38 UNL     1      71.178  61.815  98.857  0.00  0.00    +0.000 C 
BRANCH  41  44
ATOM     44  O13 UNL     1      72.293  59.384  97.542  0.00  0.00    +0.000 OA
ATOM     45  H27 UNL     1      72.809  59.350  98.384  0.00  0.00    +0.000 HD
ENDBRANCH  41  44
BRANCH  42  46
ATOM     46  O14 UNL     1      70.480  61.462  96.528  0.00  0.00    +0.000 OA
ATOM     47  H29 UNL     1      70.975  60.845  95.937  0.00  0.00    +0.000 HD
ENDBRANCH  42  46
BRANCH  43  48
ATOM     48  O15 UNL     1      72.121  62.652  98.228  0.00  0.00    +0.000 OA
ATOM     49  H31 UNL     1      71.889  63.602  98.433  0.00  0.00    +0.000 HD
ENDBRANCH  43  48
BRANCH  40  50
ATOM     50  C35 UNL     1      71.243  57.531  99.526  0.00  0.00    +0.000 C 
BRANCH  50  51
ATOM     51  O12 UNL     1      72.622  57.546  99.783  0.00  0.00    +0.000 OA
ATOM     52  H25 UNL     1      73.082  57.583  98.907  0.00  0.00    +0.000 HD
ENDBRANCH  50  51
ENDBRANCH  40  50
ENDBRANCH  37  38
ENDBRANCH  27  37
ENDBRANCH  15  16
BRANCH  10  53
ATOM     53  O5  UNL     1      72.096  59.090 108.155  0.00  0.00    +0.000 OA
ATOM     54  H9  UNL     1      71.990  59.651 108.989  0.00  0.00    +0.000 HD
ENDBRANCH  10  53
BRANCH  12  55
ATOM     55  C39 UNL     1      73.533  58.033 103.629  0.00  0.00    +0.000 C 
ATOM     56  O17 UNL     1      73.982  56.856 103.655  0.00  0.00    +0.000 OA
BRANCH  55  57
ATOM     57  O16 UNL     1      72.943  58.515 102.463  0.00  0.00    +0.000 OA
ATOM     58  H32 UNL     1      72.479  57.888 101.819  0.00  0.00    +0.000 HD
ENDBRANCH  55  57
ENDBRANCH  12  55
BRANCH   1  59
ATOM     59  O3  UNL     1      75.173  62.445 110.842  0.00  0.00    +0.000 OA
BRANCH  59  62
ATOM     60  C2  UNL     1      74.216  65.137 112.987  0.00  0.00    +0.000 C 
ATOM     61  O2  UNL     1      74.132  64.175 111.939  0.00  0.00    +0.000 OA
ATOM     62  C3  UNL     1      75.161  63.205 112.053  0.00  0.00    +0.000 C 
ATOM     63  C40 UNL     1      74.881  62.270 113.265  0.00  0.00    +0.000 C 
ATOM     64  C41 UNL     1      73.999  62.973 114.327  0.00  0.00    +0.000 C 
ATOM     65  C42 UNL     1      74.343  64.477 114.400  0.00  0.00    +0.000 C 
BRANCH  63  66
ATOM     66  O18 UNL     1      76.100  61.885 113.846  0.00  0.00    +0.000 OA
ATOM     67  H34 UNL     1      76.237  62.463 114.641  0.00  0.00    +0.000 HD
ENDBRANCH  63  66
BRANCH  64  68
ATOM     68  O19 UNL     1      72.642  62.821 113.980  0.00  0.00    +0.000 OA
ATOM     69  H36 UNL     1      72.609  62.291 113.136  0.00  0.00    +0.000 HD
ENDBRANCH  64  68
BRANCH  65  70
ATOM     70  O20 UNL     1      75.660  64.641 114.869  0.00  0.00    +0.000 OA
ATOM     71  H38 UNL     1      75.854  63.888 115.485  0.00  0.00    +0.000 HD
ENDBRANCH  65  70
BRANCH  60  72
ATOM     72  C1  UNL     1      72.970  66.038 112.904  0.00  0.00    +0.000 C 
BRANCH  72  73
ATOM     73  O1  UNL     1      72.548  66.431 114.184  0.00  0.00    +0.000 OA
ATOM     74  H1  UNL     1      72.605  67.420 114.203  0.00  0.00    +0.000 HD
ENDBRANCH  72  73
ENDBRANCH  60  72
ENDBRANCH  59  62
ENDBRANCH   1  59
TORSDOF 21
ENDMDL
MODEL 19
REMARK VINA RESULT:      -7.2      2.390     10.516
REMARK  Name = ./S4018.pdb
REMARK  21 active torsions:
REMARK  status: ('A' for Active; 'I' for Inactive)
REMARK    1  A    between atoms: O1_1  and  C1_2
REMARK    2  A    between atoms: C1_2  and  C2_3
REMARK    3  A    between atoms: C3_5  and  O3_6
REMARK    4  A    between atoms: O3_6  and  C4_7
REMARK    5  A    between atoms: C12_16  and  O5_17
REMARK    6  A    between atoms: C14_19  and  C39_54
REMARK    7  A    between atoms: C17_22  and  C18_23
REMARK    8  A    between atoms: C23_29  and  O7_30
REMARK    9  A    between atoms: C25_32  and  C28_35
REMARK   10  A    between atoms: C28_35  and  O8_36
REMARK   11  A    between atoms: C29_38  and  O10_42
REMARK   12  A    between atoms: O10_42  and  C33_43
REMARK   13  A    between atoms: C34_45  and  C35_46
REMARK   14  A    between atoms: C35_46  and  O12_47
REMARK   15  A    between atoms: C36_48  and  O13_49
REMARK   16  A    between atoms: C37_50  and  O14_51
REMARK   17  A    between atoms: C38_52  and  O15_53
REMARK   18  A    between atoms: C39_54  and  O16_55
REMARK   19  A    between atoms: C40_57  and  O18_58
REMARK   20  A    between atoms: C41_59  and  O19_60
REMARK   21  A    between atoms: C42_61  and  O20_62
REMARK                            x       y       z     vdW  Elec       q    Type
REMARK                         _______ _______ _______ _____ _____    ______ ____
ROOT
ATOM      1  C4  UNL     1      72.908  61.205 101.269  0.00  0.00    +0.000 A 
ATOM      2  C5  UNL     1      73.963  61.414 100.365  0.00  0.00    +0.000 A 
ATOM      3  C6  UNL     1      74.904  62.413 100.592  0.00  0.00    +0.000 A 
ATOM      4  C7  UNL     1      74.844  63.177 101.754  0.00  0.00    +0.000 A 
ATOM      5  C8  UNL     1      73.829  62.963 102.697  0.00  0.00    +0.000 A 
ATOM      6  C9  UNL     1      72.832  61.993 102.448  0.00  0.00    +0.000 A 
ATOM      7  C10 UNL     1      71.733  61.827 103.436  0.00  0.00    +0.000 C 
ATOM      8  O4  UNL     1      70.913  60.881 103.295  0.00  0.00    +0.000 OA
ATOM      9  C11 UNL     1      71.565  62.812 104.546  0.00  0.00    +0.000 A 
ATOM     10  C12 UNL     1      70.412  62.854 105.382  0.00  0.00    +0.000 A 
ATOM     11  C13 UNL     1      70.208  63.939 106.238  0.00  0.00    +0.000 A 
ATOM     12  C14 UNL     1      71.149  64.969 106.336  0.00  0.00    +0.000 A 
ATOM     13  C15 UNL     1      72.323  64.891 105.578  0.00  0.00    +0.000 A 
ATOM     14  C16 UNL     1      72.548  63.817 104.704  0.00  0.00    +0.000 A 
ATOM     15  C17 UNL     1      73.898  63.718 104.008  0.00  0.00    +0.000 C 
ENDROOT
BRANCH  15  16
ATOM     16  C18 UNL     1      75.024  63.128 104.936  0.00  0.00    +0.000 C 
ATOM     17  C19 UNL     1      75.979  64.219 105.394  0.00  0.00    +0.000 A 
ATOM     18  C20 UNL     1      75.891  64.777 106.689  0.00  0.00    +0.000 A 
ATOM     19  C21 UNL     1      74.909  64.214 107.632  0.00  0.00    +0.000 C 
ATOM     20  O6  UNL     1      74.452  64.925 108.568  0.00  0.00    +0.000 OA
ATOM     21  C22 UNL     1      74.385  62.846 107.400  0.00  0.00    +0.000 A 
ATOM     22  C23 UNL     1      73.788  62.075 108.429  0.00  0.00    +0.000 A 
ATOM     23  C24 UNL     1      73.194  60.844 108.124  0.00  0.00    +0.000 A 
ATOM     24  C25 UNL     1      73.271  60.310 106.831  0.00  0.00    +0.000 A 
ATOM     25  C26 UNL     1      73.943  61.032 105.836  0.00  0.00    +0.000 A 
ATOM     26  C27 UNL     1      74.460  62.313 106.095  0.00  0.00    +0.000 A 
ATOM     27  C29 UNL     1      76.734  65.848 107.057  0.00  0.00    +0.000 A 
ATOM     28  C30 UNL     1      77.606  66.393 106.086  0.00  0.00    +0.000 A 
ATOM     29  C31 UNL     1      77.680  65.845 104.803  0.00  0.00    +0.000 A 
ATOM     30  C32 UNL     1      76.885  64.756 104.465  0.00  0.00    +0.000 A 
BRANCH  22  31
ATOM     31  O7  UNL     1      73.787  62.477 109.767  0.00  0.00    +0.000 OA
ATOM     32  H14 UNL     1      73.365  61.937 110.510  0.00  0.00    +0.000 HD
ENDBRANCH  22  31
BRANCH  24  33
ATOM     33  C28 UNL     1      72.641  59.006 106.515  0.00  0.00    +0.000 C 
ATOM     34  O9  UNL     1      72.781  58.016 107.288  0.00  0.00    +0.000 OA
BRANCH  33  35
ATOM     35  O8  UNL     1      71.890  58.856 105.352  0.00  0.00    +0.000 OA
ATOM     36  H17 UNL     1      72.323  58.886 104.441  0.00  0.00    +0.000 HD
ENDBRANCH  33  35
ENDBRANCH  24  33
BRANCH  27  37
ATOM     37  O10 UNL     1      76.685  66.345 108.379  0.00  0.00    +0.000 OA
BRANCH  37  38
ATOM     38  C33 UNL     1      76.442  67.700 108.784  0.00  0.00    +0.000 C 
ATOM     39  O11 UNL     1      77.592  68.495 108.514  0.00  0.00    +0.000 OA
ATOM     40  C34 UNL     1      77.423  69.914 108.611  0.00  0.00    +0.000 C 
ATOM     41  C36 UNL     1      75.999  70.421 108.936  0.00  0.00    +0.000 C 
ATOM     42  C37 UNL     1      75.023  69.719 107.966  0.00  0.00    +0.000 C 
ATOM     43  C38 UNL     1      75.121  68.177 108.099  0.00  0.00    +0.000 C 
BRANCH  41  44
ATOM     44  O13 UNL     1      75.667  70.135 110.278  0.00  0.00    +0.000 OA
ATOM     45  H27 UNL     1      76.382  69.555 110.636  0.00  0.00    +0.000 HD
ENDBRANCH  41  44
BRANCH  42  46
ATOM     46  O14 UNL     1      73.698  70.180 108.097  0.00  0.00    +0.000 OA
ATOM     47  H29 UNL     1      73.705  71.130 108.368  0.00  0.00    +0.000 HD
ENDBRANCH  42  46
BRANCH  43  48
ATOM     48  O15 UNL     1      74.011  67.645 108.783  0.00  0.00    +0.000 OA
ATOM     49  H31 UNL     1      73.619  66.910 108.231  0.00  0.00    +0.000 HD
ENDBRANCH  43  48
BRANCH  40  50
ATOM     50  C35 UNL     1      78.466  70.509 109.574  0.00  0.00    +0.000 C 
BRANCH  50  51
ATOM     51  O12 UNL     1      78.360  69.917 110.840  0.00  0.00    +0.000 OA
ATOM     52  H25 UNL     1      78.078  70.625 111.471  0.00  0.00    +0.000 HD
ENDBRANCH  50  51
ENDBRANCH  40  50
ENDBRANCH  37  38
ENDBRANCH  27  37
ENDBRANCH  15  16
BRANCH  10  53
ATOM     53  O5  UNL     1      69.454  61.843 105.419  0.00  0.00    +0.000 OA
ATOM     54  H9  UNL     1      68.876  61.585 104.630  0.00  0.00    +0.000 HD
ENDBRANCH  10  53
BRANCH  12  55
ATOM     55  C39 UNL     1      70.915  66.109 107.245  0.00  0.00    +0.000 C 
ATOM     56  O17 UNL     1      71.786  67.012 107.367  0.00  0.00    +0.000 OA
BRANCH  55  57
ATOM     57  O16 UNL     1      69.732  66.197 107.974  0.00  0.00    +0.000 OA
ATOM     58  H32 UNL     1      68.941  66.720 107.620  0.00  0.00    +0.000 HD
ENDBRANCH  55  57
ENDBRANCH  12  55
BRANCH   1  59
ATOM     59  O3  UNL     1      71.921  60.231 101.030  0.00  0.00    +0.000 OA
BRANCH  59  62
ATOM     60  C2  UNL     1      70.480  61.265  97.929  0.00  0.00    +0.000 C 
ATOM     61  O2  UNL     1      71.474  61.032  98.923  0.00  0.00    +0.000 OA
ATOM     62  C3  UNL     1      70.974  60.203  99.960  0.00  0.00    +0.000 C 
ATOM     63  C40 UNL     1      70.801  58.746  99.442  0.00  0.00    +0.000 C 
ATOM     64  C41 UNL     1      70.605  58.713  97.905  0.00  0.00    +0.000 C 
ATOM     65  C42 UNL     1      69.795  59.945  97.441  0.00  0.00    +0.000 C 
BRANCH  63  66
ATOM     66  O18 UNL     1      69.692  58.157 100.069  0.00  0.00    +0.000 OA
ATOM     67  H34 UNL     1      69.296  57.520  99.420  0.00  0.00    +0.000 HD
ENDBRANCH  63  66
BRANCH  64  68
ATOM     68  O19 UNL     1      71.865  58.719  97.274  0.00  0.00    +0.000 OA
ATOM     69  H36 UNL     1      72.002  57.815  96.875  0.00  0.00    +0.000 HD
ENDBRANCH  64  68
BRANCH  65  70
ATOM     70  O20 UNL     1      68.491  59.881  97.966  0.00  0.00    +0.000 OA
ATOM     71  H38 UNL     1      68.208  60.808  98.178  0.00  0.00    +0.000 HD
ENDBRANCH  65  70
BRANCH  60  72
ATOM     72  C1  UNL     1      71.147  62.010  96.758  0.00  0.00    +0.000 C 
BRANCH  72  73
ATOM     73  O1  UNL     1      71.343  61.153  95.664  0.00  0.00    +0.000 OA
ATOM     74  H1  UNL     1      71.740  61.708  94.944  0.00  0.00    +0.000 HD
ENDBRANCH  72  73
ENDBRANCH  60  72
ENDBRANCH  59  62
ENDBRANCH   1  59
TORSDOF 21
ENDMDL
MODEL 20
REMARK VINA RESULT:      -7.2      1.820     10.780
REMARK  Name = ./S4018.pdb
REMARK  21 active torsions:
REMARK  status: ('A' for Active; 'I' for Inactive)
REMARK    1  A    between atoms: O1_1  and  C1_2
REMARK    2  A    between atoms: C1_2  and  C2_3
REMARK    3  A    between atoms: C3_5  and  O3_6
REMARK    4  A    between atoms: O3_6  and  C4_7
REMARK    5  A    between atoms: C12_16  and  O5_17
REMARK    6  A    between atoms: C14_19  and  C39_54
REMARK    7  A    between atoms: C17_22  and  C18_23
REMARK    8  A    between atoms: C23_29  and  O7_30
REMARK    9  A    between atoms: C25_32  and  C28_35
REMARK   10  A    between atoms: C28_35  and  O8_36
REMARK   11  A    between atoms: C29_38  and  O10_42
REMARK   12  A    between atoms: O10_42  and  C33_43
REMARK   13  A    between atoms: C34_45  and  C35_46
REMARK   14  A    between atoms: C35_46  and  O12_47
REMARK   15  A    between atoms: C36_48  and  O13_49
REMARK   16  A    between atoms: C37_50  and  O14_51
REMARK   17  A    between atoms: C38_52  and  O15_53
REMARK   18  A    between atoms: C39_54  and  O16_55
REMARK   19  A    between atoms: C40_57  and  O18_58
REMARK   20  A    between atoms: C41_59  and  O19_60
REMARK   21  A    between atoms: C42_61  and  O20_62
REMARK                            x       y       z     vdW  Elec       q    Type
REMARK                         _______ _______ _______ _____ _____    ______ ____
ROOT
ATOM      1  C4  UNL     1      72.890  61.150 101.600  0.00  0.00    +0.000 A 
ATOM      2  C5  UNL     1      74.045  61.248 100.806  0.00  0.00    +0.000 A 
ATOM      3  C6  UNL     1      75.098  62.073 101.186  0.00  0.00    +0.000 A 
ATOM      4  C7  UNL     1      75.043  62.765 102.393  0.00  0.00    +0.000 A 
ATOM      5  C8  UNL     1      73.923  62.653 103.228  0.00  0.00    +0.000 A 
ATOM      6  C9  UNL     1      72.821  61.866 102.824  0.00  0.00    +0.000 A 
ATOM      7  C10 UNL     1      71.621  61.811 103.701  0.00  0.00    +0.000 C 
ATOM      8  O4  UNL     1      70.687  61.015 103.421  0.00  0.00    +0.000 OA
ATOM      9  C11 UNL     1      71.496  62.742 104.863  0.00  0.00    +0.000 A 
ATOM     10  C12 UNL     1      70.288  62.910 105.600  0.00  0.00    +0.000 A 
ATOM     11  C13 UNL     1      70.168  63.959 106.514  0.00  0.00    +0.000 A 
ATOM     12  C14 UNL     1      71.237  64.823 106.768  0.00  0.00    +0.000 A 
ATOM     13  C15 UNL     1      72.454  64.611 106.109  0.00  0.00    +0.000 A 
ATOM     14  C16 UNL     1      72.599  63.570 105.178  0.00  0.00    +0.000 A 
ATOM     15  C17 UNL     1      73.978  63.307 104.594  0.00  0.00    +0.000 C 
ENDROOT
BRANCH  15  16
ATOM     16  C18 UNL     1      74.912  62.493 105.566  0.00  0.00    +0.000 C 
ATOM     17  C19 UNL     1      75.417  63.374 106.698  0.00  0.00    +0.000 A 
ATOM     18  C20 UNL     1      74.846  63.313 107.988  0.00  0.00    +0.000 A 
ATOM     19  C21 UNL     1      73.804  62.304 108.249  0.00  0.00    +0.000 C 
ATOM     20  O6  UNL     1      72.952  62.497 109.160  0.00  0.00    +0.000 OA
ATOM     21  C22 UNL     1      73.703  61.122 107.360  0.00  0.00    +0.000 A 
ATOM     22  C23 UNL     1      73.045  59.929 107.752  0.00  0.00    +0.000 A 
ATOM     23  C24 UNL     1      72.866  58.894 106.825  0.00  0.00    +0.000 A 
ATOM     24  C25 UNL     1      73.421  58.975 105.542  0.00  0.00    +0.000 A 
ATOM     25  C26 UNL     1      74.150  60.117 105.187  0.00  0.00    +0.000 A 
ATOM     26  C27 UNL     1      74.259  61.209 106.065  0.00  0.00    +0.000 A 
ATOM     27  C29 UNL     1      75.277  64.203 108.996  0.00  0.00    +0.000 A 
ATOM     28  C30 UNL     1      76.229  65.195 108.666  0.00  0.00    +0.000 A 
ATOM     29  C31 UNL     1      76.782  65.259 107.385  0.00  0.00    +0.000 A 
ATOM     30  C32 UNL     1      76.391  64.345 106.412  0.00  0.00    +0.000 A 
BRANCH  22  31
ATOM     31  O7  UNL     1      72.580  59.718 109.053  0.00  0.00    +0.000 OA
ATOM     32  H14 UNL     1      72.960  59.016 109.672  0.00  0.00    +0.000 HD
ENDBRANCH  22  31
BRANCH  24  33
ATOM     33  C28 UNL     1      73.228  57.875 104.567  0.00  0.00    +0.000 C 
ATOM     34  O9  UNL     1      73.355  56.668 104.920  0.00  0.00    +0.000 OA
BRANCH  33  35
ATOM     35  O8  UNL     1      72.912  58.163 103.242  0.00  0.00    +0.000 OA
ATOM     36  H17 UNL     1      72.687  59.102 102.948  0.00  0.00    +0.000 HD
ENDBRANCH  33  35
ENDBRANCH  24  33
BRANCH  27  37
ATOM     37  O10 UNL     1      74.750  64.078 110.302  0.00  0.00    +0.000 OA
BRANCH  37  38
ATOM     38  C33 UNL     1      75.277  63.281 111.372  0.00  0.00    +0.000 C 
ATOM     39  O11 UNL     1      76.669  63.061 111.167  0.00  0.00    +0.000 OA
ATOM     40  C34 UNL     1      77.397  62.513 112.272  0.00  0.00    +0.000 C 
ATOM     41  C36 UNL     1      76.603  62.281 113.578  0.00  0.00    +0.000 C 
ATOM     42  C37 UNL     1      75.836  63.583 113.893  0.00  0.00    +0.000 C 
ATOM     43  C38 UNL     1      74.899  63.974 112.721  0.00  0.00    +0.000 C 
BRANCH  41  44
ATOM     44  O13 UNL     1      75.712  61.196 113.428  0.00  0.00    +0.000 OA
ATOM     45  H27 UNL     1      75.827  60.616 114.220  0.00  0.00    +0.000 HD
ENDBRANCH  41  44
BRANCH  42  46
ATOM     46  O14 UNL     1      75.151  63.530 115.124  0.00  0.00    +0.000 OA
ATOM     47  H29 UNL     1      74.907  64.444 115.405  0.00  0.00    +0.000 HD
ENDBRANCH  42  46
BRANCH  43  48
ATOM     48  O15 UNL     1      73.549  63.713 113.027  0.00  0.00    +0.000 OA
ATOM     49  H31 UNL     1      73.477  62.778 113.375  0.00  0.00    +0.000 HD
ENDBRANCH  43  48
BRANCH  40  50
ATOM     50  C35 UNL     1      78.148  61.242 111.835  0.00  0.00    +0.000 C 
BRANCH  50  51
ATOM     51  O12 UNL     1      78.500  60.471 112.953  0.00  0.00    +0.000 OA
ATOM     52  H25 UNL     1      78.436  59.521 112.684  0.00  0.00    +0.000 HD
ENDBRANCH  50  51
ENDBRANCH  40  50
ENDBRANCH  37  38
ENDBRANCH  27  37
ENDBRANCH  15  16
BRANCH  10  53
ATOM     53  O5  UNL     1      69.192  62.059 105.480  0.00  0.00    +0.000 OA
ATOM     54  H9  UNL     1      68.499  62.132 104.747  0.00  0.00    +0.000 HD
ENDBRANCH  10  53
BRANCH  12  55
ATOM     55  C39 UNL     1      71.091  65.928 107.737  0.00  0.00    +0.000 C 
ATOM     56  O17 UNL     1      72.106  66.412 108.306  0.00  0.00    +0.000 OA
BRANCH  55  57
ATOM     57  O16 UNL     1      69.831  66.445 108.030  0.00  0.00    +0.000 OA
ATOM     58  H32 UNL     1      69.689  67.039 108.836  0.00  0.00    +0.000 HD
ENDBRANCH  55  57
ENDBRANCH  12  55
BRANCH   1  59
ATOM     59  O3  UNL     1      71.797  60.357 101.207  0.00  0.00    +0.000 OA
BRANCH  59  62
ATOM     60  C2  UNL     1      70.732  61.617  98.038  0.00  0.00    +0.000 C 
ATOM     61  O2  UNL     1      71.597  61.081  99.035  0.00  0.00    +0.000 OA
ATOM     62  C3  UNL     1      70.861  60.629 100.160  0.00  0.00    +0.000 C 
ATOM     63  C40 UNL     1      70.075  59.336  99.800  0.00  0.00    +0.000 C 
ATOM     64  C41 UNL     1      69.795  59.252  98.278  0.00  0.00    +0.000 C 
ATOM     65  C42 UNL     1      69.538  60.663  97.702  0.00  0.00    +0.000 C 
BRANCH  63  66
ATOM     66  O18 UNL     1      68.860  59.319 100.503  0.00  0.00    +0.000 OA
ATOM     67  H34 UNL     1      68.253  58.702 100.017  0.00  0.00    +0.000 HD
ENDBRANCH  63  66
BRANCH  64  68
ATOM     68  O19 UNL     1      70.907  58.679  97.630  0.00  0.00    +0.000 OA
ATOM     69  H36 UNL     1      71.381  58.112  98.300  0.00  0.00    +0.000 HD
ENDBRANCH  64  68
BRANCH  65  70
ATOM     70  O20 UNL     1      68.355  61.193  98.251  0.00  0.00    +0.000 OA
ATOM     71  H38 UNL     1      68.538  61.411  99.202  0.00  0.00    +0.000 HD
ENDBRANCH  65  70
BRANCH  60  72
ATOM     72  C1  UNL     1      71.577  61.912  96.785  0.00  0.00    +0.000 C 
BRANCH  72  73
ATOM     73  O1  UNL     1      71.196  61.086  95.716  0.00  0.00    +0.000 OA
ATOM     74  H1  UNL     1      71.291  60.153  96.038  0.00  0.00    +0.000 HD
ENDBRANCH  72  73
ENDBRANCH  60  72
ENDBRANCH  59  62
ENDBRANCH   1  59
TORSDOF 21
ENDMDL
