MODEL 1
REMARK VINA RESULT:      -6.2      0.000      0.000
REMARK  Name = ./S4064.pdb
REMARK  8 active torsions:
REMARK  status: ('A' for Active; 'I' for Inactive)
REMARK    1  A    between atoms: C1_1  and  N1_2
REMARK    2  A    between atoms: N1_2  and  C2_3
REMARK    3  A    between atoms: N1_2  and  C3_4
REMARK    4  A    between atoms: C3_4  and  C4_5
REMARK    5  A    between atoms: C4_5  and  C5_6
REMARK    6  A    between atoms: C5_6  and  C6_7
REMARK    7  A    between atoms: C6_7  and  C15_18
REMARK    8  A    between atoms: C10_12  and  C14_16
REMARK                            x       y       z     vdW  Elec       q    Type
REMARK                         _______ _______ _______ _____ _____    ______ ____
ROOT
ATOM      1  C6  UNL     1      62.808  58.664 106.041  0.00  0.00    +0.000 C 
ATOM      2  O1  UNL     1      61.920  59.693 106.484  0.00  0.00    +0.000 OA
ATOM      3  C7  UNL     1      62.402  60.217 107.714  0.00  0.00    +0.000 C 
ATOM      4  C8  UNL     1      63.631  59.482 108.044  0.00  0.00    +0.000 A 
ATOM      5  C9  UNL     1      64.474  59.636 109.145  0.00  0.00    +0.000 A 
ATOM      6  C10 UNL     1      65.613  58.815 109.234  0.00  0.00    +0.000 A 
ATOM      7  C11 UNL     1      65.880  57.870 108.220  0.00  0.00    +0.000 A 
ATOM      8  C12 UNL     1      65.008  57.748 107.125  0.00  0.00    +0.000 A 
ATOM      9  C13 UNL     1      63.880  58.575 107.072  0.00  0.00    +0.000 A 
ENDROOT
BRANCH   1  10
ATOM     10  C15 UNL     1      62.067  57.325 105.960  0.00  0.00    +0.000 A 
ATOM     11  C16 UNL     1      62.286  56.451 104.873  0.00  0.00    +0.000 A 
ATOM     12  C17 UNL     1      61.588  55.243 104.776  0.00  0.00    +0.000 A 
ATOM     13  C18 UNL     1      60.651  54.893 105.749  0.00  0.00    +0.000 A 
ATOM     14  F1  UNL     1      59.974  53.722 105.650  0.00  0.00    +0.000 F 
ATOM     15  C19 UNL     1      60.402  55.757 106.816  0.00  0.00    +0.000 A 
ATOM     16  C20 UNL     1      61.094  56.966 106.919  0.00  0.00    +0.000 A 
ENDBRANCH   1  10
BRANCH   6  17
ATOM     17  C14 UNL     1      66.507  58.942 110.354  0.00  0.00    +0.000 C 
ATOM     18  N2  UNL     1      67.226  59.043 111.256  0.00  0.00    +0.000 NA
ENDBRANCH   6  17
BRANCH   1  19
ATOM     19  C5  UNL     1      63.416  59.115 104.687  0.00  0.00    +0.000 C 
BRANCH  19  20
ATOM     20  C4  UNL     1      62.510  60.103 103.929  0.00  0.00    +0.000 C 
BRANCH  20  21
ATOM     21  C3  UNL     1      61.830  59.447 102.718  0.00  0.00    +0.000 C 
BRANCH  21  23
ATOM     22  C1  UNL     1      63.482  60.604 101.383  0.00  0.00    +0.000 C 
ATOM     23  N1  UNL     1      62.747  59.341 101.560  0.00  0.00    +0.000 NA
ATOM     24  C2  UNL     1      62.010  59.027 100.322  0.00  0.00    +0.000 C 
ENDBRANCH  21  23
ENDBRANCH  20  21
ENDBRANCH  19  20
ENDBRANCH   1  19
TORSDOF 6
ENDMDL
MODEL 2
REMARK VINA RESULT:      -6.0      3.174      5.480
REMARK  Name = ./S4064.pdb
REMARK  8 active torsions:
REMARK  status: ('A' for Active; 'I' for Inactive)
REMARK    1  A    between atoms: C1_1  and  N1_2
REMARK    2  A    between atoms: N1_2  and  C2_3
REMARK    3  A    between atoms: N1_2  and  C3_4
REMARK    4  A    between atoms: C3_4  and  C4_5
REMARK    5  A    between atoms: C4_5  and  C5_6
REMARK    6  A    between atoms: C5_6  and  C6_7
REMARK    7  A    between atoms: C6_7  and  C15_18
REMARK    8  A    between atoms: C10_12  and  C14_16
REMARK                            x       y       z     vdW  Elec       q    Type
REMARK                         _______ _______ _______ _____ _____    ______ ____
ROOT
ATOM      1  C6  UNL     1      63.383  58.341 105.662  0.00  0.00    +0.000 C 
ATOM      2  O1  UNL     1      64.059  57.736 104.557  0.00  0.00    +0.000 OA
ATOM      3  C7  UNL     1      63.398  56.522 104.225  0.00  0.00    +0.000 C 
ATOM      4  C8  UNL     1      62.277  56.371 105.162  0.00  0.00    +0.000 A 
ATOM      5  C9  UNL     1      61.330  55.349 105.237  0.00  0.00    +0.000 A 
ATOM      6  C10 UNL     1      60.330  55.435 106.223  0.00  0.00    +0.000 A 
ATOM      7  C11 UNL     1      60.302  56.540 107.100  0.00  0.00    +0.000 A 
ATOM      8  C12 UNL     1      61.271  57.550 106.991  0.00  0.00    +0.000 A 
ATOM      9  C13 UNL     1      62.256  57.429 106.003  0.00  0.00    +0.000 A 
ENDROOT
BRANCH   1  10
ATOM     10  C15 UNL     1      64.329  58.452 106.863  0.00  0.00    +0.000 A 
ATOM     11  C16 UNL     1      64.192  59.512 107.786  0.00  0.00    +0.000 A 
ATOM     12  C17 UNL     1      65.073  59.638 108.865  0.00  0.00    +0.000 A 
ATOM     13  C18 UNL     1      66.113  58.723 109.033  0.00  0.00    +0.000 A 
ATOM     14  F1  UNL     1      66.967  58.850 110.079  0.00  0.00    +0.000 F 
ATOM     15  C19 UNL     1      66.281  57.686 108.116  0.00  0.00    +0.000 A 
ATOM     16  C20 UNL     1      65.406  57.554 107.035  0.00  0.00    +0.000 A 
ENDBRANCH   1  10
BRANCH   6  17
ATOM     17  C14 UNL     1      59.336  54.400 106.333  0.00  0.00    +0.000 C 
ATOM     18  N2  UNL     1      58.537  53.567 106.422  0.00  0.00    +0.000 NA
ENDBRANCH   6  17
BRANCH   1  19
ATOM     19  C5  UNL     1      62.828  59.710 105.186  0.00  0.00    +0.000 C 
BRANCH  19  20
ATOM     20  C4  UNL     1      63.156  60.001 103.709  0.00  0.00    +0.000 C 
BRANCH  20  21
ATOM     21  C3  UNL     1      61.999  59.613 102.776  0.00  0.00    +0.000 C 
BRANCH  21  23
ATOM     22  C1  UNL     1      62.767  58.308 100.891  0.00  0.00    +0.000 C 
ATOM     23  N1  UNL     1      62.399  59.656 101.352  0.00  0.00    +0.000 NA
ATOM     24  C2  UNL     1      63.537  60.571 101.144  0.00  0.00    +0.000 C 
ENDBRANCH  21  23
ENDBRANCH  20  21
ENDBRANCH  19  20
ENDBRANCH   1  19
TORSDOF 6
ENDMDL
MODEL 3
REMARK VINA RESULT:      -5.9      3.447      5.268
REMARK  Name = ./S4064.pdb
REMARK  8 active torsions:
REMARK  status: ('A' for Active; 'I' for Inactive)
REMARK    1  A    between atoms: C1_1  and  N1_2
REMARK    2  A    between atoms: N1_2  and  C2_3
REMARK    3  A    between atoms: N1_2  and  C3_4
REMARK    4  A    between atoms: C3_4  and  C4_5
REMARK    5  A    between atoms: C4_5  and  C5_6
REMARK    6  A    between atoms: C5_6  and  C6_7
REMARK    7  A    between atoms: C6_7  and  C15_18
REMARK    8  A    between atoms: C10_12  and  C14_16
REMARK                            x       y       z     vdW  Elec       q    Type
REMARK                         _______ _______ _______ _____ _____    ______ ____
ROOT
ATOM      1  C6  UNL     1      62.211  58.175 103.411  0.00  0.00    +0.000 C 
ATOM      2  O1  UNL     1      62.027  56.773 103.205  0.00  0.00    +0.000 OA
ATOM      3  C7  UNL     1      62.363  56.085 104.403  0.00  0.00    +0.000 C 
ATOM      4  C8  UNL     1      62.774  57.101 105.382  0.00  0.00    +0.000 A 
ATOM      5  C9  UNL     1      63.187  56.926 106.704  0.00  0.00    +0.000 A 
ATOM      6  C10 UNL     1      63.518  58.067 107.457  0.00  0.00    +0.000 A 
ATOM      7  C11 UNL     1      63.423  59.348 106.871  0.00  0.00    +0.000 A 
ATOM      8  C12 UNL     1      63.001  59.482 105.538  0.00  0.00    +0.000 A 
ATOM      9  C13 UNL     1      62.686  58.325 104.816  0.00  0.00    +0.000 A 
ENDROOT
BRANCH   1  10
ATOM     10  C15 UNL     1      63.280  58.714 102.453  0.00  0.00    +0.000 A 
ATOM     11  C16 UNL     1      63.123  59.978 101.844  0.00  0.00    +0.000 A 
ATOM     12  C17 UNL     1      64.077  60.461 100.944  0.00  0.00    +0.000 A 
ATOM     13  C18 UNL     1      65.193  59.688 100.621  0.00  0.00    +0.000 A 
ATOM     14  F1  UNL     1      66.115  60.158  99.746  0.00  0.00    +0.000 F 
ATOM     15  C19 UNL     1      65.352  58.425 101.193  0.00  0.00    +0.000 A 
ATOM     16  C20 UNL     1      64.402  57.935 102.092  0.00  0.00    +0.000 A 
ENDBRANCH   1  10
BRANCH   6  17
ATOM     17  C14 UNL     1      63.949  57.929 108.822  0.00  0.00    +0.000 C 
ATOM     18  N2  UNL     1      64.296  57.817 109.922  0.00  0.00    +0.000 NA
ENDBRANCH   6  17
BRANCH   1  19
ATOM     19  C5  UNL     1      60.831  58.864 103.245  0.00  0.00    +0.000 C 
BRANCH  19  20
ATOM     20  C4  UNL     1      59.800  57.962 102.540  0.00  0.00    +0.000 C 
BRANCH  20  21
ATOM     21  C3  UNL     1      58.633  57.590 103.468  0.00  0.00    +0.000 C 
BRANCH  21  23
ATOM     22  C1  UNL     1      57.068  55.946 102.634  0.00  0.00    +0.000 C 
ATOM     23  N1  UNL     1      57.374  57.383 102.717  0.00  0.00    +0.000 NA
ATOM     24  C2  UNL     1      57.466  57.943 101.355  0.00  0.00    +0.000 C 
ENDBRANCH  21  23
ENDBRANCH  20  21
ENDBRANCH  19  20
ENDBRANCH   1  19
TORSDOF 6
ENDMDL
MODEL 4
REMARK VINA RESULT:      -5.8     11.895     14.966
REMARK  Name = ./S4064.pdb
REMARK  8 active torsions:
REMARK  status: ('A' for Active; 'I' for Inactive)
REMARK    1  A    between atoms: C1_1  and  N1_2
REMARK    2  A    between atoms: N1_2  and  C2_3
REMARK    3  A    between atoms: N1_2  and  C3_4
REMARK    4  A    between atoms: C3_4  and  C4_5
REMARK    5  A    between atoms: C4_5  and  C5_6
REMARK    6  A    between atoms: C5_6  and  C6_7
REMARK    7  A    between atoms: C6_7  and  C15_18
REMARK    8  A    between atoms: C10_12  and  C14_16
REMARK                            x       y       z     vdW  Elec       q    Type
REMARK                         _______ _______ _______ _____ _____    ______ ____
ROOT
ATOM      1  C6  UNL     1      74.140  64.956 111.178  0.00  0.00    +0.000 C 
ATOM      2  O1  UNL     1      73.223  63.957 111.630  0.00  0.00    +0.000 OA
ATOM      3  C7  UNL     1      72.884  64.225 112.984  0.00  0.00    +0.000 C 
ATOM      4  C8  UNL     1      73.622  65.431 113.383  0.00  0.00    +0.000 A 
ATOM      5  C9  UNL     1      73.618  66.094 114.611  0.00  0.00    +0.000 A 
ATOM      6  C10 UNL     1      74.405  67.252 114.748  0.00  0.00    +0.000 A 
ATOM      7  C11 UNL     1      75.169  67.716 113.655  0.00  0.00    +0.000 A 
ATOM      8  C12 UNL     1      75.145  67.021 112.434  0.00  0.00    +0.000 A 
ATOM      9  C13 UNL     1      74.356  65.869 112.336  0.00  0.00    +0.000 A 
ENDROOT
BRANCH   1  10
ATOM     10  C15 UNL     1      75.473  64.310 110.783  0.00  0.00    +0.000 A 
ATOM     11  C16 UNL     1      76.219  63.575 111.730  0.00  0.00    +0.000 A 
ATOM     12  C17 UNL     1      77.452  63.012 111.386  0.00  0.00    +0.000 A 
ATOM     13  C18 UNL     1      77.970  63.185 110.103  0.00  0.00    +0.000 A 
ATOM     14  F1  UNL     1      79.167  62.640 109.774  0.00  0.00    +0.000 F 
ATOM     15  C19 UNL     1      77.260  63.932 109.162  0.00  0.00    +0.000 A 
ATOM     16  C20 UNL     1      76.028  64.498 109.498  0.00  0.00    +0.000 A 
ENDBRANCH   1  10
BRANCH   6  17
ATOM     17  C14 UNL     1      74.428  67.964 115.997  0.00  0.00    +0.000 C 
ATOM     18  N2  UNL     1      74.447  68.537 117.004  0.00  0.00    +0.000 NA
ENDBRANCH   6  17
BRANCH   1  19
ATOM     19  C5  UNL     1      73.462  65.729 110.016  0.00  0.00    +0.000 C 
BRANCH  19  20
ATOM     20  C4  UNL     1      72.162  65.058 109.535  0.00  0.00    +0.000 C 
BRANCH  20  21
ATOM     21  C3  UNL     1      70.916  65.851 109.958  0.00  0.00    +0.000 C 
BRANCH  21  23
ATOM     22  C1  UNL     1      70.602  65.719 107.563  0.00  0.00    +0.000 C 
ATOM     23  N1  UNL     1      70.205  66.425 108.792  0.00  0.00    +0.000 NA
ATOM     24  C2  UNL     1      70.494  67.863 108.646  0.00  0.00    +0.000 C 
ENDBRANCH  21  23
ENDBRANCH  20  21
ENDBRANCH  19  20
ENDBRANCH   1  19
TORSDOF 6
ENDMDL
MODEL 5
REMARK VINA RESULT:      -5.7      5.392      8.258
REMARK  Name = ./S4064.pdb
REMARK  8 active torsions:
REMARK  status: ('A' for Active; 'I' for Inactive)
REMARK    1  A    between atoms: C1_1  and  N1_2
REMARK    2  A    between atoms: N1_2  and  C2_3
REMARK    3  A    between atoms: N1_2  and  C3_4
REMARK    4  A    between atoms: C3_4  and  C4_5
REMARK    5  A    between atoms: C4_5  and  C5_6
REMARK    6  A    between atoms: C5_6  and  C6_7
REMARK    7  A    between atoms: C6_7  and  C15_18
REMARK    8  A    between atoms: C10_12  and  C14_16
REMARK                            x       y       z     vdW  Elec       q    Type
REMARK                         _______ _______ _______ _____ _____    ______ ____
ROOT
ATOM      1  C6  UNL     1      61.743  59.285 111.630  0.00  0.00    +0.000 C 
ATOM      2  O1  UNL     1      60.836  58.471 110.882  0.00  0.00    +0.000 OA
ATOM      3  C7  UNL     1      61.529  57.915 109.771  0.00  0.00    +0.000 C 
ATOM      4  C8  UNL     1      62.911  58.408 109.835  0.00  0.00    +0.000 A 
ATOM      5  C9  UNL     1      63.977  58.139 108.974  0.00  0.00    +0.000 A 
ATOM      6  C10 UNL     1      65.226  58.723 109.255  0.00  0.00    +0.000 A 
ATOM      7  C11 UNL     1      65.376  59.552 110.387  0.00  0.00    +0.000 A 
ATOM      8  C12 UNL     1      64.279  59.796 111.231  0.00  0.00    +0.000 A 
ATOM      9  C13 UNL     1      63.049  59.205 110.917  0.00  0.00    +0.000 A 
ENDROOT
BRANCH   1  10
ATOM     10  C15 UNL     1      61.259  60.739 111.644  0.00  0.00    +0.000 A 
ATOM     11  C16 UNL     1      60.796  61.327 112.841  0.00  0.00    +0.000 A 
ATOM     12  C17 UNL     1      60.322  62.642 112.854  0.00  0.00    +0.000 A 
ATOM     13  C18 UNL     1      60.283  63.387 111.675  0.00  0.00    +0.000 A 
ATOM     14  F1  UNL     1      59.820  64.661 111.690  0.00  0.00    +0.000 F 
ATOM     15  C19 UNL     1      60.711  62.813 110.477  0.00  0.00    +0.000 A 
ATOM     16  C20 UNL     1      61.185  61.500 110.456  0.00  0.00    +0.000 A 
ENDBRANCH   1  10
BRANCH   6  17
ATOM     17  C14 UNL     1      66.349  58.471 108.392  0.00  0.00    +0.000 C 
ATOM     18  N2  UNL     1      67.253  58.269 107.697  0.00  0.00    +0.000 NA
ENDBRANCH   6  17
BRANCH   1  19
ATOM     19  C5  UNL     1      61.877  58.665 113.046  0.00  0.00    +0.000 C 
BRANCH  19  20
ATOM     20  C4  UNL     1      60.821  57.578 113.320  0.00  0.00    +0.000 C 
BRANCH  20  21
ATOM     21  C3  UNL     1      59.739  58.060 114.298  0.00  0.00    +0.000 C 
BRANCH  21  23
ATOM     22  C1  UNL     1      57.893  59.035 113.077  0.00  0.00    +0.000 C 
ATOM     23  N1  UNL     1      58.375  57.830 113.770  0.00  0.00    +0.000 NA
ATOM     24  C2  UNL     1      57.436  57.480 114.852  0.00  0.00    +0.000 C 
ENDBRANCH  21  23
ENDBRANCH  20  21
ENDBRANCH  19  20
ENDBRANCH   1  19
TORSDOF 6
ENDMDL
MODEL 6
REMARK VINA RESULT:      -5.7      4.431      6.500
REMARK  Name = ./S4064.pdb
REMARK  8 active torsions:
REMARK  status: ('A' for Active; 'I' for Inactive)
REMARK    1  A    between atoms: C1_1  and  N1_2
REMARK    2  A    between atoms: N1_2  and  C2_3
REMARK    3  A    between atoms: N1_2  and  C3_4
REMARK    4  A    between atoms: C3_4  and  C4_5
REMARK    5  A    between atoms: C4_5  and  C5_6
REMARK    6  A    between atoms: C5_6  and  C6_7
REMARK    7  A    between atoms: C6_7  and  C15_18
REMARK    8  A    between atoms: C10_12  and  C14_16
REMARK                            x       y       z     vdW  Elec       q    Type
REMARK                         _______ _______ _______ _____ _____    ______ ____
ROOT
ATOM      1  C6  UNL     1      61.653  59.489 110.382  0.00  0.00    +0.000 C 
ATOM      2  O1  UNL     1      61.799  58.861 111.658  0.00  0.00    +0.000 OA
ATOM      3  C7  UNL     1      61.462  59.799 112.672  0.00  0.00    +0.000 C 
ATOM      4  C8  UNL     1      61.099  61.053 111.996  0.00  0.00    +0.000 A 
ATOM      5  C9  UNL     1      60.689  62.263 112.557  0.00  0.00    +0.000 A 
ATOM      6  C10 UNL     1      60.378  63.329 111.693  0.00  0.00    +0.000 A 
ATOM      7  C11 UNL     1      60.481  63.154 110.296  0.00  0.00    +0.000 A 
ATOM      8  C12 UNL     1      60.896  61.919 109.770  0.00  0.00    +0.000 A 
ATOM      9  C13 UNL     1      61.204  60.883 110.659  0.00  0.00    +0.000 A 
ENDROOT
BRANCH   1  10
ATOM     10  C15 UNL     1      63.002  59.525 109.654  0.00  0.00    +0.000 A 
ATOM     11  C16 UNL     1      63.077  59.938 108.306  0.00  0.00    +0.000 A 
ATOM     12  C17 UNL     1      64.299  59.941 107.627  0.00  0.00    +0.000 A 
ATOM     13  C18 UNL     1      65.462  59.517 108.270  0.00  0.00    +0.000 A 
ATOM     14  F1  UNL     1      66.644  59.518 107.607  0.00  0.00    +0.000 F 
ATOM     15  C19 UNL     1      65.403  59.079 109.594  0.00  0.00    +0.000 A 
ATOM     16  C20 UNL     1      64.185  59.072 110.279  0.00  0.00    +0.000 A 
ENDBRANCH   1  10
BRANCH   6  17
ATOM     17  C14 UNL     1      59.952  64.592 112.232  0.00  0.00    +0.000 C 
ATOM     18  N2  UNL     1      59.609  65.610 112.666  0.00  0.00    +0.000 NA
ENDBRANCH   6  17
BRANCH   1  19
ATOM     19  C5  UNL     1      60.552  58.725 109.601  0.00  0.00    +0.000 C 
BRANCH  19  20
ATOM     20  C4  UNL     1      60.926  57.256 109.331  0.00  0.00    +0.000 C 
BRANCH  20  21
ATOM     21  C3  UNL     1      60.259  56.718 108.057  0.00  0.00    +0.000 C 
BRANCH  21  23
ATOM     22  C1  UNL     1      60.123  56.860 105.646  0.00  0.00    +0.000 C 
ATOM     23  N1  UNL     1      60.909  57.236 106.832  0.00  0.00    +0.000 NA
ATOM     24  C2  UNL     1      62.282  56.715 106.694  0.00  0.00    +0.000 C 
ENDBRANCH  21  23
ENDBRANCH  20  21
ENDBRANCH  19  20
ENDBRANCH   1  19
TORSDOF 6
ENDMDL
MODEL 7
REMARK VINA RESULT:      -5.7     11.449     14.489
REMARK  Name = ./S4064.pdb
REMARK  8 active torsions:
REMARK  status: ('A' for Active; 'I' for Inactive)
REMARK    1  A    between atoms: C1_1  and  N1_2
REMARK    2  A    between atoms: N1_2  and  C2_3
REMARK    3  A    between atoms: N1_2  and  C3_4
REMARK    4  A    between atoms: C3_4  and  C4_5
REMARK    5  A    between atoms: C4_5  and  C5_6
REMARK    6  A    between atoms: C5_6  and  C6_7
REMARK    7  A    between atoms: C6_7  and  C15_18
REMARK    8  A    between atoms: C10_12  and  C14_16
REMARK                            x       y       z     vdW  Elec       q    Type
REMARK                         _______ _______ _______ _____ _____    ______ ____
ROOT
ATOM      1  C6  UNL     1      73.210  65.468 111.044  0.00  0.00    +0.000 C 
ATOM      2  O1  UNL     1      72.136  64.577 111.355  0.00  0.00    +0.000 OA
ATOM      3  C7  UNL     1      70.978  64.986 110.640  0.00  0.00    +0.000 C 
ATOM      4  C8  UNL     1      71.350  66.175 109.862  0.00  0.00    +0.000 A 
ATOM      5  C9  UNL     1      70.563  66.937 108.996  0.00  0.00    +0.000 A 
ATOM      6  C10 UNL     1      71.155  68.035 108.346  0.00  0.00    +0.000 A 
ATOM      7  C11 UNL     1      72.515  68.337 108.574  0.00  0.00    +0.000 A 
ATOM      8  C12 UNL     1      73.274  67.544 109.450  0.00  0.00    +0.000 A 
ATOM      9  C13 UNL     1      72.651  66.464 110.086  0.00  0.00    +0.000 A 
ENDROOT
BRANCH   1  10
ATOM     10  C15 UNL     1      73.682  66.190 112.311  0.00  0.00    +0.000 A 
ATOM     11  C16 UNL     1      74.917  66.874 112.326  0.00  0.00    +0.000 A 
ATOM     12  C17 UNL     1      75.369  67.506 113.488  0.00  0.00    +0.000 A 
ATOM     13  C18 UNL     1      74.611  67.453 114.658  0.00  0.00    +0.000 A 
ATOM     14  F1  UNL     1      75.054  68.064 115.783  0.00  0.00    +0.000 F 
ATOM     15  C19 UNL     1      73.401  66.758 114.669  0.00  0.00    +0.000 A 
ATOM     16  C20 UNL     1      72.943  66.123 113.512  0.00  0.00    +0.000 A 
ENDBRANCH   1  10
BRANCH   6  17
ATOM     17  C14 UNL     1      70.377  68.845 107.447  0.00  0.00    +0.000 C 
ATOM     18  N2  UNL     1      69.750  69.497 106.724  0.00  0.00    +0.000 NA
ENDBRANCH   6  17
BRANCH   1  19
ATOM     19  C5  UNL     1      74.325  64.641 110.352  0.00  0.00    +0.000 C 
BRANCH  19  20
ATOM     20  C4  UNL     1      73.955  64.229 108.915  0.00  0.00    +0.000 C 
BRANCH  20  21
ATOM     21  C3  UNL     1      73.731  62.714 108.792  0.00  0.00    +0.000 C 
BRANCH  21  23
ATOM     22  C1  UNL     1      72.631  61.229 107.232  0.00  0.00    +0.000 C 
ATOM     23  N1  UNL     1      72.456  62.397 108.110  0.00  0.00    +0.000 NA
ATOM     24  C2  UNL     1      71.979  63.542 107.311  0.00  0.00    +0.000 C 
ENDBRANCH  21  23
ENDBRANCH  20  21
ENDBRANCH  19  20
ENDBRANCH   1  19
TORSDOF 6
ENDMDL
MODEL 8
REMARK VINA RESULT:      -5.7     12.368     16.348
REMARK  Name = ./S4064.pdb
REMARK  8 active torsions:
REMARK  status: ('A' for Active; 'I' for Inactive)
REMARK    1  A    between atoms: C1_1  and  N1_2
REMARK    2  A    between atoms: N1_2  and  C2_3
REMARK    3  A    between atoms: N1_2  and  C3_4
REMARK    4  A    between atoms: C3_4  and  C4_5
REMARK    5  A    between atoms: C4_5  and  C5_6
REMARK    6  A    between atoms: C5_6  and  C6_7
REMARK    7  A    between atoms: C6_7  and  C15_18
REMARK    8  A    between atoms: C10_12  and  C14_16
REMARK                            x       y       z     vdW  Elec       q    Type
REMARK                         _______ _______ _______ _____ _____    ______ ____
ROOT
ATOM      1  C6  UNL     1      74.210  66.071 113.175  0.00  0.00    +0.000 C 
ATOM      2  O1  UNL     1      74.963  67.239 112.842  0.00  0.00    +0.000 OA
ATOM      3  C7  UNL     1      74.500  67.743 111.596  0.00  0.00    +0.000 C 
ATOM      4  C8  UNL     1      73.424  66.851 111.143  0.00  0.00    +0.000 A 
ATOM      5  C9  UNL     1      72.652  66.930 109.983  0.00  0.00    +0.000 A 
ATOM      6  C10 UNL     1      71.659  65.955 109.774  0.00  0.00    +0.000 A 
ATOM      7  C11 UNL     1      71.464  64.935 110.730  0.00  0.00    +0.000 A 
ATOM      8  C12 UNL     1      72.260  64.891 111.886  0.00  0.00    +0.000 A 
ATOM      9  C13 UNL     1      73.244  65.873 112.058  0.00  0.00    +0.000 A 
ENDROOT
BRANCH   1  10
ATOM     10  C15 UNL     1      75.137  64.853 113.267  0.00  0.00    +0.000 A 
ATOM     11  C16 UNL     1      75.353  64.211 114.506  0.00  0.00    +0.000 A 
ATOM     12  C17 UNL     1      76.223  63.121 114.603  0.00  0.00    +0.000 A 
ATOM     13  C18 UNL     1      76.905  62.663 113.475  0.00  0.00    +0.000 A 
ATOM     14  F1  UNL     1      77.750  61.608 113.574  0.00  0.00    +0.000 F 
ATOM     15  C19 UNL     1      76.725  63.302 112.248  0.00  0.00    +0.000 A 
ATOM     16  C20 UNL     1      75.858  64.393 112.143  0.00  0.00    +0.000 A 
ENDBRANCH   1  10
BRANCH   6  17
ATOM     17  C14 UNL     1      70.842  66.001 108.591  0.00  0.00    +0.000 C 
ATOM     18  N2  UNL     1      70.185  66.037 107.638  0.00  0.00    +0.000 NA
ENDBRANCH   6  17
BRANCH   1  19
ATOM     19  C5  UNL     1      73.442  66.362 114.491  0.00  0.00    +0.000 C 
BRANCH  19  20
ATOM     20  C4  UNL     1      74.076  67.505 115.307  0.00  0.00    +0.000 C 
BRANCH  20  21
ATOM     21  C3  UNL     1      73.047  68.210 116.203  0.00  0.00    +0.000 C 
BRANCH  21  23
ATOM     22  C1  UNL     1      74.570  67.237 117.809  0.00  0.00    +0.000 C 
ATOM     23  N1  UNL     1      73.414  68.129 117.635  0.00  0.00    +0.000 NA
ATOM     24  C2  UNL     1      72.287  67.634 118.448  0.00  0.00    +0.000 C 
ENDBRANCH  21  23
ENDBRANCH  20  21
ENDBRANCH  19  20
ENDBRANCH   1  19
TORSDOF 6
ENDMDL
MODEL 9
REMARK VINA RESULT:      -5.7      4.662      6.930
REMARK  Name = ./S4064.pdb
REMARK  8 active torsions:
REMARK  status: ('A' for Active; 'I' for Inactive)
REMARK    1  A    between atoms: C1_1  and  N1_2
REMARK    2  A    between atoms: N1_2  and  C2_3
REMARK    3  A    between atoms: N1_2  and  C3_4
REMARK    4  A    between atoms: C3_4  and  C4_5
REMARK    5  A    between atoms: C4_5  and  C5_6
REMARK    6  A    between atoms: C5_6  and  C6_7
REMARK    7  A    between atoms: C6_7  and  C15_18
REMARK    8  A    between atoms: C10_12  and  C14_16
REMARK                            x       y       z     vdW  Elec       q    Type
REMARK                         _______ _______ _______ _____ _____    ______ ____
ROOT
ATOM      1  C6  UNL     1      62.173  59.891 111.160  0.00  0.00    +0.000 C 
ATOM      2  O1  UNL     1      62.939  60.009 109.959  0.00  0.00    +0.000 OA
ATOM      3  C7  UNL     1      64.319  60.057 110.297  0.00  0.00    +0.000 C 
ATOM      4  C8  UNL     1      64.407  59.970 111.761  0.00  0.00    +0.000 A 
ATOM      5  C9  UNL     1      65.543  59.969 112.571  0.00  0.00    +0.000 A 
ATOM      6  C10 UNL     1      65.371  59.859 113.964  0.00  0.00    +0.000 A 
ATOM      7  C11 UNL     1      64.072  59.749 114.505  0.00  0.00    +0.000 A 
ATOM      8  C12 UNL     1      62.953  59.751 113.655  0.00  0.00    +0.000 A 
ATOM      9  C13 UNL     1      63.161  59.870 112.276  0.00  0.00    +0.000 A 
ENDROOT
BRANCH   1  10
ATOM     10  C15 UNL     1      61.252  61.106 111.320  0.00  0.00    +0.000 A 
ATOM     11  C16 UNL     1      60.379  61.201 112.427  0.00  0.00    +0.000 A 
ATOM     12  C17 UNL     1      59.513  62.289 112.561  0.00  0.00    +0.000 A 
ATOM     13  C18 UNL     1      59.486  63.291 111.589  0.00  0.00    +0.000 A 
ATOM     14  F1  UNL     1      58.642  64.343 111.722  0.00  0.00    +0.000 F 
ATOM     15  C19 UNL     1      60.321  63.200 110.475  0.00  0.00    +0.000 A 
ATOM     16  C20 UNL     1      61.189  62.114 110.334  0.00  0.00    +0.000 A 
ENDBRANCH   1  10
BRANCH   6  17
ATOM     17  C14 UNL     1      66.517  59.856 114.833  0.00  0.00    +0.000 C 
ATOM     18  N2  UNL     1      67.440  59.853 115.533  0.00  0.00    +0.000 NA
ENDBRANCH   6  17
BRANCH   1  19
ATOM     19  C5  UNL     1      61.411  58.541 111.105  0.00  0.00    +0.000 C 
BRANCH  19  20
ATOM     20  C4  UNL     1      60.506  58.421 109.864  0.00  0.00    +0.000 C 
BRANCH  20  21
ATOM     21  C3  UNL     1      60.922  57.250 108.962  0.00  0.00    +0.000 C 
BRANCH  21  23
ATOM     22  C1  UNL     1      60.885  57.172 106.545  0.00  0.00    +0.000 C 
ATOM     23  N1  UNL     1      61.582  57.716 107.721  0.00  0.00    +0.000 NA
ATOM     24  C2  UNL     1      62.998  57.306 107.683  0.00  0.00    +0.000 C 
ENDBRANCH  21  23
ENDBRANCH  20  21
ENDBRANCH  19  20
ENDBRANCH   1  19
TORSDOF 6
ENDMDL
MODEL 10
REMARK VINA RESULT:      -5.6     12.515     15.549
REMARK  Name = ./S4064.pdb
REMARK  8 active torsions:
REMARK  status: ('A' for Active; 'I' for Inactive)
REMARK    1  A    between atoms: C1_1  and  N1_2
REMARK    2  A    between atoms: N1_2  and  C2_3
REMARK    3  A    between atoms: N1_2  and  C3_4
REMARK    4  A    between atoms: C3_4  and  C4_5
REMARK    5  A    between atoms: C4_5  and  C5_6
REMARK    6  A    between atoms: C5_6  and  C6_7
REMARK    7  A    between atoms: C6_7  and  C15_18
REMARK    8  A    between atoms: C10_12  and  C14_16
REMARK                            x       y       z     vdW  Elec       q    Type
REMARK                         _______ _______ _______ _____ _____    ______ ____
ROOT
ATOM      1  C6  UNL     1      73.228  65.467 111.050  0.00  0.00    +0.000 C 
ATOM      2  O1  UNL     1      72.159  64.572 111.364  0.00  0.00    +0.000 OA
ATOM      3  C7  UNL     1      70.998  64.975 110.649  0.00  0.00    +0.000 C 
ATOM      4  C8  UNL     1      71.364  66.165 109.869  0.00  0.00    +0.000 A 
ATOM      5  C9  UNL     1      70.573  66.922 109.003  0.00  0.00    +0.000 A 
ATOM      6  C10 UNL     1      71.160  68.022 108.351  0.00  0.00    +0.000 A 
ATOM      7  C11 UNL     1      72.519  68.330 108.578  0.00  0.00    +0.000 A 
ATOM      8  C12 UNL     1      73.282  67.542 109.455  0.00  0.00    +0.000 A 
ATOM      9  C13 UNL     1      72.664  66.460 110.092  0.00  0.00    +0.000 A 
ENDROOT
BRANCH   1  10
ATOM     10  C15 UNL     1      73.698  66.193 112.316  0.00  0.00    +0.000 A 
ATOM     11  C16 UNL     1      74.922  66.897 112.324  0.00  0.00    +0.000 A 
ATOM     12  C17 UNL     1      75.372  67.533 113.485  0.00  0.00    +0.000 A 
ATOM     13  C18 UNL     1      74.624  67.463 114.660  0.00  0.00    +0.000 A 
ATOM     14  F1  UNL     1      75.065  68.078 115.785  0.00  0.00    +0.000 F 
ATOM     15  C19 UNL     1      73.426  66.748 114.679  0.00  0.00    +0.000 A 
ATOM     16  C20 UNL     1      72.969  66.109 113.523  0.00  0.00    +0.000 A 
ENDBRANCH   1  10
BRANCH   6  17
ATOM     17  C14 UNL     1      70.378  68.827 107.452  0.00  0.00    +0.000 C 
ATOM     18  N2  UNL     1      69.748  69.476 106.728  0.00  0.00    +0.000 NA
ENDBRANCH   6  17
BRANCH   1  19
ATOM     19  C5  UNL     1      74.347  64.645 110.359  0.00  0.00    +0.000 C 
BRANCH  19  20
ATOM     20  C4  UNL     1      74.757  63.402 111.171  0.00  0.00    +0.000 C 
BRANCH  20  21
ATOM     21  C3  UNL     1      76.202  63.502 111.685  0.00  0.00    +0.000 C 
BRANCH  21  23
ATOM     22  C1  UNL     1      77.286  62.347 113.512  0.00  0.00    +0.000 C 
ATOM     23  N1  UNL     1      76.276  63.357 113.156  0.00  0.00    +0.000 NA
ATOM     24  C2  UNL     1      74.972  62.964 113.721  0.00  0.00    +0.000 C 
ENDBRANCH  21  23
ENDBRANCH  20  21
ENDBRANCH  19  20
ENDBRANCH   1  19
TORSDOF 6
ENDMDL
MODEL 11
REMARK VINA RESULT:      -5.6      5.199      8.516
REMARK  Name = ./S4064.pdb
REMARK  8 active torsions:
REMARK  status: ('A' for Active; 'I' for Inactive)
REMARK    1  A    between atoms: C1_1  and  N1_2
REMARK    2  A    between atoms: N1_2  and  C2_3
REMARK    3  A    between atoms: N1_2  and  C3_4
REMARK    4  A    between atoms: C3_4  and  C4_5
REMARK    5  A    between atoms: C4_5  and  C5_6
REMARK    6  A    between atoms: C5_6  and  C6_7
REMARK    7  A    between atoms: C6_7  and  C15_18
REMARK    8  A    between atoms: C10_12  and  C14_16
REMARK                            x       y       z     vdW  Elec       q    Type
REMARK                         _______ _______ _______ _____ _____    ______ ____
ROOT
ATOM      1  C6  UNL     1      61.708  59.253 111.550  0.00  0.00    +0.000 C 
ATOM      2  O1  UNL     1      60.823  58.425 110.791  0.00  0.00    +0.000 OA
ATOM      3  C7  UNL     1      61.537  57.879 109.691  0.00  0.00    +0.000 C 
ATOM      4  C8  UNL     1      62.911  58.392 109.771  0.00  0.00    +0.000 A 
ATOM      5  C9  UNL     1      63.992  58.138 108.925  0.00  0.00    +0.000 A 
ATOM      6  C10 UNL     1      65.229  58.740 109.221  0.00  0.00    +0.000 A 
ATOM      7  C11 UNL     1      65.352  59.572 110.354  0.00  0.00    +0.000 A 
ATOM      8  C12 UNL     1      64.241  59.801 111.183  0.00  0.00    +0.000 A 
ATOM      9  C13 UNL     1      63.024  59.192 110.855  0.00  0.00    +0.000 A 
ENDROOT
BRANCH   1  10
ATOM     10  C15 UNL     1      61.202  60.700 111.557  0.00  0.00    +0.000 A 
ATOM     11  C16 UNL     1      61.206  61.464 110.369  0.00  0.00    +0.000 A 
ATOM     12  C17 UNL     1      60.777  62.795 110.376  0.00  0.00    +0.000 A 
ATOM     13  C18 UNL     1      60.356  63.393 111.564  0.00  0.00    +0.000 A 
ATOM     14  F1  UNL     1      59.944  64.684 111.567  0.00  0.00    +0.000 F 
ATOM     15  C19 UNL     1      60.372  62.662 112.752  0.00  0.00    +0.000 A 
ATOM     16  C20 UNL     1      60.799  61.331 112.755  0.00  0.00    +0.000 A 
ENDBRANCH   1  10
BRANCH   6  17
ATOM     17  C14 UNL     1      66.366  58.504 108.372  0.00  0.00    +0.000 C 
ATOM     18  N2  UNL     1      67.282  58.313 107.689  0.00  0.00    +0.000 NA
ENDBRANCH   6  17
BRANCH   1  19
ATOM     19  C5  UNL     1      61.832  58.637 112.969  0.00  0.00    +0.000 C 
BRANCH  19  20
ATOM     20  C4  UNL     1      60.630  57.746 113.336  0.00  0.00    +0.000 C 
BRANCH  20  21
ATOM     21  C3  UNL     1      60.501  57.552 114.855  0.00  0.00    +0.000 C 
BRANCH  21  23
ATOM     22  C1  UNL     1      62.356  56.636 116.107  0.00  0.00    +0.000 C 
ATOM     23  N1  UNL     1      61.764  57.867 115.560  0.00  0.00    +0.000 NA
ATOM     24  C2  UNL     1      61.539  58.829 116.655  0.00  0.00    +0.000 C 
ENDBRANCH  21  23
ENDBRANCH  20  21
ENDBRANCH  19  20
ENDBRANCH   1  19
TORSDOF 6
ENDMDL
MODEL 12
REMARK VINA RESULT:      -5.6      3.030      4.612
REMARK  Name = ./S4064.pdb
REMARK  8 active torsions:
REMARK  status: ('A' for Active; 'I' for Inactive)
REMARK    1  A    between atoms: C1_1  and  N1_2
REMARK    2  A    between atoms: N1_2  and  C2_3
REMARK    3  A    between atoms: N1_2  and  C3_4
REMARK    4  A    between atoms: C3_4  and  C4_5
REMARK    5  A    between atoms: C4_5  and  C5_6
REMARK    6  A    between atoms: C5_6  and  C6_7
REMARK    7  A    between atoms: C6_7  and  C15_18
REMARK    8  A    between atoms: C10_12  and  C14_16
REMARK                            x       y       z     vdW  Elec       q    Type
REMARK                         _______ _______ _______ _____ _____    ______ ____
ROOT
ATOM      1  C6  UNL     1      62.918  58.824 102.295  0.00  0.00    +0.000 C 
ATOM      2  O1  UNL     1      62.860  60.243 102.464  0.00  0.00    +0.000 OA
ATOM      3  C7  UNL     1      62.978  60.545 103.848  0.00  0.00    +0.000 C 
ATOM      4  C8  UNL     1      63.108  59.266 104.559  0.00  0.00    +0.000 A 
ATOM      5  C9  UNL     1      63.258  59.036 105.927  0.00  0.00    +0.000 A 
ATOM      6  C10 UNL     1      63.381  57.707 106.372  0.00  0.00    +0.000 A 
ATOM      7  C11 UNL     1      63.355  56.648 105.439  0.00  0.00    +0.000 A 
ATOM      8  C12 UNL     1      63.205  56.921 104.069  0.00  0.00    +0.000 A 
ATOM      9  C13 UNL     1      63.079  58.254 103.662  0.00  0.00    +0.000 A 
ENDROOT
BRANCH   1  10
ATOM     10  C15 UNL     1      61.611  58.312 101.680  0.00  0.00    +0.000 A 
ATOM     11  C16 UNL     1      61.515  58.084 100.290  0.00  0.00    +0.000 A 
ATOM     12  C17 UNL     1      60.315  57.649  99.719  0.00  0.00    +0.000 A 
ATOM     13  C18 UNL     1      59.188  57.450 100.517  0.00  0.00    +0.000 A 
ATOM     14  F1  UNL     1      58.026  57.030  99.959  0.00  0.00    +0.000 F 
ATOM     15  C19 UNL     1      59.257  57.696 101.889  0.00  0.00    +0.000 A 
ATOM     16  C20 UNL     1      60.451  58.132 102.467  0.00  0.00    +0.000 A 
ENDBRANCH   1  10
BRANCH   6  17
ATOM     17  C14 UNL     1      63.536  57.428 107.775  0.00  0.00    +0.000 C 
ATOM     18  N2  UNL     1      63.660  57.203 108.904  0.00  0.00    +0.000 NA
ENDBRANCH   6  17
BRANCH   1  19
ATOM     19  C5  UNL     1      64.171  58.501 101.439  0.00  0.00    +0.000 C 
BRANCH  19  20
ATOM     20  C4  UNL     1      64.872  59.767 100.911  0.00  0.00    +0.000 C 
BRANCH  20  21
ATOM     21  C3  UNL     1      65.974  59.431  99.895  0.00  0.00    +0.000 C 
BRANCH  21  23
ATOM     22  C1  UNL     1      67.996  60.693 100.305  0.00  0.00    +0.000 C 
ATOM     23  N1  UNL     1      67.315  59.407 100.522  0.00  0.00    +0.000 NA
ATOM     24  C2  UNL     1      68.142  58.317  99.972  0.00  0.00    +0.000 C 
ENDBRANCH  21  23
ENDBRANCH  20  21
ENDBRANCH  19  20
ENDBRANCH   1  19
TORSDOF 6
ENDMDL
MODEL 13
REMARK VINA RESULT:      -5.6     10.234     12.612
REMARK  Name = ./S4064.pdb
REMARK  8 active torsions:
REMARK  status: ('A' for Active; 'I' for Inactive)
REMARK    1  A    between atoms: C1_1  and  N1_2
REMARK    2  A    between atoms: N1_2  and  C2_3
REMARK    3  A    between atoms: N1_2  and  C3_4
REMARK    4  A    between atoms: C3_4  and  C4_5
REMARK    5  A    between atoms: C4_5  and  C5_6
REMARK    6  A    between atoms: C5_6  and  C6_7
REMARK    7  A    between atoms: C6_7  and  C15_18
REMARK    8  A    between atoms: C10_12  and  C14_16
REMARK                            x       y       z     vdW  Elec       q    Type
REMARK                         _______ _______ _______ _____ _____    ______ ____
ROOT
ATOM      1  C6  UNL     1      71.781  66.144 107.379  0.00  0.00    +0.000 C 
ATOM      2  O1  UNL     1      72.983  66.660 106.801  0.00  0.00    +0.000 OA
ATOM      3  C7  UNL     1      73.340  65.852 105.688  0.00  0.00    +0.000 C 
ATOM      4  C8  UNL     1      72.324  64.797 105.577  0.00  0.00    +0.000 A 
ATOM      5  C9  UNL     1      72.230  63.766 104.641  0.00  0.00    +0.000 A 
ATOM      6  C10 UNL     1      71.143  62.877 104.732  0.00  0.00    +0.000 A 
ATOM      7  C11 UNL     1      70.180  63.047 105.750  0.00  0.00    +0.000 A 
ATOM      8  C12 UNL     1      70.309  64.099 106.672  0.00  0.00    +0.000 A 
ATOM      9  C13 UNL     1      71.406  64.960 106.557  0.00  0.00    +0.000 A 
ENDROOT
BRANCH   1  10
ATOM     10  C15 UNL     1      72.037  65.701 108.823  0.00  0.00    +0.000 A 
ATOM     11  C16 UNL     1      73.357  65.558 109.305  0.00  0.00    +0.000 A 
ATOM     12  C17 UNL     1      73.598  65.122 110.611  0.00  0.00    +0.000 A 
ATOM     13  C18 UNL     1      72.532  64.802 111.453  0.00  0.00    +0.000 A 
ATOM     14  F1  UNL     1      72.769  64.377 112.718  0.00  0.00    +0.000 F 
ATOM     15  C19 UNL     1      71.222  64.911 110.986  0.00  0.00    +0.000 A 
ATOM     16  C20 UNL     1      70.973  65.345 109.682  0.00  0.00    +0.000 A 
ENDBRANCH   1  10
BRANCH   6  17
ATOM     17  C14 UNL     1      71.011  61.801 103.787  0.00  0.00    +0.000 C 
ATOM     18  N2  UNL     1      70.905  60.935 103.025  0.00  0.00    +0.000 NA
ENDBRANCH   6  17
BRANCH   1  19
ATOM     19  C5  UNL     1      70.689  67.239 107.255  0.00  0.00    +0.000 C 
BRANCH  19  20
ATOM     20  C4  UNL     1      71.028  68.509 108.059  0.00  0.00    +0.000 C 
BRANCH  20  21
ATOM     21  C3  UNL     1      70.896  69.780 107.207  0.00  0.00    +0.000 C 
BRANCH  21  23
ATOM     22  C1  UNL     1      70.953  69.920 104.793  0.00  0.00    +0.000 C 
ATOM     23  N1  UNL     1      70.141  69.533 105.958  0.00  0.00    +0.000 NA
ATOM     24  C2  UNL     1      68.873  70.285 105.941  0.00  0.00    +0.000 C 
ENDBRANCH  21  23
ENDBRANCH  20  21
ENDBRANCH  19  20
ENDBRANCH   1  19
TORSDOF 6
ENDMDL
MODEL 14
REMARK VINA RESULT:      -5.5      3.134      6.495
REMARK  Name = ./S4064.pdb
REMARK  8 active torsions:
REMARK  status: ('A' for Active; 'I' for Inactive)
REMARK    1  A    between atoms: C1_1  and  N1_2
REMARK    2  A    between atoms: N1_2  and  C2_3
REMARK    3  A    between atoms: N1_2  and  C3_4
REMARK    4  A    between atoms: C3_4  and  C4_5
REMARK    5  A    between atoms: C4_5  and  C5_6
REMARK    6  A    between atoms: C5_6  and  C6_7
REMARK    7  A    between atoms: C6_7  and  C15_18
REMARK    8  A    between atoms: C10_12  and  C14_16
REMARK                            x       y       z     vdW  Elec       q    Type
REMARK                         _______ _______ _______ _____ _____    ______ ____
ROOT
ATOM      1  C6  UNL     1      61.955  57.870 103.444  0.00  0.00    +0.000 C 
ATOM      2  O1  UNL     1      62.478  56.558 103.665  0.00  0.00    +0.000 OA
ATOM      3  C7  UNL     1      63.710  56.432 102.968  0.00  0.00    +0.000 C 
ATOM      4  C8  UNL     1      63.954  57.712 102.289  0.00  0.00    +0.000 A 
ATOM      5  C9  UNL     1      65.033  58.086 101.487  0.00  0.00    +0.000 A 
ATOM      6  C10 UNL     1      65.051  59.389 100.955  0.00  0.00    +0.000 A 
ATOM      7  C11 UNL     1      63.994  60.279 101.242  0.00  0.00    +0.000 A 
ATOM      8  C12 UNL     1      62.926  59.865 102.055  0.00  0.00    +0.000 A 
ATOM      9  C13 UNL     1      62.938  58.560 102.562  0.00  0.00    +0.000 A 
ENDROOT
BRANCH   1  10
ATOM     10  C15 UNL     1      60.602  57.786 102.728  0.00  0.00    +0.000 A 
ATOM     11  C16 UNL     1      60.540  57.527 101.342  0.00  0.00    +0.000 A 
ATOM     12  C17 UNL     1      59.311  57.482 100.677  0.00  0.00    +0.000 A 
ATOM     13  C18 UNL     1      58.125  57.711 101.376  0.00  0.00    +0.000 A 
ATOM     14  F1  UNL     1      56.936  57.670 100.728  0.00  0.00    +0.000 F 
ATOM     15  C19 UNL     1      58.168  57.996 102.741  0.00  0.00    +0.000 A 
ATOM     16  C20 UNL     1      59.393  58.043 103.412  0.00  0.00    +0.000 A 
ENDBRANCH   1  10
BRANCH   6  17
ATOM     17  C14 UNL     1      66.145  59.812 100.123  0.00  0.00    +0.000 C 
ATOM     18  N2  UNL     1      67.026  60.154  99.453  0.00  0.00    +0.000 NA
ENDBRANCH   6  17
BRANCH   1  19
ATOM     19  C5  UNL     1      61.883  58.588 104.817  0.00  0.00    +0.000 C 
BRANCH  19  20
ATOM     20  C4  UNL     1      61.956  57.608 106.003  0.00  0.00    +0.000 C 
BRANCH  20  21
ATOM     21  C3  UNL     1      63.072  57.984 106.990  0.00  0.00    +0.000 C 
BRANCH  21  23
ATOM     22  C1  UNL     1      61.846  56.463 108.416  0.00  0.00    +0.000 C 
ATOM     23  N1  UNL     1      63.175  57.013 108.103  0.00  0.00    +0.000 NA
ATOM     24  C2  UNL     1      63.740  57.643 109.311  0.00  0.00    +0.000 C 
ENDBRANCH  21  23
ENDBRANCH  20  21
ENDBRANCH  19  20
ENDBRANCH   1  19
TORSDOF 6
ENDMDL
MODEL 15
REMARK VINA RESULT:      -5.4      9.441     12.062
REMARK  Name = ./S4064.pdb
REMARK  8 active torsions:
REMARK  status: ('A' for Active; 'I' for Inactive)
REMARK    1  A    between atoms: C1_1  and  N1_2
REMARK    2  A    between atoms: N1_2  and  C2_3
REMARK    3  A    between atoms: N1_2  and  C3_4
REMARK    4  A    between atoms: C3_4  and  C4_5
REMARK    5  A    between atoms: C4_5  and  C5_6
REMARK    6  A    between atoms: C5_6  and  C6_7
REMARK    7  A    between atoms: C6_7  and  C15_18
REMARK    8  A    between atoms: C10_12  and  C14_16
REMARK                            x       y       z     vdW  Elec       q    Type
REMARK                         _______ _______ _______ _____ _____    ______ ____
ROOT
ATOM      1  C6  UNL     1      72.357  62.559 106.893  0.00  0.00    +0.000 C 
ATOM      2  O1  UNL     1      71.539  61.435 107.228  0.00  0.00    +0.000 OA
ATOM      3  C7  UNL     1      70.983  60.901 106.034  0.00  0.00    +0.000 C 
ATOM      4  C8  UNL     1      71.473  61.727 104.922  0.00  0.00    +0.000 A 
ATOM      5  C9  UNL     1      71.216  61.599 103.556  0.00  0.00    +0.000 A 
ATOM      6  C10 UNL     1      71.820  62.514 102.674  0.00  0.00    +0.000 A 
ATOM      7  C11 UNL     1      72.665  63.525 103.180  0.00  0.00    +0.000 A 
ATOM      8  C12 UNL     1      72.902  63.618 104.561  0.00  0.00    +0.000 A 
ATOM      9  C13 UNL     1      72.279  62.696 105.411  0.00  0.00    +0.000 A 
ENDROOT
BRANCH   1  10
ATOM     10  C15 UNL     1      71.806  63.829 107.551  0.00  0.00    +0.000 A 
ATOM     11  C16 UNL     1      72.284  64.247 108.812  0.00  0.00    +0.000 A 
ATOM     12  C17 UNL     1      71.762  65.385 109.432  0.00  0.00    +0.000 A 
ATOM     13  C18 UNL     1      70.743  66.116 108.819  0.00  0.00    +0.000 A 
ATOM     14  F1  UNL     1      70.237  67.217 109.425  0.00  0.00    +0.000 F 
ATOM     15  C19 UNL     1      70.239  65.702 107.586  0.00  0.00    +0.000 A 
ATOM     16  C20 UNL     1      70.755  64.565 106.959  0.00  0.00    +0.000 A 
ENDBRANCH   1  10
BRANCH   6  17
ATOM     17  C14 UNL     1      71.578  62.417 101.259  0.00  0.00    +0.000 C 
ATOM     18  N2  UNL     1      71.384  62.339 100.120  0.00  0.00    +0.000 NA
ENDBRANCH   6  17
BRANCH   1  19
ATOM     19  C5  UNL     1      73.812  62.228 107.315  0.00  0.00    +0.000 C 
BRANCH  19  20
ATOM     20  C4  UNL     1      73.896  61.000 108.242  0.00  0.00    +0.000 C 
BRANCH  20  21
ATOM     21  C3  UNL     1      74.580  59.808 107.556  0.00  0.00    +0.000 C 
BRANCH  21  23
ATOM     22  C1  UNL     1      73.244  57.924 106.841  0.00  0.00    +0.000 C 
ATOM     23  N1  UNL     1      73.983  58.517 107.967  0.00  0.00    +0.000 NA
ATOM     24  C2  UNL     1      73.071  58.690 109.113  0.00  0.00    +0.000 C 
ENDBRANCH  21  23
ENDBRANCH  20  21
ENDBRANCH  19  20
ENDBRANCH   1  19
TORSDOF 6
ENDMDL
MODEL 16
REMARK VINA RESULT:      -5.4      3.448      5.780
REMARK  Name = ./S4064.pdb
REMARK  8 active torsions:
REMARK  status: ('A' for Active; 'I' for Inactive)
REMARK    1  A    between atoms: C1_1  and  N1_2
REMARK    2  A    between atoms: N1_2  and  C2_3
REMARK    3  A    between atoms: N1_2  and  C3_4
REMARK    4  A    between atoms: C3_4  and  C4_5
REMARK    5  A    between atoms: C4_5  and  C5_6
REMARK    6  A    between atoms: C5_6  and  C6_7
REMARK    7  A    between atoms: C6_7  and  C15_18
REMARK    8  A    between atoms: C10_12  and  C14_16
REMARK                            x       y       z     vdW  Elec       q    Type
REMARK                         _______ _______ _______ _____ _____    ______ ____
ROOT
ATOM      1  C6  UNL     1      62.477  58.138 105.324  0.00  0.00    +0.000 C 
ATOM      2  O1  UNL     1      61.618  59.240 105.021  0.00  0.00    +0.000 OA
ATOM      3  C7  UNL     1      61.901  59.695 103.705  0.00  0.00    +0.000 C 
ATOM      4  C8  UNL     1      62.977  58.845 103.177  0.00  0.00    +0.000 A 
ATOM      5  C9  UNL     1      63.596  58.890 101.927  0.00  0.00    +0.000 A 
ATOM      6  C10 UNL     1      64.603  57.949 101.645  0.00  0.00    +0.000 A 
ATOM      7  C11 UNL     1      64.960  56.989 102.617  0.00  0.00    +0.000 A 
ATOM      8  C12 UNL     1      64.312  56.975 103.863  0.00  0.00    +0.000 A 
ATOM      9  C13 UNL     1      63.319  57.930 104.112  0.00  0.00    +0.000 A 
ENDROOT
BRANCH   1  10
ATOM     10  C15 UNL     1      63.377  58.482 106.516  0.00  0.00    +0.000 A 
ATOM     11  C16 UNL     1      63.595  57.539 107.544  0.00  0.00    +0.000 A 
ATOM     12  C17 UNL     1      64.387  57.858 108.650  0.00  0.00    +0.000 A 
ATOM     13  C18 UNL     1      64.961  59.125 108.762  0.00  0.00    +0.000 A 
ATOM     14  F1  UNL     1      65.727  59.432 109.838  0.00  0.00    +0.000 F 
ATOM     15  C19 UNL     1      64.735  60.080 107.770  0.00  0.00    +0.000 A 
ATOM     16  C20 UNL     1      63.943  59.768 106.661  0.00  0.00    +0.000 A 
ENDBRANCH   1  10
BRANCH   6  17
ATOM     17  C14 UNL     1      65.266  57.963 100.369  0.00  0.00    +0.000 C 
ATOM     18  N2  UNL     1      65.799  57.975  99.341  0.00  0.00    +0.000 NA
ENDBRANCH   6  17
BRANCH   1  19
ATOM     19  C5  UNL     1      61.583  56.894 105.565  0.00  0.00    +0.000 C 
BRANCH  19  20
ATOM     20  C4  UNL     1      60.105  57.148 105.214  0.00  0.00    +0.000 C 
BRANCH  20  21
ATOM     21  C3  UNL     1      59.724  56.539 103.856  0.00  0.00    +0.000 C 
BRANCH  21  23
ATOM     22  C1  UNL     1      57.618  57.083 102.797  0.00  0.00    +0.000 C 
ATOM     23  N1  UNL     1      59.012  57.512 102.996  0.00  0.00    +0.000 NA
ATOM     24  C2  UNL     1      59.673  57.649 101.685  0.00  0.00    +0.000 C 
ENDBRANCH  21  23
ENDBRANCH  20  21
ENDBRANCH  19  20
ENDBRANCH   1  19
TORSDOF 6
ENDMDL
MODEL 17
REMARK VINA RESULT:      -5.3     13.183     15.118
REMARK  Name = ./S4064.pdb
REMARK  8 active torsions:
REMARK  status: ('A' for Active; 'I' for Inactive)
REMARK    1  A    between atoms: C1_1  and  N1_2
REMARK    2  A    between atoms: N1_2  and  C2_3
REMARK    3  A    between atoms: N1_2  and  C3_4
REMARK    4  A    between atoms: C3_4  and  C4_5
REMARK    5  A    between atoms: C4_5  and  C5_6
REMARK    6  A    between atoms: C5_6  and  C6_7
REMARK    7  A    between atoms: C6_7  and  C15_18
REMARK    8  A    between atoms: C10_12  and  C14_16
REMARK                            x       y       z     vdW  Elec       q    Type
REMARK                         _______ _______ _______ _____ _____    ______ ____
ROOT
ATOM      1  C6  UNL     1      70.712  69.864 106.439  0.00  0.00    +0.000 C 
ATOM      2  O1  UNL     1      71.479  69.663 105.249  0.00  0.00    +0.000 OA
ATOM      3  C7  UNL     1      72.083  68.378 105.305  0.00  0.00    +0.000 C 
ATOM      4  C8  UNL     1      71.677  67.765 106.577  0.00  0.00    +0.000 A 
ATOM      5  C9  UNL     1      72.005  66.508 107.087  0.00  0.00    +0.000 A 
ATOM      6  C10 UNL     1      71.475  66.134 108.336  0.00  0.00    +0.000 A 
ATOM      7  C11 UNL     1      70.632  67.024 109.036  0.00  0.00    +0.000 A 
ATOM      8  C12 UNL     1      70.324  68.280 108.487  0.00  0.00    +0.000 A 
ATOM      9  C13 UNL     1      70.874  68.622 107.246  0.00  0.00    +0.000 A 
ENDROOT
BRANCH   1  10
ATOM     10  C15 UNL     1      71.262  71.058 107.228  0.00  0.00    +0.000 A 
ATOM     11  C16 UNL     1      72.619  71.092 107.619  0.00  0.00    +0.000 A 
ATOM     12  C17 UNL     1      73.119  72.162 108.367  0.00  0.00    +0.000 A 
ATOM     13  C18 UNL     1      72.276  73.205 108.753  0.00  0.00    +0.000 A 
ATOM     14  F1  UNL     1      72.764  74.239 109.480  0.00  0.00    +0.000 F 
ATOM     15  C19 UNL     1      70.927  73.174 108.399  0.00  0.00    +0.000 A 
ATOM     16  C20 UNL     1      70.419  72.108 107.653  0.00  0.00    +0.000 A 
ENDBRANCH   1  10
BRANCH   6  17
ATOM     17  C14 UNL     1      71.789  64.847 108.896  0.00  0.00    +0.000 C 
ATOM     18  N2  UNL     1      72.043  63.812 109.348  0.00  0.00    +0.000 NA
ENDBRANCH   6  17
BRANCH   1  19
ATOM     19  C5  UNL     1      69.227  70.032 106.022  0.00  0.00    +0.000 C 
BRANCH  19  20
ATOM     20  C4  UNL     1      69.071  70.624 104.609  0.00  0.00    +0.000 C 
BRANCH  20  21
ATOM     21  C3  UNL     1      68.315  71.961 104.626  0.00  0.00    +0.000 C 
BRANCH  21  23
ATOM     22  C1  UNL     1      70.473  72.594 103.736  0.00  0.00    +0.000 C 
ATOM     23  N1  UNL     1      69.094  73.045 103.986  0.00  0.00    +0.000 NA
ATOM     24  C2  UNL     1      69.121  74.254 104.830  0.00  0.00    +0.000 C 
ENDBRANCH  21  23
ENDBRANCH  20  21
ENDBRANCH  19  20
ENDBRANCH   1  19
TORSDOF 6
ENDMDL
MODEL 18
REMARK VINA RESULT:      -5.3      4.983      8.405
REMARK  Name = ./S4064.pdb
REMARK  8 active torsions:
REMARK  status: ('A' for Active; 'I' for Inactive)
REMARK    1  A    between atoms: C1_1  and  N1_2
REMARK    2  A    between atoms: N1_2  and  C2_3
REMARK    3  A    between atoms: N1_2  and  C3_4
REMARK    4  A    between atoms: C3_4  and  C4_5
REMARK    5  A    between atoms: C4_5  and  C5_6
REMARK    6  A    between atoms: C5_6  and  C6_7
REMARK    7  A    between atoms: C6_7  and  C15_18
REMARK    8  A    between atoms: C10_12  and  C14_16
REMARK                            x       y       z     vdW  Elec       q    Type
REMARK                         _______ _______ _______ _____ _____    ______ ____
ROOT
ATOM      1  C6  UNL     1      61.969  59.522 111.254  0.00  0.00    +0.000 C 
ATOM      2  O1  UNL     1      61.289  60.768 111.082  0.00  0.00    +0.000 OA
ATOM      3  C7  UNL     1      61.285  61.102 109.701  0.00  0.00    +0.000 C 
ATOM      4  C8  UNL     1      61.992  60.024 108.995  0.00  0.00    +0.000 A 
ATOM      5  C9  UNL     1      62.243  59.890 107.628  0.00  0.00    +0.000 A 
ATOM      6  C10 UNL     1      62.934  58.748 107.185  0.00  0.00    +0.000 A 
ATOM      7  C11 UNL     1      63.350  57.773 108.116  0.00  0.00    +0.000 A 
ATOM      8  C12 UNL     1      63.076  57.943 109.483  0.00  0.00    +0.000 A 
ATOM      9  C13 UNL     1      62.392  59.095 109.891  0.00  0.00    +0.000 A 
ENDROOT
BRANCH   1  10
ATOM     10  C15 UNL     1      63.208  59.713 112.135  0.00  0.00    +0.000 A 
ATOM     11  C16 UNL     1      64.468  59.971 111.551  0.00  0.00    +0.000 A 
ATOM     12  C17 UNL     1      65.608  60.113 112.348  0.00  0.00    +0.000 A 
ATOM     13  C18 UNL     1      65.518  59.984 113.734  0.00  0.00    +0.000 A 
ATOM     14  F1  UNL     1      66.626  60.120 114.503  0.00  0.00    +0.000 F 
ATOM     15  C19 UNL     1      64.286  59.703 114.327  0.00  0.00    +0.000 A 
ATOM     16  C20 UNL     1      63.143  59.558 113.537  0.00  0.00    +0.000 A 
ENDBRANCH   1  10
BRANCH   6  17
ATOM     17  C14 UNL     1      63.213  58.573 105.785  0.00  0.00    +0.000 C 
ATOM     18  N2  UNL     1      63.437  58.432 104.657  0.00  0.00    +0.000 NA
ENDBRANCH   6  17
BRANCH   1  19
ATOM     19  C5  UNL     1      60.951  58.504 111.833  0.00  0.00    +0.000 C 
BRANCH  19  20
ATOM     20  C4  UNL     1      59.665  59.177 112.347  0.00  0.00    +0.000 C 
BRANCH  20  21
ATOM     21  C3  UNL     1      59.101  58.467 113.587  0.00  0.00    +0.000 C 
BRANCH  21  23
ATOM     22  C1  UNL     1      59.637  60.657 114.462  0.00  0.00    +0.000 C 
ATOM     23  N1  UNL     1      59.280  59.274 114.815  0.00  0.00    +0.000 NA
ATOM     24  C2  UNL     1      60.330  58.704 115.680  0.00  0.00    +0.000 C 
ENDBRANCH  21  23
ENDBRANCH  20  21
ENDBRANCH  19  20
ENDBRANCH   1  19
TORSDOF 6
ENDMDL
MODEL 19
REMARK VINA RESULT:      -5.2     10.038     12.877
REMARK  Name = ./S4064.pdb
REMARK  8 active torsions:
REMARK  status: ('A' for Active; 'I' for Inactive)
REMARK    1  A    between atoms: C1_1  and  N1_2
REMARK    2  A    between atoms: N1_2  and  C2_3
REMARK    3  A    between atoms: N1_2  and  C3_4
REMARK    4  A    between atoms: C3_4  and  C4_5
REMARK    5  A    between atoms: C4_5  and  C5_6
REMARK    6  A    between atoms: C5_6  and  C6_7
REMARK    7  A    between atoms: C6_7  and  C15_18
REMARK    8  A    between atoms: C10_12  and  C14_16
REMARK                            x       y       z     vdW  Elec       q    Type
REMARK                         _______ _______ _______ _____ _____    ______ ____
ROOT
ATOM      1  C6  UNL     1      72.511  64.790 107.502  0.00  0.00    +0.000 C 
ATOM      2  O1  UNL     1      73.895  64.981 107.194  0.00  0.00    +0.000 OA
ATOM      3  C7  UNL     1      74.169  66.375 107.164  0.00  0.00    +0.000 C 
ATOM      4  C8  UNL     1      72.909  67.070 107.460  0.00  0.00    +0.000 A 
ATOM      5  C9  UNL     1      72.666  68.441 107.553  0.00  0.00    +0.000 A 
ATOM      6  C10 UNL     1      71.363  68.869 107.868  0.00  0.00    +0.000 A 
ATOM      7  C11 UNL     1      70.344  67.916 108.085  0.00  0.00    +0.000 A 
ATOM      8  C12 UNL     1      70.629  66.545 107.985  0.00  0.00    +0.000 A 
ATOM      9  C13 UNL     1      71.935  66.155 107.663  0.00  0.00    +0.000 A 
ENDROOT
BRANCH   1  10
ATOM     10  C15 UNL     1      71.807  64.073 106.345  0.00  0.00    +0.000 A 
ATOM     11  C16 UNL     1      70.591  63.388 106.563  0.00  0.00    +0.000 A 
ATOM     12  C17 UNL     1      69.960  62.704 105.519  0.00  0.00    +0.000 A 
ATOM     13  C18 UNL     1      70.536  62.675 104.249  0.00  0.00    +0.000 A 
ATOM     14  F1  UNL     1      69.923  62.008 103.240  0.00  0.00    +0.000 F 
ATOM     15  C19 UNL     1      71.751  63.322 104.022  0.00  0.00    +0.000 A 
ATOM     16  C20 UNL     1      72.388  64.007 105.060  0.00  0.00    +0.000 A 
ENDBRANCH   1  10
BRANCH   6  17
ATOM     17  C14 UNL     1      71.071  70.273 107.971  0.00  0.00    +0.000 C 
ATOM     18  N2  UNL     1      70.837  71.404 108.055  0.00  0.00    +0.000 NA
ENDBRANCH   6  17
BRANCH   1  19
ATOM     19  C5  UNL     1      72.428  64.021 108.847  0.00  0.00    +0.000 C 
BRANCH  19  20
ATOM     20  C4  UNL     1      73.815  63.657 109.409  0.00  0.00    +0.000 C 
BRANCH  20  21
ATOM     21  C3  UNL     1      74.133  64.429 110.698  0.00  0.00    +0.000 C 
BRANCH  21  23
ATOM     22  C1  UNL     1      73.553  66.754 111.028  0.00  0.00    +0.000 C 
ATOM     23  N1  UNL     1      73.050  65.371 111.059  0.00  0.00    +0.000 NA
ATOM     24  C2  UNL     1      72.511  65.077 112.400  0.00  0.00    +0.000 C 
ENDBRANCH  21  23
ENDBRANCH  20  21
ENDBRANCH  19  20
ENDBRANCH   1  19
TORSDOF 6
ENDMDL
MODEL 20
REMARK VINA RESULT:      -5.2     12.654     14.457
REMARK  Name = ./S4064.pdb
REMARK  8 active torsions:
REMARK  status: ('A' for Active; 'I' for Inactive)
REMARK    1  A    between atoms: C1_1  and  N1_2
REMARK    2  A    between atoms: N1_2  and  C2_3
REMARK    3  A    between atoms: N1_2  and  C3_4
REMARK    4  A    between atoms: C3_4  and  C4_5
REMARK    5  A    between atoms: C4_5  and  C5_6
REMARK    6  A    between atoms: C5_6  and  C6_7
REMARK    7  A    between atoms: C6_7  and  C15_18
REMARK    8  A    between atoms: C10_12  and  C14_16
REMARK                            x       y       z     vdW  Elec       q    Type
REMARK                         _______ _______ _______ _____ _____    ______ ____
ROOT
ATOM      1  C6  UNL     1      71.651  69.445 106.586  0.00  0.00    +0.000 C 
ATOM      2  O1  UNL     1      72.875  70.033 107.034  0.00  0.00    +0.000 OA
ATOM      3  C7  UNL     1      73.369  69.282 108.136  0.00  0.00    +0.000 C 
ATOM      4  C8  UNL     1      72.412  68.194 108.378  0.00  0.00    +0.000 A 
ATOM      5  C9  UNL     1      72.458  67.187 109.344  0.00  0.00    +0.000 A 
ATOM      6  C10 UNL     1      71.421  66.236 109.368  0.00  0.00    +0.000 A 
ATOM      7  C11 UNL     1      70.372  66.317 108.427  0.00  0.00    +0.000 A 
ATOM      8  C12 UNL     1      70.363  67.344 107.469  0.00  0.00    +0.000 A 
ATOM      9  C13 UNL     1      71.407  68.276 107.478  0.00  0.00    +0.000 A 
ENDROOT
BRANCH   1  10
ATOM     10  C15 UNL     1      70.500  70.446 106.733  0.00  0.00    +0.000 A 
ATOM     11  C16 UNL     1      69.280  70.237 106.053  0.00  0.00    +0.000 A 
ATOM     12  C17 UNL     1      68.238  71.163 106.157  0.00  0.00    +0.000 A 
ATOM     13  C18 UNL     1      68.397  72.319 106.922  0.00  0.00    +0.000 A 
ATOM     14  F1  UNL     1      67.385  73.216 107.017  0.00  0.00    +0.000 F 
ATOM     15  C19 UNL     1      69.605  72.556 107.578  0.00  0.00    +0.000 A 
ATOM     16  C20 UNL     1      70.652  71.636 107.479  0.00  0.00    +0.000 A 
ENDBRANCH   1  10
BRANCH   6  17
ATOM     17  C14 UNL     1      71.431  65.184 110.348  0.00  0.00    +0.000 C 
ATOM     18  N2  UNL     1      71.439  64.336 111.138  0.00  0.00    +0.000 NA
ENDBRANCH   6  17
BRANCH   1  19
ATOM     19  C5  UNL     1      71.865  68.961 105.128  0.00  0.00    +0.000 C 
BRANCH  19  20
ATOM     20  C4  UNL     1      72.574  70.011 104.252  0.00  0.00    +0.000 C 
BRANCH  20  21
ATOM     21  C3  UNL     1      71.716  70.429 103.049  0.00  0.00    +0.000 C 
BRANCH  21  23
ATOM     22  C1  UNL     1      70.972  72.629 103.724  0.00  0.00    +0.000 C 
ATOM     23  N1  UNL     1      71.815  71.881 102.777  0.00  0.00    +0.000 NA
ATOM     24  C2  UNL     1      71.399  72.197 101.398  0.00  0.00    +0.000 C 
ENDBRANCH  21  23
ENDBRANCH  20  21
ENDBRANCH  19  20
ENDBRANCH   1  19
TORSDOF 6
ENDMDL
