MODEL 1
REMARK VINA RESULT:      -7.0      0.000      0.000
REMARK  Name = ./S4084.pdb
REMARK  11 active torsions:
REMARK  status: ('A' for Active; 'I' for Inactive)
REMARK    1  A    between atoms: C1_1  and  O1_2
REMARK    2  A    between atoms: O1_2  and  C2_3
REMARK    3  A    between atoms: C3_4  and  O2_5
REMARK    4  A    between atoms: O2_5  and  C4_6
REMARK    5  A    between atoms: C5_7  and  O3_33
REMARK    6  A    between atoms: C6_8  and  C7_9
REMARK    7  A    between atoms: C7_9  and  N1_10
REMARK    8  A    between atoms: N2_13  and  C12_16
REMARK    9  A    between atoms: C12_16  and  C13_17
REMARK   10  A    between atoms: C12_16  and  C19_24
REMARK   11  A    between atoms: O3_33  and  C27_34
REMARK                            x       y       z     vdW  Elec       q    Type
REMARK                         _______ _______ _______ _____ _____    ______ ____
ROOT
ATOM      1  N1  UNL     1      61.521  57.998 107.138  0.00  0.00    +0.000 NA
ATOM      2  C8  UNL     1      60.752  57.176 106.183  0.00  0.00    +0.000 C 
ATOM      3  C9  UNL     1      61.656  56.404 105.196  0.00  0.00    +0.000 C 
ATOM      4  N2  UNL     1      62.634  57.279 104.510  0.00  0.00    +0.000 NA
ATOM      5  C10 UNL     1      63.419  58.026 105.522  0.00  0.00    +0.000 C 
ATOM      6  C11 UNL     1      62.519  58.845 106.459  0.00  0.00    +0.000 C 
ENDROOT
BRANCH   1   7
ATOM      7  C7  UNL     1      62.079  57.212 108.262  0.00  0.00    +0.000 C 
BRANCH   7  11
ATOM      8  C2  UNL     1      62.019  59.706 111.794  0.00  0.00    +0.000 A 
ATOM      9  C3  UNL     1      63.210  59.076 111.408  0.00  0.00    +0.000 A 
ATOM     10  C5  UNL     1      63.247  58.298 110.228  0.00  0.00    +0.000 A 
ATOM     11  C6  UNL     1      62.058  58.050 109.513  0.00  0.00    +0.000 A 
ATOM     12  C25 UNL     1      60.866  58.661 109.926  0.00  0.00    +0.000 A 
ATOM     13  C26 UNL     1      60.849  59.496 111.042  0.00  0.00    +0.000 A 
BRANCH   8  15
ATOM     14  C1  UNL     1      60.935  61.300 113.388  0.00  0.00    +0.000 C 
ATOM     15  O1  UNL     1      62.035  60.517 112.939  0.00  0.00    +0.000 OA
ENDBRANCH   8  15
BRANCH   9  16
ATOM     16  O2  UNL     1      64.338  59.243 112.225  0.00  0.00    +0.000 OA
ATOM     17  C4  UNL     1      65.327  60.244 112.001  0.00  0.00    +0.000 C 
ENDBRANCH   9  16
BRANCH  10  18
ATOM     18  O3  UNL     1      64.453  57.792 109.737  0.00  0.00    +0.000 OA
ATOM     19  C27 UNL     1      65.280  58.549 108.861  0.00  0.00    +0.000 C 
ENDBRANCH  10  18
ENDBRANCH   7  11
ENDBRANCH   1   7
BRANCH   4  20
ATOM     20  C12 UNL     1      62.021  58.137 103.451  0.00  0.00    +0.000 C 
BRANCH  20  21
ATOM     21  C13 UNL     1      63.057  58.695 102.488  0.00  0.00    +0.000 A 
ATOM     22  C14 UNL     1      62.899  59.967 101.906  0.00  0.00    +0.000 A 
ATOM     23  C15 UNL     1      63.868  60.470 101.031  0.00  0.00    +0.000 A 
ATOM     24  C16 UNL     1      65.001  59.712 100.730  0.00  0.00    +0.000 A 
ATOM     25  F1  UNL     1      65.938  60.200  99.880  0.00  0.00    +0.000 F 
ATOM     26  C17 UNL     1      65.170  58.449 101.305  0.00  0.00    +0.000 A 
ATOM     27  C18 UNL     1      64.206  57.943 102.182  0.00  0.00    +0.000 A 
ENDBRANCH  20  21
BRANCH  20  28
ATOM     28  C19 UNL     1      60.989  57.381 102.628  0.00  0.00    +0.000 A 
ATOM     29  C20 UNL     1      59.677  57.880 102.533  0.00  0.00    +0.000 A 
ATOM     30  C21 UNL     1      58.726  57.227 101.743  0.00  0.00    +0.000 A 
ATOM     31  C22 UNL     1      59.075  56.074 101.035  0.00  0.00    +0.000 A 
ATOM     32  F2  UNL     1      58.149  55.442 100.274  0.00  0.00    +0.000 F 
ATOM     33  C23 UNL     1      60.379  55.578 101.110  0.00  0.00    +0.000 A 
ATOM     34  C24 UNL     1      61.333  56.230 101.894  0.00  0.00    +0.000 A 
ENDBRANCH  20  28
ENDBRANCH   4  20
TORSDOF 8
ENDMDL
MODEL 2
REMARK VINA RESULT:      -6.8      1.997      5.051
REMARK  Name = ./S4084.pdb
REMARK  11 active torsions:
REMARK  status: ('A' for Active; 'I' for Inactive)
REMARK    1  A    between atoms: C1_1  and  O1_2
REMARK    2  A    between atoms: O1_2  and  C2_3
REMARK    3  A    between atoms: C3_4  and  O2_5
REMARK    4  A    between atoms: O2_5  and  C4_6
REMARK    5  A    between atoms: C5_7  and  O3_33
REMARK    6  A    between atoms: C6_8  and  C7_9
REMARK    7  A    between atoms: C7_9  and  N1_10
REMARK    8  A    between atoms: N2_13  and  C12_16
REMARK    9  A    between atoms: C12_16  and  C13_17
REMARK   10  A    between atoms: C12_16  and  C19_24
REMARK   11  A    between atoms: O3_33  and  C27_34
REMARK                            x       y       z     vdW  Elec       q    Type
REMARK                         _______ _______ _______ _____ _____    ______ ____
ROOT
ATOM      1  N1  UNL     1      63.398  58.917 109.012  0.00  0.00    +0.000 NA
ATOM      2  C8  UNL     1      63.855  59.609 107.791  0.00  0.00    +0.000 C 
ATOM      3  C9  UNL     1      62.691  59.997 106.852  0.00  0.00    +0.000 C 
ATOM      4  N2  UNL     1      61.801  58.855 106.540  0.00  0.00    +0.000 NA
ATOM      5  C10 UNL     1      61.323  58.247 107.804  0.00  0.00    +0.000 C 
ATOM      6  C11 UNL     1      62.483  57.801 108.705  0.00  0.00    +0.000 C 
ENDROOT
BRANCH   1   7
ATOM      7  C7  UNL     1      62.875  59.843 110.041  0.00  0.00    +0.000 C 
BRANCH   7  11
ATOM      8  C2  UNL     1      65.674  59.906 113.337  0.00  0.00    +0.000 A 
ATOM      9  C3  UNL     1      64.297  59.868 113.595  0.00  0.00    +0.000 A 
ATOM     10  C5  UNL     1      63.379  59.800 112.522  0.00  0.00    +0.000 A 
ATOM     11  C6  UNL     1      63.841  59.900 111.195  0.00  0.00    +0.000 A 
ATOM     12  C25 UNL     1      65.219  59.970 110.950  0.00  0.00    +0.000 A 
ATOM     13  C26 UNL     1      66.128  59.952 112.007  0.00  0.00    +0.000 A 
BRANCH   8  15
ATOM     14  C1  UNL     1      67.538  58.916 114.679  0.00  0.00    +0.000 C 
ATOM     15  O1  UNL     1      66.556  59.916 114.428  0.00  0.00    +0.000 OA
ENDBRANCH   8  15
BRANCH   9  16
ATOM     16  O2  UNL     1      63.876  59.904 114.933  0.00  0.00    +0.000 OA
ATOM     17  C4  UNL     1      63.695  58.737 115.729  0.00  0.00    +0.000 C 
ENDBRANCH   9  16
BRANCH  10  18
ATOM     18  O3  UNL     1      62.015  59.602 112.753  0.00  0.00    +0.000 OA
ATOM     19  C27 UNL     1      61.149  60.681 113.083  0.00  0.00    +0.000 C 
ENDBRANCH  10  18
ENDBRANCH   7  11
ENDBRANCH   1   7
BRANCH   4  20
ATOM     20  C12 UNL     1      62.401  57.882 105.576  0.00  0.00    +0.000 C 
BRANCH  20  21
ATOM     21  C13 UNL     1      61.413  56.806 105.153  0.00  0.00    +0.000 A 
ATOM     22  C14 UNL     1      60.231  57.133 104.462  0.00  0.00    +0.000 A 
ATOM     23  C15 UNL     1      59.340  56.129 104.070  0.00  0.00    +0.000 A 
ATOM     24  C16 UNL     1      59.618  54.792 104.362  0.00  0.00    +0.000 A 
ATOM     25  F1  UNL     1      58.751  53.821 103.984  0.00  0.00    +0.000 F 
ATOM     26  C17 UNL     1      60.790  54.455 105.045  0.00  0.00    +0.000 A 
ATOM     27  C18 UNL     1      61.686  55.455 105.436  0.00  0.00    +0.000 A 
ENDBRANCH  20  21
BRANCH  20  28
ATOM     28  C19 UNL     1      62.907  58.564 104.315  0.00  0.00    +0.000 A 
ATOM     29  C20 UNL     1      63.755  57.861 103.439  0.00  0.00    +0.000 A 
ATOM     30  C21 UNL     1      64.193  58.452 102.250  0.00  0.00    +0.000 A 
ATOM     31  C22 UNL     1      63.785  59.746 101.919  0.00  0.00    +0.000 A 
ATOM     32  F2  UNL     1      64.215  60.317 100.767  0.00  0.00    +0.000 F 
ATOM     33  C23 UNL     1      62.931  60.449 102.773  0.00  0.00    +0.000 A 
ATOM     34  C24 UNL     1      62.487  59.860 103.960  0.00  0.00    +0.000 A 
ENDBRANCH  20  28
ENDBRANCH   4  20
TORSDOF 8
ENDMDL
MODEL 3
REMARK VINA RESULT:      -6.7     11.172     14.014
REMARK  Name = ./S4084.pdb
REMARK  11 active torsions:
REMARK  status: ('A' for Active; 'I' for Inactive)
REMARK    1  A    between atoms: C1_1  and  O1_2
REMARK    2  A    between atoms: O1_2  and  C2_3
REMARK    3  A    between atoms: C3_4  and  O2_5
REMARK    4  A    between atoms: O2_5  and  C4_6
REMARK    5  A    between atoms: C5_7  and  O3_33
REMARK    6  A    between atoms: C6_8  and  C7_9
REMARK    7  A    between atoms: C7_9  and  N1_10
REMARK    8  A    between atoms: N2_13  and  C12_16
REMARK    9  A    between atoms: C12_16  and  C13_17
REMARK   10  A    between atoms: C12_16  and  C19_24
REMARK   11  A    between atoms: O3_33  and  C27_34
REMARK                            x       y       z     vdW  Elec       q    Type
REMARK                         _______ _______ _______ _____ _____    ______ ____
ROOT
ATOM      1  N1  UNL     1      73.689  65.767 110.813  0.00  0.00    +0.000 NA
ATOM      2  C8  UNL     1      73.327  64.568 110.031  0.00  0.00    +0.000 C 
ATOM      3  C9  UNL     1      73.850  64.621 108.579  0.00  0.00    +0.000 C 
ATOM      4  N2  UNL     1      73.473  65.871 107.879  0.00  0.00    +0.000 NA
ATOM      5  C10 UNL     1      73.922  67.035 108.679  0.00  0.00    +0.000 C 
ATOM      6  C11 UNL     1      73.345  67.013 110.102  0.00  0.00    +0.000 C 
ENDROOT
BRANCH   1   7
ATOM      7  C7  UNL     1      75.082  65.736 111.311  0.00  0.00    +0.000 C 
BRANCH   7  11
ATOM      8  C2  UNL     1      75.205  66.613 115.544  0.00  0.00    +0.000 A 
ATOM      9  C3  UNL     1      75.038  65.289 115.113  0.00  0.00    +0.000 A 
ATOM     10  C5  UNL     1      75.044  64.991 113.731  0.00  0.00    +0.000 A 
ATOM     11  C6  UNL     1      75.088  66.036 112.787  0.00  0.00    +0.000 A 
ATOM     12  C25 UNL     1      75.223  67.359 113.230  0.00  0.00    +0.000 A 
ATOM     13  C26 UNL     1      75.302  67.644 114.593  0.00  0.00    +0.000 A 
BRANCH   8  15
ATOM     14  C1  UNL     1      74.215  67.502 117.662  0.00  0.00    +0.000 C 
ATOM     15  O1  UNL     1      75.251  66.863 116.924  0.00  0.00    +0.000 OA
ENDBRANCH   8  15
BRANCH   9  16
ATOM     16  O2  UNL     1      74.864  64.297 116.088  0.00  0.00    +0.000 OA
ATOM     17  C4  UNL     1      73.589  63.790 116.473  0.00  0.00    +0.000 C 
ENDBRANCH   9  16
BRANCH  10  18
ATOM     18  O3  UNL     1      75.039  63.669 113.281  0.00  0.00    +0.000 OA
ATOM     19  C27 UNL     1      76.224  62.880 113.264  0.00  0.00    +0.000 C 
ENDBRANCH  10  18
ENDBRANCH   7  11
ENDBRANCH   1   7
BRANCH   4  20
ATOM     20  C12 UNL     1      72.033  65.915 107.480  0.00  0.00    +0.000 C 
BRANCH  20  21
ATOM     21  C13 UNL     1      71.665  67.220 106.792  0.00  0.00    +0.000 A 
ATOM     22  C14 UNL     1      72.389  67.686 105.679  0.00  0.00    +0.000 A 
ATOM     23  C15 UNL     1      72.029  68.883 105.051  0.00  0.00    +0.000 A 
ATOM     24  C16 UNL     1      70.945  69.625 105.525  0.00  0.00    +0.000 A 
ATOM     25  F1  UNL     1      70.600  70.786 104.917  0.00  0.00    +0.000 F 
ATOM     26  C17 UNL     1      70.217  69.171 106.628  0.00  0.00    +0.000 A 
ATOM     27  C18 UNL     1      70.571  67.973 107.257  0.00  0.00    +0.000 A 
ENDBRANCH  20  21
BRANCH  20  28
ATOM     28  C19 UNL     1      71.663  64.779 106.540  0.00  0.00    +0.000 A 
ATOM     29  C20 UNL     1      70.449  64.093 106.724  0.00  0.00    +0.000 A 
ATOM     30  C21 UNL     1      70.068  63.077 105.842  0.00  0.00    +0.000 A 
ATOM     31  C22 UNL     1      70.889  62.741 104.763  0.00  0.00    +0.000 A 
ATOM     32  F2  UNL     1      70.518  61.753 103.913  0.00  0.00    +0.000 F 
ATOM     33  C23 UNL     1      72.091  63.425 104.562  0.00  0.00    +0.000 A 
ATOM     34  C24 UNL     1      72.473  64.444 105.438  0.00  0.00    +0.000 A 
ENDBRANCH  20  28
ENDBRANCH   4  20
TORSDOF 8
ENDMDL
MODEL 4
REMARK VINA RESULT:      -6.6      4.517      9.288
REMARK  Name = ./S4084.pdb
REMARK  11 active torsions:
REMARK  status: ('A' for Active; 'I' for Inactive)
REMARK    1  A    between atoms: C1_1  and  O1_2
REMARK    2  A    between atoms: O1_2  and  C2_3
REMARK    3  A    between atoms: C3_4  and  O2_5
REMARK    4  A    between atoms: O2_5  and  C4_6
REMARK    5  A    between atoms: C5_7  and  O3_33
REMARK    6  A    between atoms: C6_8  and  C7_9
REMARK    7  A    between atoms: C7_9  and  N1_10
REMARK    8  A    between atoms: N2_13  and  C12_16
REMARK    9  A    between atoms: C12_16  and  C13_17
REMARK   10  A    between atoms: C12_16  and  C19_24
REMARK   11  A    between atoms: O3_33  and  C27_34
REMARK                            x       y       z     vdW  Elec       q    Type
REMARK                         _______ _______ _______ _____ _____    ______ ____
ROOT
ATOM      1  N1  UNL     1      62.474  57.266 107.385  0.00  0.00    +0.000 NA
ATOM      2  C8  UNL     1      61.612  58.459 107.505  0.00  0.00    +0.000 C 
ATOM      3  C9  UNL     1      62.394  59.720 107.934  0.00  0.00    +0.000 C 
ATOM      4  N2  UNL     1      63.211  59.503 109.151  0.00  0.00    +0.000 NA
ATOM      5  C10 UNL     1      64.100  58.336 108.942  0.00  0.00    +0.000 C 
ATOM      6  C11 UNL     1      63.313  57.068 108.581  0.00  0.00    +0.000 C 
ENDROOT
BRANCH   1   7
ATOM      7  C7  UNL     1      63.235  57.227 106.116  0.00  0.00    +0.000 C 
BRANCH   7  11
ATOM      8  C2  UNL     1      60.578  56.432 102.798  0.00  0.00    +0.000 A 
ATOM      9  C3  UNL     1      61.314  57.624 102.829  0.00  0.00    +0.000 A 
ATOM     10  C5  UNL     1      62.219  57.868 103.887  0.00  0.00    +0.000 A 
ATOM     11  C6  UNL     1      62.286  56.975 104.975  0.00  0.00    +0.000 A 
ATOM     12  C25 UNL     1      61.522  55.800 104.948  0.00  0.00    +0.000 A 
ATOM     13  C26 UNL     1      60.692  55.519 103.863  0.00  0.00    +0.000 A 
BRANCH   8  15
ATOM     14  C1  UNL     1      59.907  55.147 100.760  0.00  0.00    +0.000 C 
ATOM     15  O1  UNL     1      59.733  56.198 101.703  0.00  0.00    +0.000 OA
ENDBRANCH   8  15
BRANCH   9  16
ATOM     16  O2  UNL     1      61.116  58.547 101.792  0.00  0.00    +0.000 OA
ATOM     17  C4  UNL     1      61.934  58.605 100.627  0.00  0.00    +0.000 C 
ENDBRANCH   9  16
BRANCH  10  18
ATOM     18  O3  UNL     1      63.077  58.971 103.860  0.00  0.00    +0.000 OA
ATOM     19  C27 UNL     1      62.626  60.276 104.202  0.00  0.00    +0.000 C 
ENDBRANCH  10  18
ENDBRANCH   7  11
ENDBRANCH   1   7
BRANCH   4  20
ATOM     20  C12 UNL     1      62.400  59.443 110.405  0.00  0.00    +0.000 C 
BRANCH  20  21
ATOM     21  C13 UNL     1      63.251  59.632 111.652  0.00  0.00    +0.000 A 
ATOM     22  C14 UNL     1      62.706  59.455 112.938  0.00  0.00    +0.000 A 
ATOM     23  C15 UNL     1      63.506  59.622 114.073  0.00  0.00    +0.000 A 
ATOM     24  C16 UNL     1      64.853  59.964 113.937  0.00  0.00    +0.000 A 
ATOM     25  F1  UNL     1      65.626  60.128 115.039  0.00  0.00    +0.000 F 
ATOM     26  C17 UNL     1      65.405  60.138 112.665  0.00  0.00    +0.000 A 
ATOM     27  C18 UNL     1      64.611  59.970 111.527  0.00  0.00    +0.000 A 
ENDBRANCH  20  21
BRANCH  20  28
ATOM     28  C19 UNL     1      61.305  60.498 110.431  0.00  0.00    +0.000 A 
ATOM     29  C20 UNL     1      59.963  60.102 110.574  0.00  0.00    +0.000 A 
ATOM     30  C21 UNL     1      58.946  61.059 110.648  0.00  0.00    +0.000 A 
ATOM     31  C22 UNL     1      59.257  62.419 110.589  0.00  0.00    +0.000 A 
ATOM     32  F2  UNL     1      58.268  63.343 110.657  0.00  0.00    +0.000 F 
ATOM     33  C23 UNL     1      60.589  62.825 110.462  0.00  0.00    +0.000 A 
ATOM     34  C24 UNL     1      61.608  61.873 110.392  0.00  0.00    +0.000 A 
ENDBRANCH  20  28
ENDBRANCH   4  20
TORSDOF 8
ENDMDL
MODEL 5
REMARK VINA RESULT:      -6.6      4.477      9.928
REMARK  Name = ./S4084.pdb
REMARK  11 active torsions:
REMARK  status: ('A' for Active; 'I' for Inactive)
REMARK    1  A    between atoms: C1_1  and  O1_2
REMARK    2  A    between atoms: O1_2  and  C2_3
REMARK    3  A    between atoms: C3_4  and  O2_5
REMARK    4  A    between atoms: O2_5  and  C4_6
REMARK    5  A    between atoms: C5_7  and  O3_33
REMARK    6  A    between atoms: C6_8  and  C7_9
REMARK    7  A    between atoms: C7_9  and  N1_10
REMARK    8  A    between atoms: N2_13  and  C12_16
REMARK    9  A    between atoms: C12_16  and  C13_17
REMARK   10  A    between atoms: C12_16  and  C19_24
REMARK   11  A    between atoms: O3_33  and  C27_34
REMARK                            x       y       z     vdW  Elec       q    Type
REMARK                         _______ _______ _______ _____ _____    ______ ____
ROOT
ATOM      1  N1  UNL     1      63.593  58.660 107.191  0.00  0.00    +0.000 NA
ATOM      2  C8  UNL     1      64.508  58.555 108.345  0.00  0.00    +0.000 C 
ATOM      3  C9  UNL     1      63.830  57.947 109.592  0.00  0.00    +0.000 C 
ATOM      4  N2  UNL     1      62.566  58.631 109.949  0.00  0.00    +0.000 NA
ATOM      5  C10 UNL     1      61.666  58.644 108.772  0.00  0.00    +0.000 C 
ATOM      6  C11 UNL     1      62.320  59.311 107.553  0.00  0.00    +0.000 C 
ENDROOT
BRANCH   1   7
ATOM      7  C7  UNL     1      63.418  57.378 106.472  0.00  0.00    +0.000 C 
BRANCH   7  11
ATOM      8  C2  UNL     1      61.722  58.243 102.589  0.00  0.00    +0.000 A 
ATOM      9  C3  UNL     1      61.151  57.244 103.390  0.00  0.00    +0.000 A 
ATOM     10  C5  UNL     1      61.673  56.990 104.679  0.00  0.00    +0.000 A 
ATOM     11  C6  UNL     1      62.843  57.648 105.107  0.00  0.00    +0.000 A 
ATOM     12  C25 UNL     1      63.423  58.624 104.284  0.00  0.00    +0.000 A 
ATOM     13  C26 UNL     1      62.859  58.934 103.048  0.00  0.00    +0.000 A 
BRANCH   8  15
ATOM     14  C1  UNL     1      61.868  58.906 100.182  0.00  0.00    +0.000 C 
ATOM     15  O1  UNL     1      61.142  58.507 101.339  0.00  0.00    +0.000 OA
ENDBRANCH   8  15
BRANCH   9  16
ATOM     16  O2  UNL     1      60.069  56.521 102.869  0.00  0.00    +0.000 OA
ATOM     17  C4  UNL     1      60.202  55.241 102.258  0.00  0.00    +0.000 C 
ENDBRANCH   9  16
BRANCH  10  18
ATOM     18  O3  UNL     1      61.027  56.114 105.556  0.00  0.00    +0.000 OA
ATOM     19  C27 UNL     1      59.890  56.516 106.312  0.00  0.00    +0.000 C 
ENDBRANCH  10  18
ENDBRANCH   7  11
ENDBRANCH   1   7
BRANCH   4  20
ATOM     20  C12 UNL     1      62.775  59.970 110.579  0.00  0.00    +0.000 C 
BRANCH  20  21
ATOM     21  C13 UNL     1      61.472  60.595 111.053  0.00  0.00    +0.000 A 
ATOM     22  C14 UNL     1      60.506  59.834 111.737  0.00  0.00    +0.000 A 
ATOM     23  C15 UNL     1      59.318  60.427 112.176  0.00  0.00    +0.000 A 
ATOM     24  C16 UNL     1      59.083  61.784 111.938  0.00  0.00    +0.000 A 
ATOM     25  F1  UNL     1      57.930  62.357 112.362  0.00  0.00    +0.000 F 
ATOM     26  C17 UNL     1      60.037  62.550 111.263  0.00  0.00    +0.000 A 
ATOM     27  C18 UNL     1      61.227  61.962 110.825  0.00  0.00    +0.000 A 
ENDBRANCH  20  21
BRANCH  20  28
ATOM     28  C19 UNL     1      63.713  59.902 111.774  0.00  0.00    +0.000 A 
ATOM     29  C20 UNL     1      65.082  60.174 111.598  0.00  0.00    +0.000 A 
ATOM     30  C21 UNL     1      65.953  60.163 112.692  0.00  0.00    +0.000 A 
ATOM     31  C22 UNL     1      65.468  59.888 113.972  0.00  0.00    +0.000 A 
ATOM     32  F2  UNL     1      66.316  59.874 115.029  0.00  0.00    +0.000 F 
ATOM     33  C23 UNL     1      64.107  59.630 114.162  0.00  0.00    +0.000 A 
ATOM     34  C24 UNL     1      63.232  59.645 113.072  0.00  0.00    +0.000 A 
ENDBRANCH  20  28
ENDBRANCH   4  20
TORSDOF 8
ENDMDL
MODEL 6
REMARK VINA RESULT:      -6.5     11.006     15.828
REMARK  Name = ./S4084.pdb
REMARK  11 active torsions:
REMARK  status: ('A' for Active; 'I' for Inactive)
REMARK    1  A    between atoms: C1_1  and  O1_2
REMARK    2  A    between atoms: O1_2  and  C2_3
REMARK    3  A    between atoms: C3_4  and  O2_5
REMARK    4  A    between atoms: O2_5  and  C4_6
REMARK    5  A    between atoms: C5_7  and  O3_33
REMARK    6  A    between atoms: C6_8  and  C7_9
REMARK    7  A    between atoms: C7_9  and  N1_10
REMARK    8  A    between atoms: N2_13  and  C12_16
REMARK    9  A    between atoms: C12_16  and  C13_17
REMARK   10  A    between atoms: C12_16  and  C19_24
REMARK   11  A    between atoms: O3_33  and  C27_34
REMARK                            x       y       z     vdW  Elec       q    Type
REMARK                         _______ _______ _______ _____ _____    ______ ____
ROOT
ATOM      1  N1  UNL     1      71.717  64.495 108.390  0.00  0.00    +0.000 NA
ATOM      2  C8  UNL     1      71.577  65.416 109.535  0.00  0.00    +0.000 C 
ATOM      3  C9  UNL     1      72.871  66.208 109.827  0.00  0.00    +0.000 C 
ATOM      4  N2  UNL     1      74.060  65.334 109.962  0.00  0.00    +0.000 NA
ATOM      5  C10 UNL     1      74.183  64.484 108.754  0.00  0.00    +0.000 C 
ATOM      6  C11 UNL     1      72.919  63.648 108.506  0.00  0.00    +0.000 C 
ENDROOT
BRANCH   1   7
ATOM      7  C7  UNL     1      71.598  65.175 107.081  0.00  0.00    +0.000 C 
BRANCH   7  11
ATOM      8  C2  UNL     1      70.813  62.160 104.081  0.00  0.00    +0.000 A 
ATOM      9  C3  UNL     1      71.968  62.950 103.988  0.00  0.00    +0.000 A 
ATOM     10  C5  UNL     1      72.253  63.904 104.991  0.00  0.00    +0.000 A 
ATOM     11  C6  UNL     1      71.315  64.152 106.013  0.00  0.00    +0.000 A 
ATOM     12  C25 UNL     1      70.149  63.377 106.078  0.00  0.00    +0.000 A 
ATOM     13  C26 UNL     1      69.908  62.378 105.136  0.00  0.00    +0.000 A 
BRANCH   8  15
ATOM     14  C1  UNL     1      69.985  61.434 101.836  0.00  0.00    +0.000 C 
ATOM     15  O1  UNL     1      70.593  61.184 103.098  0.00  0.00    +0.000 OA
ENDBRANCH   8  15
BRANCH   9  16
ATOM     16  O2  UNL     1      72.807  62.761 102.881  0.00  0.00    +0.000 OA
ATOM     17  C4  UNL     1      73.946  61.906 102.897  0.00  0.00    +0.000 C 
ENDBRANCH   9  16
BRANCH  10  18
ATOM     18  O3  UNL     1      73.470  64.590 105.006  0.00  0.00    +0.000 OA
ATOM     19  C27 UNL     1      73.672  65.770 104.237  0.00  0.00    +0.000 C 
ENDBRANCH  10  18
ENDBRANCH   7  11
ENDBRANCH   1   7
BRANCH   4  20
ATOM     20  C12 UNL     1      74.097  64.580 111.252  0.00  0.00    +0.000 C 
BRANCH  20  21
ATOM     21  C13 UNL     1      75.309  63.667 111.353  0.00  0.00    +0.000 A 
ATOM     22  C14 UNL     1      76.434  63.857 110.527  0.00  0.00    +0.000 A 
ATOM     23  C15 UNL     1      77.545  63.015 110.641  0.00  0.00    +0.000 A 
ATOM     24  C16 UNL     1      77.545  61.978 111.577  0.00  0.00    +0.000 A 
ATOM     25  F1  UNL     1      78.622  61.161 111.684  0.00  0.00    +0.000 F 
ATOM     26  C17 UNL     1      76.436  61.783 112.404  0.00  0.00    +0.000 A 
ATOM     27  C18 UNL     1      75.324  62.624 112.297  0.00  0.00    +0.000 A 
ENDBRANCH  20  21
BRANCH  20  28
ATOM     28  C19 UNL     1      74.119  65.508 112.458  0.00  0.00    +0.000 A 
ATOM     29  C20 UNL     1      75.157  66.448 112.591  0.00  0.00    +0.000 A 
ATOM     30  C21 UNL     1      75.170  67.342 113.666  0.00  0.00    +0.000 A 
ATOM     31  C22 UNL     1      74.145  67.312 114.615  0.00  0.00    +0.000 A 
ATOM     32  F2  UNL     1      74.164  68.177 115.658  0.00  0.00    +0.000 F 
ATOM     33  C23 UNL     1      73.101  66.392 114.485  0.00  0.00    +0.000 A 
ATOM     34  C24 UNL     1      73.082  65.501 113.409  0.00  0.00    +0.000 A 
ENDBRANCH  20  28
ENDBRANCH   4  20
TORSDOF 8
ENDMDL
MODEL 7
REMARK VINA RESULT:      -6.4      9.574     10.932
REMARK  Name = ./S4084.pdb
REMARK  11 active torsions:
REMARK  status: ('A' for Active; 'I' for Inactive)
REMARK    1  A    between atoms: C1_1  and  O1_2
REMARK    2  A    between atoms: O1_2  and  C2_3
REMARK    3  A    between atoms: C3_4  and  O2_5
REMARK    4  A    between atoms: O2_5  and  C4_6
REMARK    5  A    between atoms: C5_7  and  O3_33
REMARK    6  A    between atoms: C6_8  and  C7_9
REMARK    7  A    between atoms: C7_9  and  N1_10
REMARK    8  A    between atoms: N2_13  and  C12_16
REMARK    9  A    between atoms: C12_16  and  C13_17
REMARK   10  A    between atoms: C12_16  and  C19_24
REMARK   11  A    between atoms: O3_33  and  C27_34
REMARK                            x       y       z     vdW  Elec       q    Type
REMARK                         _______ _______ _______ _____ _____    ______ ____
ROOT
ATOM      1  N1  UNL     1      70.931  62.610 103.436  0.00  0.00    +0.000 NA
ATOM      2  C8  UNL     1      69.997  62.733 102.299  0.00  0.00    +0.000 C 
ATOM      3  C9  UNL     1      69.787  61.397 101.552  0.00  0.00    +0.000 C 
ATOM      4  N2  UNL     1      71.062  60.756 101.154  0.00  0.00    +0.000 NA
ATOM      5  C10 UNL     1      71.925  60.600 102.348  0.00  0.00    +0.000 C 
ATOM      6  C11 UNL     1      72.187  61.940 103.050  0.00  0.00    +0.000 C 
ENDROOT
BRANCH   1   7
ATOM      7  C7  UNL     1      70.301  62.032 104.644  0.00  0.00    +0.000 C 
BRANCH   7  11
ATOM      8  C2  UNL     1      71.804  64.180 108.083  0.00  0.00    +0.000 A 
ATOM      9  C3  UNL     1      72.227  62.865 107.846  0.00  0.00    +0.000 A 
ATOM     10  C5  UNL     1      71.775  62.175 106.697  0.00  0.00    +0.000 A 
ATOM     11  C6  UNL     1      70.802  62.760 105.863  0.00  0.00    +0.000 A 
ATOM     12  C25 UNL     1      70.363  64.064 106.129  0.00  0.00    +0.000 A 
ATOM     13  C26 UNL     1      70.872  64.775 107.214  0.00  0.00    +0.000 A 
BRANCH   8  15
ATOM     14  C1  UNL     1      71.619  65.026 110.430  0.00  0.00    +0.000 C 
ATOM     15  O1  UNL     1      72.318  64.853 109.202  0.00  0.00    +0.000 OA
ENDBRANCH   8  15
BRANCH   9  16
ATOM     16  O2  UNL     1      73.094  62.274 108.776  0.00  0.00    +0.000 OA
ATOM     17  C4  UNL     1      74.511  62.260 108.628  0.00  0.00    +0.000 C 
ENDBRANCH   9  16
BRANCH  10  18
ATOM     18  O3  UNL     1      72.303  60.927 106.354  0.00  0.00    +0.000 OA
ATOM     19  C27 UNL     1      71.829  59.726 106.952  0.00  0.00    +0.000 C 
ENDBRANCH  10  18
ENDBRANCH   7  11
ENDBRANCH   1   7
BRANCH   4  20
ATOM     20  C12 UNL     1      71.726  61.427  99.996  0.00  0.00    +0.000 C 
BRANCH  20  21
ATOM     21  C13 UNL     1      73.096  60.839  99.696  0.00  0.00    +0.000 A 
ATOM     22  C14 UNL     1      73.230  59.555  99.133  0.00  0.00    +0.000 A 
ATOM     23  C15 UNL     1      74.497  59.034  98.853  0.00  0.00    +0.000 A 
ATOM     24  C16 UNL     1      75.641  59.786  99.130  0.00  0.00    +0.000 A 
ATOM     25  F1  UNL     1      76.869  59.278  98.861  0.00  0.00    +0.000 F 
ATOM     26  C17 UNL     1      75.520  61.063  99.686  0.00  0.00    +0.000 A 
ATOM     27  C18 UNL     1      74.255  61.590  99.965  0.00  0.00    +0.000 A 
ENDBRANCH  20  21
BRANCH  20  28
ATOM     28  C19 UNL     1      70.897  61.333  98.725  0.00  0.00    +0.000 A 
ATOM     29  C20 UNL     1      71.315  62.021  97.571  0.00  0.00    +0.000 A 
ATOM     30  C21 UNL     1      70.592  61.909  96.379  0.00  0.00    +0.000 A 
ATOM     31  C22 UNL     1      69.452  61.104  96.323  0.00  0.00    +0.000 A 
ATOM     32  F2  UNL     1      68.752  61.002  95.167  0.00  0.00    +0.000 F 
ATOM     33  C23 UNL     1      69.036  60.405  97.459  0.00  0.00    +0.000 A 
ATOM     34  C24 UNL     1      69.757  60.510  98.651  0.00  0.00    +0.000 A 
ENDBRANCH  20  28
ENDBRANCH   4  20
TORSDOF 8
ENDMDL
MODEL 8
REMARK VINA RESULT:      -6.4     11.359     15.892
REMARK  Name = ./S4084.pdb
REMARK  11 active torsions:
REMARK  status: ('A' for Active; 'I' for Inactive)
REMARK    1  A    between atoms: C1_1  and  O1_2
REMARK    2  A    between atoms: O1_2  and  C2_3
REMARK    3  A    between atoms: C3_4  and  O2_5
REMARK    4  A    between atoms: O2_5  and  C4_6
REMARK    5  A    between atoms: C5_7  and  O3_33
REMARK    6  A    between atoms: C6_8  and  C7_9
REMARK    7  A    between atoms: C7_9  and  N1_10
REMARK    8  A    between atoms: N2_13  and  C12_16
REMARK    9  A    between atoms: C12_16  and  C13_17
REMARK   10  A    between atoms: C12_16  and  C19_24
REMARK   11  A    between atoms: O3_33  and  C27_34
REMARK                            x       y       z     vdW  Elec       q    Type
REMARK                         _______ _______ _______ _____ _____    ______ ____
ROOT
ATOM      1  N1  UNL     1      72.833  63.489 107.021  0.00  0.00    +0.000 NA
ATOM      2  C8  UNL     1      74.244  63.058 106.965  0.00  0.00    +0.000 C 
ATOM      3  C9  UNL     1      74.765  62.539 108.324  0.00  0.00    +0.000 C 
ATOM      4  N2  UNL     1      74.521  63.490 109.432  0.00  0.00    +0.000 NA
ATOM      5  C10 UNL     1      73.079  63.831 109.477  0.00  0.00    +0.000 C 
ATOM      6  C11 UNL     1      72.581  64.409 108.145  0.00  0.00    +0.000 C 
ENDROOT
BRANCH   1   7
ATOM      7  C7  UNL     1      71.879  62.359 106.956  0.00  0.00    +0.000 C 
BRANCH   7  11
ATOM      8  C2  UNL     1      70.582  61.697 102.885  0.00  0.00    +0.000 A 
ATOM      9  C3  UNL     1      71.623  60.924 103.416  0.00  0.00    +0.000 A 
ATOM     10  C5  UNL     1      72.019  61.104 104.762  0.00  0.00    +0.000 A 
ATOM     11  C6  UNL     1      71.457  62.146 105.527  0.00  0.00    +0.000 A 
ATOM     12  C25 UNL     1      70.438  62.932 104.973  0.00  0.00    +0.000 A 
ATOM     13  C26 UNL     1      69.989  62.699 103.674  0.00  0.00    +0.000 A 
BRANCH   8  15
ATOM     14  C1  UNL     1      70.566  62.235 100.442  0.00  0.00    +0.000 C 
ATOM     15  O1  UNL     1      70.177  61.450 101.564  0.00  0.00    +0.000 OA
ENDBRANCH   8  15
BRANCH   9  16
ATOM     16  O2  UNL     1      72.245  59.989 102.576  0.00  0.00    +0.000 OA
ATOM     17  C4  UNL     1      73.470  60.240 101.894  0.00  0.00    +0.000 C 
ENDBRANCH   9  16
BRANCH  10  18
ATOM     18  O3  UNL     1      72.942  60.243 105.361  0.00  0.00    +0.000 OA
ATOM     19  C27 UNL     1      72.571  58.945 105.809  0.00  0.00    +0.000 C 
ENDBRANCH  10  18
ENDBRANCH   7  11
ENDBRANCH   1   7
BRANCH   4  20
ATOM     20  C12 UNL     1      75.433  64.674 109.409  0.00  0.00    +0.000 C 
BRANCH  20  21
ATOM     21  C13 UNL     1      75.317  65.517 110.669  0.00  0.00    +0.000 A 
ATOM     22  C14 UNL     1      75.173  64.918 111.935  0.00  0.00    +0.000 A 
ATOM     23  C15 UNL     1      75.080  65.709 113.085  0.00  0.00    +0.000 A 
ATOM     24  C16 UNL     1      75.130  67.101 112.984  0.00  0.00    +0.000 A 
ATOM     25  F1  UNL     1      75.036  67.866 114.100  0.00  0.00    +0.000 F 
ATOM     26  C17 UNL     1      75.276  67.706 111.733  0.00  0.00    +0.000 A 
ATOM     27  C18 UNL     1      75.373  66.920 110.581  0.00  0.00    +0.000 A 
ENDBRANCH  20  21
BRANCH  20  28
ATOM     28  C19 UNL     1      76.892  64.270 109.258  0.00  0.00    +0.000 A 
ATOM     29  C20 UNL     1      77.671  64.853 108.242  0.00  0.00    +0.000 A 
ATOM     30  C21 UNL     1      79.026  64.532 108.116  0.00  0.00    +0.000 A 
ATOM     31  C22 UNL     1      79.619  63.633 109.005  0.00  0.00    +0.000 A 
ATOM     32  F2  UNL     1      80.932  63.321 108.877  0.00  0.00    +0.000 F 
ATOM     33  C23 UNL     1      78.858  63.058 110.027  0.00  0.00    +0.000 A 
ATOM     34  C24 UNL     1      77.505  63.380 110.160  0.00  0.00    +0.000 A 
ENDBRANCH  20  28
ENDBRANCH   4  20
TORSDOF 8
ENDMDL
MODEL 9
REMARK VINA RESULT:      -6.3     10.802     14.152
REMARK  Name = ./S4084.pdb
REMARK  11 active torsions:
REMARK  status: ('A' for Active; 'I' for Inactive)
REMARK    1  A    between atoms: C1_1  and  O1_2
REMARK    2  A    between atoms: O1_2  and  C2_3
REMARK    3  A    between atoms: C3_4  and  O2_5
REMARK    4  A    between atoms: O2_5  and  C4_6
REMARK    5  A    between atoms: C5_7  and  O3_33
REMARK    6  A    between atoms: C6_8  and  C7_9
REMARK    7  A    between atoms: C7_9  and  N1_10
REMARK    8  A    between atoms: N2_13  and  C12_16
REMARK    9  A    between atoms: C12_16  and  C13_17
REMARK   10  A    between atoms: C12_16  and  C19_24
REMARK   11  A    between atoms: O3_33  and  C27_34
REMARK                            x       y       z     vdW  Elec       q    Type
REMARK                         _______ _______ _______ _____ _____    ______ ____
ROOT
ATOM      1  N1  UNL     1      74.563  65.118 110.540  0.00  0.00    +0.000 NA
ATOM      2  C8  UNL     1      74.330  66.501 110.080  0.00  0.00    +0.000 C 
ATOM      3  C9  UNL     1      72.831  66.825 109.894  0.00  0.00    +0.000 C 
ATOM      4  N2  UNL     1      72.132  65.834 109.042  0.00  0.00    +0.000 NA
ATOM      5  C10 UNL     1      72.348  64.476 109.594  0.00  0.00    +0.000 C 
ATOM      6  C11 UNL     1      73.840  64.132 109.715  0.00  0.00    +0.000 C 
ENDROOT
BRANCH   1   7
ATOM      7  C7  UNL     1      74.344  64.946 111.994  0.00  0.00    +0.000 C 
BRANCH   7  11
ATOM      8  C2  UNL     1      76.830  61.678 113.349  0.00  0.00    +0.000 A 
ATOM      9  C3  UNL     1      75.510  61.782 113.807  0.00  0.00    +0.000 A 
ATOM     10  C5  UNL     1      74.678  62.821 113.330  0.00  0.00    +0.000 A 
ATOM     11  C6  UNL     1      75.213  63.825 112.498  0.00  0.00    +0.000 A 
ATOM     12  C25 UNL     1      76.545  63.727 112.072  0.00  0.00    +0.000 A 
ATOM     13  C26 UNL     1      77.340  62.655 112.475  0.00  0.00    +0.000 A 
BRANCH   8  15
ATOM     14  C1  UNL     1      78.613  60.695 114.803  0.00  0.00    +0.000 C 
ATOM     15  O1  UNL     1      77.608  60.600 113.800  0.00  0.00    +0.000 OA
ENDBRANCH   8  15
BRANCH   9  16
ATOM     16  O2  UNL     1      75.059  60.837 114.739  0.00  0.00    +0.000 OA
ATOM     17  C4  UNL     1      75.130  61.030 116.149  0.00  0.00    +0.000 C 
ENDBRANCH   9  16
BRANCH  10  18
ATOM     18  O3  UNL     1      73.317  62.856 113.646  0.00  0.00    +0.000 OA
ATOM     19  C27 UNL     1      72.839  63.505 114.819  0.00  0.00    +0.000 C 
ENDBRANCH  10  18
ENDBRANCH   7  11
ENDBRANCH   1   7
BRANCH   4  20
ATOM     20  C12 UNL     1      72.456  65.968 107.590  0.00  0.00    +0.000 C 
BRANCH  20  21
ATOM     21  C13 UNL     1      71.952  64.788 106.775  0.00  0.00    +0.000 A 
ATOM     22  C14 UNL     1      72.842  63.959 106.065  0.00  0.00    +0.000 A 
ATOM     23  C15 UNL     1      72.362  62.871 105.330  0.00  0.00    +0.000 A 
ATOM     24  C16 UNL     1      70.992  62.598 105.296  0.00  0.00    +0.000 A 
ATOM     25  F1  UNL     1      70.529  61.544 104.580  0.00  0.00    +0.000 F 
ATOM     26  C17 UNL     1      70.100  63.412 105.998  0.00  0.00    +0.000 A 
ATOM     27  C18 UNL     1      70.575  64.499 106.737  0.00  0.00    +0.000 A 
ENDBRANCH  20  21
BRANCH  20  28
ATOM     28  C19 UNL     1      71.864  67.232 106.984  0.00  0.00    +0.000 A 
ATOM     29  C20 UNL     1      72.377  67.726 105.772  0.00  0.00    +0.000 A 
ATOM     30  C21 UNL     1      71.816  68.859 105.174  0.00  0.00    +0.000 A 
ATOM     31  C22 UNL     1      70.733  69.505 105.775  0.00  0.00    +0.000 A 
ATOM     32  F2  UNL     1      70.194  70.605 105.195  0.00  0.00    +0.000 F 
ATOM     33  C23 UNL     1      70.206  69.014 106.973  0.00  0.00    +0.000 A 
ATOM     34  C24 UNL     1      70.760  67.880 107.571  0.00  0.00    +0.000 A 
ENDBRANCH  20  28
ENDBRANCH   4  20
TORSDOF 8
ENDMDL
MODEL 10
REMARK VINA RESULT:      -6.3     11.092     13.990
REMARK  Name = ./S4084.pdb
REMARK  11 active torsions:
REMARK  status: ('A' for Active; 'I' for Inactive)
REMARK    1  A    between atoms: C1_1  and  O1_2
REMARK    2  A    between atoms: O1_2  and  C2_3
REMARK    3  A    between atoms: C3_4  and  O2_5
REMARK    4  A    between atoms: O2_5  and  C4_6
REMARK    5  A    between atoms: C5_7  and  O3_33
REMARK    6  A    between atoms: C6_8  and  C7_9
REMARK    7  A    between atoms: C7_9  and  N1_10
REMARK    8  A    between atoms: N2_13  and  C12_16
REMARK    9  A    between atoms: C12_16  and  C13_17
REMARK   10  A    between atoms: C12_16  and  C19_24
REMARK   11  A    between atoms: O3_33  and  C27_34
REMARK                            x       y       z     vdW  Elec       q    Type
REMARK                         _______ _______ _______ _____ _____    ______ ____
ROOT
ATOM      1  N1  UNL     1      73.932  65.463 110.609  0.00  0.00    +0.000 NA
ATOM      2  C8  UNL     1      73.602  64.363 109.682  0.00  0.00    +0.000 C 
ATOM      3  C9  UNL     1      74.049  64.649 108.231  0.00  0.00    +0.000 C 
ATOM      4  N2  UNL     1      73.569  65.957 107.730  0.00  0.00    +0.000 NA
ATOM      5  C10 UNL     1      73.990  67.025 108.668  0.00  0.00    +0.000 C 
ATOM      6  C11 UNL     1      73.485  66.771 110.096  0.00  0.00    +0.000 C 
ENDROOT
BRANCH   1   7
ATOM      7  C7  UNL     1      75.347  65.450 111.042  0.00  0.00    +0.000 C 
BRANCH   7  11
ATOM      8  C2  UNL     1      75.651  62.907 114.527  0.00  0.00    +0.000 A 
ATOM      9  C3  UNL     1      75.321  64.261 114.681  0.00  0.00    +0.000 A 
ATOM     10  C5  UNL     1      75.174  65.085 113.542  0.00  0.00    +0.000 A 
ATOM     11  C6  UNL     1      75.485  64.580 112.264  0.00  0.00    +0.000 A 
ATOM     12  C25 UNL     1      75.846  63.233 112.126  0.00  0.00    +0.000 A 
ATOM     13  C26 UNL     1      75.908  62.399 113.241  0.00  0.00    +0.000 A 
BRANCH   8  15
ATOM     14  C1  UNL     1      76.949  61.707 116.296  0.00  0.00    +0.000 C 
ATOM     15  O1  UNL     1      75.732  62.106 115.677  0.00  0.00    +0.000 OA
ENDBRANCH   8  15
BRANCH   9  16
ATOM     16  O2  UNL     1      75.149  64.753 115.983  0.00  0.00    +0.000 OA
ATOM     17  C4  UNL     1      76.157  65.473 116.688  0.00  0.00    +0.000 C 
ENDBRANCH   9  16
BRANCH  10  18
ATOM     18  O3  UNL     1      74.692  66.392 113.657  0.00  0.00    +0.000 OA
ATOM     19  C27 UNL     1      73.322  66.662 113.933  0.00  0.00    +0.000 C 
ENDBRANCH  10  18
ENDBRANCH   7  11
ENDBRANCH   1   7
BRANCH   4  20
ATOM     20  C12 UNL     1      72.111  65.966 107.400  0.00  0.00    +0.000 C 
BRANCH  20  21
ATOM     21  C13 UNL     1      71.678  67.263 106.735  0.00  0.00    +0.000 A 
ATOM     22  C14 UNL     1      70.580  68.000 107.220  0.00  0.00    +0.000 A 
ATOM     23  C15 UNL     1      70.203  69.196 106.603  0.00  0.00    +0.000 A 
ATOM     24  C16 UNL     1      70.915  69.670 105.499  0.00  0.00    +0.000 A 
ATOM     25  F1  UNL     1      70.546  70.829 104.900  0.00  0.00    +0.000 F 
ATOM     26  C17 UNL     1      72.009  68.950 105.011  0.00  0.00    +0.000 A 
ATOM     27  C18 UNL     1      72.392  67.754 105.626  0.00  0.00    +0.000 A 
ENDBRANCH  20  21
BRANCH  20  28
ATOM     28  C19 UNL     1      71.726  64.823 106.474  0.00  0.00    +0.000 A 
ATOM     29  C20 UNL     1      70.516  64.138 106.684  0.00  0.00    +0.000 A 
ATOM     30  C21 UNL     1      70.120  63.116 105.816  0.00  0.00    +0.000 A 
ATOM     31  C22 UNL     1      70.923  62.772 104.726  0.00  0.00    +0.000 A 
ATOM     32  F2  UNL     1      70.539  61.778 103.889  0.00  0.00    +0.000 F 
ATOM     33  C23 UNL     1      72.121  63.455 104.499  0.00  0.00    +0.000 A 
ATOM     34  C24 UNL     1      72.518  64.481 105.361  0.00  0.00    +0.000 A 
ENDBRANCH  20  28
ENDBRANCH   4  20
TORSDOF 8
ENDMDL
MODEL 11
REMARK VINA RESULT:      -6.3     10.831     14.039
REMARK  Name = ./S4084.pdb
REMARK  11 active torsions:
REMARK  status: ('A' for Active; 'I' for Inactive)
REMARK    1  A    between atoms: C1_1  and  O1_2
REMARK    2  A    between atoms: O1_2  and  C2_3
REMARK    3  A    between atoms: C3_4  and  O2_5
REMARK    4  A    between atoms: O2_5  and  C4_6
REMARK    5  A    between atoms: C5_7  and  O3_33
REMARK    6  A    between atoms: C6_8  and  C7_9
REMARK    7  A    between atoms: C7_9  and  N1_10
REMARK    8  A    between atoms: N2_13  and  C12_16
REMARK    9  A    between atoms: C12_16  and  C13_17
REMARK   10  A    between atoms: C12_16  and  C19_24
REMARK   11  A    between atoms: O3_33  and  C27_34
REMARK                            x       y       z     vdW  Elec       q    Type
REMARK                         _______ _______ _______ _____ _____    ______ ____
ROOT
ATOM      1  N1  UNL     1      73.184  65.484 111.238  0.00  0.00    +0.000 NA
ATOM      2  C8  UNL     1      73.076  66.815 110.609  0.00  0.00    +0.000 C 
ATOM      3  C9  UNL     1      71.707  67.049 109.935  0.00  0.00    +0.000 C 
ATOM      4  N2  UNL     1      71.337  65.963 108.997  0.00  0.00    +0.000 NA
ATOM      5  C10 UNL     1      71.398  64.662 109.706  0.00  0.00    +0.000 C 
ATOM      6  C11 UNL     1      72.783  64.404 110.318  0.00  0.00    +0.000 C 
ENDROOT
BRANCH   1   7
ATOM      7  C7  UNL     1      72.519  65.412 112.559  0.00  0.00    +0.000 C 
BRANCH   7  11
ATOM      8  C2  UNL     1      75.587  65.571 115.603  0.00  0.00    +0.000 A 
ATOM      9  C3  UNL     1      75.216  64.336 115.054  0.00  0.00    +0.000 A 
ATOM     10  C5  UNL     1      74.248  64.283 114.025  0.00  0.00    +0.000 A 
ATOM     11  C6  UNL     1      73.563  65.454 113.643  0.00  0.00    +0.000 A 
ATOM     12  C25 UNL     1      73.921  66.680 114.222  0.00  0.00    +0.000 A 
ATOM     13  C26 UNL     1      74.935  66.743 115.177  0.00  0.00    +0.000 A 
BRANCH   8  15
ATOM     14  C1  UNL     1      76.352  65.596 117.984  0.00  0.00    +0.000 C 
ATOM     15  O1  UNL     1      76.593  65.590 116.582  0.00  0.00    +0.000 OA
ENDBRANCH   8  15
BRANCH   9  16
ATOM     16  O2  UNL     1      75.829  63.181 115.559  0.00  0.00    +0.000 OA
ATOM     17  C4  UNL     1      75.214  62.319 116.513  0.00  0.00    +0.000 C 
ENDBRANCH   9  16
BRANCH  10  18
ATOM     18  O3  UNL     1      73.977  63.088 113.353  0.00  0.00    +0.000 OA
ATOM     19  C27 UNL     1      74.943  62.468 112.513  0.00  0.00    +0.000 C 
ENDBRANCH  10  18
ENDBRANCH   7  11
ENDBRANCH   1   7
BRANCH   4  20
ATOM     20  C12 UNL     1      72.101  66.003 107.714  0.00  0.00    +0.000 C 
BRANCH  20  21
ATOM     21  C13 UNL     1      71.824  64.790 106.839  0.00  0.00    +0.000 A 
ATOM     22  C14 UNL     1      70.509  64.437 106.479  0.00  0.00    +0.000 A 
ATOM     23  C15 UNL     1      70.273  63.325 105.664  0.00  0.00    +0.000 A 
ATOM     24  C16 UNL     1      71.343  62.557 105.201  0.00  0.00    +0.000 A 
ATOM     25  F1  UNL     1      71.111  61.477 104.413  0.00  0.00    +0.000 F 
ATOM     26  C17 UNL     1      72.652  62.899 105.549  0.00  0.00    +0.000 A 
ATOM     27  C18 UNL     1      72.894  64.011 106.361  0.00  0.00    +0.000 A 
ENDBRANCH  20  21
BRANCH  20  28
ATOM     28  C19 UNL     1      71.782  67.243 106.894  0.00  0.00    +0.000 A 
ATOM     29  C20 UNL     1      72.602  67.584 105.803  0.00  0.00    +0.000 A 
ATOM     30  C21 UNL     1      72.298  68.694 105.008  0.00  0.00    +0.000 A 
ATOM     31  C22 UNL     1      71.171  69.469 105.288  0.00  0.00    +0.000 A 
ATOM     32  F2  UNL     1      70.882  70.546 104.517  0.00  0.00    +0.000 F 
ATOM     33  C23 UNL     1      70.341  69.132 106.361  0.00  0.00    +0.000 A 
ATOM     34  C24 UNL     1      70.638  68.022 107.155  0.00  0.00    +0.000 A 
ENDBRANCH  20  28
ENDBRANCH   4  20
TORSDOF 8
ENDMDL
MODEL 12
REMARK VINA RESULT:      -6.3     11.167     13.989
REMARK  Name = ./S4084.pdb
REMARK  11 active torsions:
REMARK  status: ('A' for Active; 'I' for Inactive)
REMARK    1  A    between atoms: C1_1  and  O1_2
REMARK    2  A    between atoms: O1_2  and  C2_3
REMARK    3  A    between atoms: C3_4  and  O2_5
REMARK    4  A    between atoms: O2_5  and  C4_6
REMARK    5  A    between atoms: C5_7  and  O3_33
REMARK    6  A    between atoms: C6_8  and  C7_9
REMARK    7  A    between atoms: C7_9  and  N1_10
REMARK    8  A    between atoms: N2_13  and  C12_16
REMARK    9  A    between atoms: C12_16  and  C13_17
REMARK   10  A    between atoms: C12_16  and  C19_24
REMARK   11  A    between atoms: O3_33  and  C27_34
REMARK                            x       y       z     vdW  Elec       q    Type
REMARK                         _______ _______ _______ _____ _____    ______ ____
ROOT
ATOM      1  N1  UNL     1      73.961  65.375 110.621  0.00  0.00    +0.000 NA
ATOM      2  C8  UNL     1      73.579  64.237 109.761  0.00  0.00    +0.000 C 
ATOM      3  C9  UNL     1      74.029  64.418 108.295  0.00  0.00    +0.000 C 
ATOM      4  N2  UNL     1      73.600  65.714 107.719  0.00  0.00    +0.000 NA
ATOM      5  C10 UNL     1      74.071  66.817 108.591  0.00  0.00    +0.000 C 
ATOM      6  C11 UNL     1      73.566  66.668 110.033  0.00  0.00    +0.000 C 
ENDROOT
BRANCH   1   7
ATOM      7  C7  UNL     1      75.378  65.328 111.048  0.00  0.00    +0.000 C 
BRANCH   7  11
ATOM      8  C2  UNL     1      75.763  63.181 114.782  0.00  0.00    +0.000 A 
ATOM      9  C3  UNL     1      76.146  62.564 113.583  0.00  0.00    +0.000 A 
ATOM     10  C5  UNL     1      76.067  63.278 112.365  0.00  0.00    +0.000 A 
ATOM     11  C6  UNL     1      75.482  64.560 112.339  0.00  0.00    +0.000 A 
ATOM     12  C25 UNL     1      75.074  65.154 113.541  0.00  0.00    +0.000 A 
ATOM     13  C26 UNL     1      75.230  64.482 114.752  0.00  0.00    +0.000 A 
BRANCH   8  15
ATOM     14  C1  UNL     1      76.852  62.775 116.996  0.00  0.00    +0.000 C 
ATOM     15  O1  UNL     1      75.910  62.461 115.978  0.00  0.00    +0.000 OA
ENDBRANCH   8  15
BRANCH   9  16
ATOM     16  O2  UNL     1      76.598  61.238 113.640  0.00  0.00    +0.000 OA
ATOM     17  C4  UNL     1      77.957  60.882 113.873  0.00  0.00    +0.000 C 
ENDBRANCH   9  16
BRANCH  10  18
ATOM     18  O3  UNL     1      76.588  62.745 111.184  0.00  0.00    +0.000 OA
ATOM     19  C27 UNL     1      77.967  62.870 110.853  0.00  0.00    +0.000 C 
ENDBRANCH  10  18
ENDBRANCH   7  11
ENDBRANCH   1   7
BRANCH   4  20
ATOM     20  C12 UNL     1      72.142  65.765 107.396  0.00  0.00    +0.000 C 
BRANCH  20  21
ATOM     21  C13 UNL     1      71.728  67.104 106.807  0.00  0.00    +0.000 A 
ATOM     22  C14 UNL     1      72.363  67.625 105.663  0.00  0.00    +0.000 A 
ATOM     23  C15 UNL     1      71.961  68.854 105.129  0.00  0.00    +0.000 A 
ATOM     24  C16 UNL     1      70.924  69.573 105.727  0.00  0.00    +0.000 A 
ATOM     25  F1  UNL     1      70.538  70.765 105.209  0.00  0.00    +0.000 F 
ATOM     26  C17 UNL     1      70.284  69.064 106.861  0.00  0.00    +0.000 A 
ATOM     27  C18 UNL     1      70.680  67.835 107.397  0.00  0.00    +0.000 A 
ENDBRANCH  20  21
BRANCH  20  28
ATOM     28  C19 UNL     1      71.736  64.683 106.406  0.00  0.00    +0.000 A 
ATOM     29  C20 UNL     1      70.483  64.058 106.537  0.00  0.00    +0.000 A 
ATOM     30  C21 UNL     1      70.071  63.095 105.610  0.00  0.00    +0.000 A 
ATOM     31  C22 UNL     1      70.901  62.751 104.541  0.00  0.00    +0.000 A 
ATOM     32  F2  UNL     1      70.500  61.815 103.647  0.00  0.00    +0.000 F 
ATOM     33  C23 UNL     1      72.142  63.376 104.393  0.00  0.00    +0.000 A 
ATOM     34  C24 UNL     1      72.556  64.342 105.313  0.00  0.00    +0.000 A 
ENDBRANCH  20  28
ENDBRANCH   4  20
TORSDOF 8
ENDMDL
MODEL 13
REMARK VINA RESULT:      -6.2     10.795     14.891
REMARK  Name = ./S4084.pdb
REMARK  11 active torsions:
REMARK  status: ('A' for Active; 'I' for Inactive)
REMARK    1  A    between atoms: C1_1  and  O1_2
REMARK    2  A    between atoms: O1_2  and  C2_3
REMARK    3  A    between atoms: C3_4  and  O2_5
REMARK    4  A    between atoms: O2_5  and  C4_6
REMARK    5  A    between atoms: C5_7  and  O3_33
REMARK    6  A    between atoms: C6_8  and  C7_9
REMARK    7  A    between atoms: C7_9  and  N1_10
REMARK    8  A    between atoms: N2_13  and  C12_16
REMARK    9  A    between atoms: C12_16  and  C13_17
REMARK   10  A    between atoms: C12_16  and  C19_24
REMARK   11  A    between atoms: O3_33  and  C27_34
REMARK                            x       y       z     vdW  Elec       q    Type
REMARK                         _______ _______ _______ _____ _____    ______ ____
ROOT
ATOM      1  N1  UNL     1      73.539  62.176 109.080  0.00  0.00    +0.000 NA
ATOM      2  C8  UNL     1      72.681  63.093 108.304  0.00  0.00    +0.000 C 
ATOM      3  C9  UNL     1      73.399  64.407 107.925  0.00  0.00    +0.000 C 
ATOM      4  N2  UNL     1      74.014  65.081 109.092  0.00  0.00    +0.000 NA
ATOM      5  C10 UNL     1      74.914  64.130 109.788  0.00  0.00    +0.000 C 
ATOM      6  C11 UNL     1      74.180  62.854 110.222  0.00  0.00    +0.000 C 
ENDROOT
BRANCH   1   7
ATOM      7  C7  UNL     1      74.488  61.416 108.235  0.00  0.00    +0.000 C 
BRANCH   7  11
ATOM      8  C2  UNL     1      72.560  57.914 106.585  0.00  0.00    +0.000 A 
ATOM      9  C3  UNL     1      72.981  58.943 105.731  0.00  0.00    +0.000 A 
ATOM     10  C5  UNL     1      73.655  60.068 106.260  0.00  0.00    +0.000 A 
ATOM     11  C6  UNL     1      73.786  60.216 107.655  0.00  0.00    +0.000 A 
ATOM     12  C25 UNL     1      73.332  59.195 108.502  0.00  0.00    +0.000 A 
ATOM     13  C26 UNL     1      72.745  58.047 107.974  0.00  0.00    +0.000 A 
BRANCH   8  15
ATOM     14  C1  UNL     1      70.811  56.126 106.564  0.00  0.00    +0.000 C 
ATOM     15  O1  UNL     1      71.947  56.786 106.018  0.00  0.00    +0.000 OA
ENDBRANCH   8  15
BRANCH   9  16
ATOM     16  O2  UNL     1      72.711  58.814 104.362  0.00  0.00    +0.000 OA
ATOM     17  C4  UNL     1      73.651  58.304 103.421  0.00  0.00    +0.000 C 
ENDBRANCH   9  16
BRANCH  10  18
ATOM     18  O3  UNL     1      74.223  61.028 105.419  0.00  0.00    +0.000 OA
ATOM     19  C27 UNL     1      73.439  62.051 104.816  0.00  0.00    +0.000 C 
ENDBRANCH  10  18
ENDBRANCH   7  11
ENDBRANCH   1   7
BRANCH   4  20
ATOM     20  C12 UNL     1      73.018  65.751 109.983  0.00  0.00    +0.000 C 
BRANCH  20  21
ATOM     21  C13 UNL     1      73.656  66.307 111.246  0.00  0.00    +0.000 A 
ATOM     22  C14 UNL     1      74.799  67.127 111.185  0.00  0.00    +0.000 A 
ATOM     23  C15 UNL     1      75.366  67.639 112.356  0.00  0.00    +0.000 A 
ATOM     24  C16 UNL     1      74.799  67.341 113.597  0.00  0.00    +0.000 A 
ATOM     25  F1  UNL     1      75.352  67.837 114.732  0.00  0.00    +0.000 F 
ATOM     26  C17 UNL     1      73.662  66.532 113.670  0.00  0.00    +0.000 A 
ATOM     27  C18 UNL     1      73.090  66.019 112.502  0.00  0.00    +0.000 A 
ENDBRANCH  20  21
BRANCH  20  28
ATOM     28  C19 UNL     1      72.305  66.898 109.284  0.00  0.00    +0.000 A 
ATOM     29  C20 UNL     1      73.059  67.883 108.621  0.00  0.00    +0.000 A 
ATOM     30  C21 UNL     1      72.422  68.919 107.932  0.00  0.00    +0.000 A 
ATOM     31  C22 UNL     1      71.027  68.980 107.891  0.00  0.00    +0.000 A 
ATOM     32  F2  UNL     1      70.413  69.989 107.226  0.00  0.00    +0.000 F 
ATOM     33  C23 UNL     1      70.267  68.000 108.534  0.00  0.00    +0.000 A 
ATOM     34  C24 UNL     1      70.900  66.959 109.219  0.00  0.00    +0.000 A 
ENDBRANCH  20  28
ENDBRANCH   4  20
TORSDOF 8
ENDMDL
MODEL 14
REMARK VINA RESULT:      -6.2     11.033     14.044
REMARK  Name = ./S4084.pdb
REMARK  11 active torsions:
REMARK  status: ('A' for Active; 'I' for Inactive)
REMARK    1  A    between atoms: C1_1  and  O1_2
REMARK    2  A    between atoms: O1_2  and  C2_3
REMARK    3  A    between atoms: C3_4  and  O2_5
REMARK    4  A    between atoms: O2_5  and  C4_6
REMARK    5  A    between atoms: C5_7  and  O3_33
REMARK    6  A    between atoms: C6_8  and  C7_9
REMARK    7  A    between atoms: C7_9  and  N1_10
REMARK    8  A    between atoms: N2_13  and  C12_16
REMARK    9  A    between atoms: C12_16  and  C13_17
REMARK   10  A    between atoms: C12_16  and  C19_24
REMARK   11  A    between atoms: O3_33  and  C27_34
REMARK                            x       y       z     vdW  Elec       q    Type
REMARK                         _______ _______ _______ _____ _____    ______ ____
ROOT
ATOM      1  N1  UNL     1      74.703  64.301 110.245  0.00  0.00    +0.000 NA
ATOM      2  C8  UNL     1      74.247  63.217 109.353  0.00  0.00    +0.000 C 
ATOM      3  C9  UNL     1      74.389  63.573 107.857  0.00  0.00    +0.000 C 
ATOM      4  N2  UNL     1      73.762  64.871 107.514  0.00  0.00    +0.000 NA
ATOM      5  C10 UNL     1      74.310  65.928 108.397  0.00  0.00    +0.000 C 
ATOM      6  C11 UNL     1      74.107  65.601 109.884  0.00  0.00    +0.000 C 
ENDROOT
BRANCH   1   7
ATOM      7  C7  UNL     1      76.175  64.348 110.394  0.00  0.00    +0.000 C 
BRANCH   7  11
ATOM      8  C2  UNL     1      77.329  61.466 113.404  0.00  0.00    +0.000 A 
ATOM      9  C3  UNL     1      76.410  62.475 113.724  0.00  0.00    +0.000 A 
ATOM     10  C5  UNL     1      75.993  63.390 112.731  0.00  0.00    +0.000 A 
ATOM     11  C6  UNL     1      76.598  63.370 111.458  0.00  0.00    +0.000 A 
ATOM     12  C25 UNL     1      77.540  62.376 111.160  0.00  0.00    +0.000 A 
ATOM     13  C26 UNL     1      77.887  61.421 112.114  0.00  0.00    +0.000 A 
BRANCH   8  15
ATOM     14  C1  UNL     1      78.923  60.520 115.084  0.00  0.00    +0.000 C 
ATOM     15  O1  UNL     1      77.675  60.540 114.400  0.00  0.00    +0.000 OA
ENDBRANCH   8  15
BRANCH   9  16
ATOM     16  O2  UNL     1      75.934  62.538 115.041  0.00  0.00    +0.000 OA
ATOM     17  C4  UNL     1      76.568  63.295 116.069  0.00  0.00    +0.000 C 
ENDBRANCH   9  16
BRANCH  10  18
ATOM     18  O3  UNL     1      74.964  64.302 112.980  0.00  0.00    +0.000 OA
ATOM     19  C27 UNL     1      75.214  65.562 113.593  0.00  0.00    +0.000 C 
ENDBRANCH  10  18
ENDBRANCH   7  11
ENDBRANCH   1   7
BRANCH   4  20
ATOM     20  C12 UNL     1      72.269  64.815 107.474  0.00  0.00    +0.000 C 
BRANCH  20  21
ATOM     21  C13 UNL     1      71.641  66.198 107.396  0.00  0.00    +0.000 A 
ATOM     22  C14 UNL     1      71.856  67.033 106.283  0.00  0.00    +0.000 A 
ATOM     23  C15 UNL     1      71.261  68.298 106.223  0.00  0.00    +0.000 A 
ATOM     24  C16 UNL     1      70.448  68.740 107.269  0.00  0.00    +0.000 A 
ATOM     25  F1  UNL     1      69.875  69.967 107.210  0.00  0.00    +0.000 F 
ATOM     26  C17 UNL     1      70.225  67.918 108.377  0.00  0.00    +0.000 A 
ATOM     27  C18 UNL     1      70.815  66.652 108.441  0.00  0.00    +0.000 A 
ENDBRANCH  20  21
BRANCH  20  28
ATOM     28  C19 UNL     1      71.758  64.010 106.289  0.00  0.00    +0.000 A 
ATOM     29  C20 UNL     1      70.488  63.408 106.356  0.00  0.00    +0.000 A 
ATOM     30  C21 UNL     1      69.980  62.704 105.260  0.00  0.00    +0.000 A 
ATOM     31  C22 UNL     1      70.727  62.600 104.085  0.00  0.00    +0.000 A 
ATOM     32  F2  UNL     1      70.232  61.914 103.026  0.00  0.00    +0.000 F 
ATOM     33  C23 UNL     1      71.983  63.207 104.002  0.00  0.00    +0.000 A 
ATOM     34  C24 UNL     1      72.494  63.915 105.093  0.00  0.00    +0.000 A 
ENDBRANCH  20  28
ENDBRANCH   4  20
TORSDOF 8
ENDMDL
MODEL 15
REMARK VINA RESULT:      -6.2     11.286     16.281
REMARK  Name = ./S4084.pdb
REMARK  11 active torsions:
REMARK  status: ('A' for Active; 'I' for Inactive)
REMARK    1  A    between atoms: C1_1  and  O1_2
REMARK    2  A    between atoms: O1_2  and  C2_3
REMARK    3  A    between atoms: C3_4  and  O2_5
REMARK    4  A    between atoms: O2_5  and  C4_6
REMARK    5  A    between atoms: C5_7  and  O3_33
REMARK    6  A    between atoms: C6_8  and  C7_9
REMARK    7  A    between atoms: C7_9  and  N1_10
REMARK    8  A    between atoms: N2_13  and  C12_16
REMARK    9  A    between atoms: C12_16  and  C13_17
REMARK   10  A    between atoms: C12_16  and  C19_24
REMARK   11  A    between atoms: O3_33  and  C27_34
REMARK                            x       y       z     vdW  Elec       q    Type
REMARK                         _______ _______ _______ _____ _____    ______ ____
ROOT
ATOM      1  N1  UNL     1      74.245  62.953 107.207  0.00  0.00    +0.000 NA
ATOM      2  C8  UNL     1      75.041  62.061 108.073  0.00  0.00    +0.000 C 
ATOM      3  C9  UNL     1      74.340  61.744 109.412  0.00  0.00    +0.000 C 
ATOM      4  N2  UNL     1      73.898  62.962 110.130  0.00  0.00    +0.000 NA
ATOM      5  C10 UNL     1      73.048  63.779 109.232  0.00  0.00    +0.000 C 
ATOM      6  C11 UNL     1      73.775  64.150 107.931  0.00  0.00    +0.000 C 
ENDROOT
BRANCH   1   7
ATOM      7  C7  UNL     1      73.170  62.244 106.477  0.00  0.00    +0.000 C 
BRANCH   7  11
ATOM      8  C2  UNL     1      73.890  62.722 102.240  0.00  0.00    +0.000 A 
ATOM      9  C3  UNL     1      72.611  62.963 102.759  0.00  0.00    +0.000 A 
ATOM     10  C5  UNL     1      72.381  62.855 104.150  0.00  0.00    +0.000 A 
ATOM     11  C6  UNL     1      73.403  62.379 104.996  0.00  0.00    +0.000 A 
ATOM     12  C25 UNL     1      74.670  62.110 104.460  0.00  0.00    +0.000 A 
ATOM     13  C26 UNL     1      74.919  62.299 103.101  0.00  0.00    +0.000 A 
BRANCH   8  15
ATOM     14  C1  UNL     1      74.442  61.851  99.961  0.00  0.00    +0.000 C 
ATOM     15  O1  UNL     1      74.094  62.896 100.863  0.00  0.00    +0.000 OA
ENDBRANCH   8  15
BRANCH   9  16
ATOM     16  O2  UNL     1      71.590  63.306 101.862  0.00  0.00    +0.000 OA
ATOM     17  C4  UNL     1      70.740  62.348 101.238  0.00  0.00    +0.000 C 
ENDBRANCH   9  16
BRANCH  10  18
ATOM     18  O3  UNL     1      71.161  63.242 104.711  0.00  0.00    +0.000 OA
ATOM     19  C27 UNL     1      70.069  62.337 104.821  0.00  0.00    +0.000 C 
ENDBRANCH  10  18
ENDBRANCH   7  11
ENDBRANCH   1   7
BRANCH   4  20
ATOM     20  C12 UNL     1      75.021  63.713 110.769  0.00  0.00    +0.000 C 
BRANCH  20  21
ATOM     21  C13 UNL     1      74.531  64.720 111.798  0.00  0.00    +0.000 A 
ATOM     22  C14 UNL     1      75.286  65.866 112.113  0.00  0.00    +0.000 A 
ATOM     23  C15 UNL     1      74.814  66.787 113.053  0.00  0.00    +0.000 A 
ATOM     24  C16 UNL     1      73.587  66.576 113.686  0.00  0.00    +0.000 A 
ATOM     25  F1  UNL     1      73.134  67.470 114.600  0.00  0.00    +0.000 F 
ATOM     26  C17 UNL     1      72.828  65.444 113.380  0.00  0.00    +0.000 A 
ATOM     27  C18 UNL     1      73.294  64.521 112.438  0.00  0.00    +0.000 A 
ENDBRANCH  20  21
BRANCH  20  28
ATOM     28  C19 UNL     1      76.007  62.787 111.465  0.00  0.00    +0.000 A 
ATOM     29  C20 UNL     1      77.281  62.583 110.905  0.00  0.00    +0.000 A 
ATOM     30  C21 UNL     1      78.219  61.774 111.554  0.00  0.00    +0.000 A 
ATOM     31  C22 UNL     1      77.899  61.167 112.770  0.00  0.00    +0.000 A 
ATOM     32  F2  UNL     1      78.809  60.380 113.394  0.00  0.00    +0.000 F 
ATOM     33  C23 UNL     1      76.641  61.374 113.344  0.00  0.00    +0.000 A 
ATOM     34  C24 UNL     1      75.703  62.186 112.701  0.00  0.00    +0.000 A 
ENDBRANCH  20  28
ENDBRANCH   4  20
TORSDOF 8
ENDMDL
MODEL 16
REMARK VINA RESULT:      -6.1     11.151     15.054
REMARK  Name = ./S4084.pdb
REMARK  11 active torsions:
REMARK  status: ('A' for Active; 'I' for Inactive)
REMARK    1  A    between atoms: C1_1  and  O1_2
REMARK    2  A    between atoms: O1_2  and  C2_3
REMARK    3  A    between atoms: C3_4  and  O2_5
REMARK    4  A    between atoms: O2_5  and  C4_6
REMARK    5  A    between atoms: C5_7  and  O3_33
REMARK    6  A    between atoms: C6_8  and  C7_9
REMARK    7  A    between atoms: C7_9  and  N1_10
REMARK    8  A    between atoms: N2_13  and  C12_16
REMARK    9  A    between atoms: C12_16  and  C13_17
REMARK   10  A    between atoms: C12_16  and  C19_24
REMARK   11  A    between atoms: O3_33  and  C27_34
REMARK                            x       y       z     vdW  Elec       q    Type
REMARK                         _______ _______ _______ _____ _____    ______ ____
ROOT
ATOM      1  N1  UNL     1      74.097  61.858 109.293  0.00  0.00    +0.000 NA
ATOM      2  C8  UNL     1      73.258  62.773 108.494  0.00  0.00    +0.000 C 
ATOM      3  C9  UNL     1      73.901  64.166 108.310  0.00  0.00    +0.000 C 
ATOM      4  N2  UNL     1      74.321  64.778 109.592  0.00  0.00    +0.000 NA
ATOM      5  C10 UNL     1      75.213  63.840 110.313  0.00  0.00    +0.000 C 
ATOM      6  C11 UNL     1      74.545  62.478 110.554  0.00  0.00    +0.000 C 
ENDROOT
BRANCH   1   7
ATOM      7  C7  UNL     1      75.196  61.249 108.511  0.00  0.00    +0.000 C 
BRANCH   7  11
ATOM      8  C2  UNL     1      73.470  59.388 105.010  0.00  0.00    +0.000 A 
ATOM      9  C3  UNL     1      73.525  58.679 106.218  0.00  0.00    +0.000 A 
ATOM     10  C5  UNL     1      74.045  59.300 107.377  0.00  0.00    +0.000 A 
ATOM     11  C6  UNL     1      74.626  60.581 107.288  0.00  0.00    +0.000 A 
ATOM     12  C25 UNL     1      74.593  61.268 106.067  0.00  0.00    +0.000 A 
ATOM     13  C26 UNL     1      74.004  60.688 104.944  0.00  0.00    +0.000 A 
BRANCH   8  15
ATOM     14  C1  UNL     1      73.577  58.502 102.673  0.00  0.00    +0.000 C 
ATOM     15  O1  UNL     1      72.894  58.760 103.895  0.00  0.00    +0.000 OA
ENDBRANCH   8  15
BRANCH   9  16
ATOM     16  O2  UNL     1      73.057  57.358 106.228  0.00  0.00    +0.000 OA
ATOM     17  C4  UNL     1      71.679  57.015 106.350  0.00  0.00    +0.000 C 
ENDBRANCH   9  16
BRANCH  10  18
ATOM     18  O3  UNL     1      73.966  58.675 108.624  0.00  0.00    +0.000 OA
ATOM     19  C27 UNL     1      72.739  58.587 109.340  0.00  0.00    +0.000 C 
ENDBRANCH  10  18
ENDBRANCH   7  11
ENDBRANCH   1   7
BRANCH   4  20
ATOM     20  C12 UNL     1      73.177  65.290 110.406  0.00  0.00    +0.000 C 
BRANCH  20  21
ATOM     21  C13 UNL     1      73.637  65.957 111.693  0.00  0.00    +0.000 A 
ATOM     22  C14 UNL     1      72.997  65.694 112.919  0.00  0.00    +0.000 A 
ATOM     23  C15 UNL     1      73.441  66.307 114.095  0.00  0.00    +0.000 A 
ATOM     24  C16 UNL     1      74.526  67.185 114.060  0.00  0.00    +0.000 A 
ATOM     25  F1  UNL     1      74.953  67.781 115.201  0.00  0.00    +0.000 F 
ATOM     26  C17 UNL     1      75.172  67.451 112.850  0.00  0.00    +0.000 A 
ATOM     27  C18 UNL     1      74.734  66.839 111.672  0.00  0.00    +0.000 A 
ENDBRANCH  20  21
BRANCH  20  28
ATOM     28  C19 UNL     1      72.335  66.300 109.641  0.00  0.00    +0.000 A 
ATOM     29  C20 UNL     1      72.965  67.376 108.989  0.00  0.00    +0.000 A 
ATOM     30  C21 UNL     1      72.214  68.288 108.241  0.00  0.00    +0.000 A 
ATOM     31  C22 UNL     1      70.831  68.133 108.129  0.00  0.00    +0.000 A 
ATOM     32  F2  UNL     1      70.106  69.021 107.406  0.00  0.00    +0.000 F 
ATOM     33  C23 UNL     1      70.196  67.059 108.760  0.00  0.00    +0.000 A 
ATOM     34  C24 UNL     1      70.943  66.143 109.505  0.00  0.00    +0.000 A 
ENDBRANCH  20  28
ENDBRANCH   4  20
TORSDOF 8
ENDMDL
MODEL 17
REMARK VINA RESULT:      -6.0     10.628     12.243
REMARK  Name = ./S4084.pdb
REMARK  11 active torsions:
REMARK  status: ('A' for Active; 'I' for Inactive)
REMARK    1  A    between atoms: C1_1  and  O1_2
REMARK    2  A    between atoms: O1_2  and  C2_3
REMARK    3  A    between atoms: C3_4  and  O2_5
REMARK    4  A    between atoms: O2_5  and  C4_6
REMARK    5  A    between atoms: C5_7  and  O3_33
REMARK    6  A    between atoms: C6_8  and  C7_9
REMARK    7  A    between atoms: C7_9  and  N1_10
REMARK    8  A    between atoms: N2_13  and  C12_16
REMARK    9  A    between atoms: C12_16  and  C13_17
REMARK   10  A    between atoms: C12_16  and  C19_24
REMARK   11  A    between atoms: O3_33  and  C27_34
REMARK                            x       y       z     vdW  Elec       q    Type
REMARK                         _______ _______ _______ _____ _____    ______ ____
ROOT
ATOM      1  N1  UNL     1      71.910  62.761 103.628  0.00  0.00    +0.000 NA
ATOM      2  C8  UNL     1      71.173  62.513 102.373  0.00  0.00    +0.000 C 
ATOM      3  C9  UNL     1      71.566  61.177 101.704  0.00  0.00    +0.000 C 
ATOM      4  N2  UNL     1      73.029  61.035 101.523  0.00  0.00    +0.000 NA
ATOM      5  C10 UNL     1      73.705  61.228 102.828  0.00  0.00    +0.000 C 
ATOM      6  C11 UNL     1      73.365  62.586 103.458  0.00  0.00    +0.000 C 
ENDROOT
BRANCH   1   7
ATOM      7  C7  UNL     1      71.355  62.019 104.782  0.00  0.00    +0.000 C 
BRANCH   7  11
ATOM      8  C2  UNL     1      71.469  64.634 108.224  0.00  0.00    +0.000 A 
ATOM      9  C3  UNL     1      72.227  63.456 108.221  0.00  0.00    +0.000 A 
ATOM     10  C5  UNL     1      72.231  62.621 107.080  0.00  0.00    +0.000 A 
ATOM     11  C6  UNL     1      71.374  62.906 105.999  0.00  0.00    +0.000 A 
ATOM     12  C25 UNL     1      70.595  64.071 106.026  0.00  0.00    +0.000 A 
ATOM     13  C26 UNL     1      70.656  64.938 107.116  0.00  0.00    +0.000 A 
BRANCH   8  15
ATOM     14  C1  UNL     1      72.037  66.798 109.342  0.00  0.00    +0.000 C 
ATOM     15  O1  UNL     1      71.535  65.467 109.352  0.00  0.00    +0.000 OA
ENDBRANCH   8  15
BRANCH   9  16
ATOM     16  O2  UNL     1      72.964  63.144 109.373  0.00  0.00    +0.000 OA
ATOM     17  C4  UNL     1      74.325  63.519 109.559  0.00  0.00    +0.000 C 
ENDBRANCH   9  16
BRANCH  10  18
ATOM     18  O3  UNL     1      73.098  61.529 106.990  0.00  0.00    +0.000 OA
ATOM     19  C27 UNL     1      72.862  60.327 107.715  0.00  0.00    +0.000 C 
ENDBRANCH  10  18
ENDBRANCH   7  11
ENDBRANCH   1   7
BRANCH   4  20
ATOM     20  C12 UNL     1      73.574  61.878 100.416  0.00  0.00    +0.000 C 
BRANCH  20  21
ATOM     21  C13 UNL     1      75.095  61.888 100.394  0.00  0.00    +0.000 A 
ATOM     22  C14 UNL     1      75.829  60.697 100.233  0.00  0.00    +0.000 A 
ATOM     23  C15 UNL     1      77.227  60.725 100.202  0.00  0.00    +0.000 A 
ATOM     24  C16 UNL     1      77.905  61.939 100.331  0.00  0.00    +0.000 A 
ATOM     25  F1  UNL     1      79.261  61.965 100.305  0.00  0.00    +0.000 F 
ATOM     26  C17 UNL     1      77.188  63.128 100.488  0.00  0.00    +0.000 A 
ATOM     27  C18 UNL     1      75.790  63.105 100.516  0.00  0.00    +0.000 A 
ENDBRANCH  20  21
BRANCH  20  28
ATOM     28  C19 UNL     1      73.097  61.409  99.050  0.00  0.00    +0.000 A 
ATOM     29  C20 UNL     1      73.199  60.049  98.709  0.00  0.00    +0.000 A 
ATOM     30  C21 UNL     1      72.722  59.590  97.477  0.00  0.00    +0.000 A 
ATOM     31  C22 UNL     1      72.134  60.481  96.577  0.00  0.00    +0.000 A 
ATOM     32  F2  UNL     1      71.677  60.033  95.382  0.00  0.00    +0.000 F 
ATOM     33  C23 UNL     1      72.014  61.832  96.911  0.00  0.00    +0.000 A 
ATOM     34  C24 UNL     1      72.485  62.295  98.143  0.00  0.00    +0.000 A 
ENDBRANCH  20  28
ENDBRANCH   4  20
TORSDOF 8
ENDMDL
MODEL 18
REMARK VINA RESULT:      -6.0     13.468     16.420
REMARK  Name = ./S4084.pdb
REMARK  11 active torsions:
REMARK  status: ('A' for Active; 'I' for Inactive)
REMARK    1  A    between atoms: C1_1  and  O1_2
REMARK    2  A    between atoms: O1_2  and  C2_3
REMARK    3  A    between atoms: C3_4  and  O2_5
REMARK    4  A    between atoms: O2_5  and  C4_6
REMARK    5  A    between atoms: C5_7  and  O3_33
REMARK    6  A    between atoms: C6_8  and  C7_9
REMARK    7  A    between atoms: C7_9  and  N1_10
REMARK    8  A    between atoms: N2_13  and  C12_16
REMARK    9  A    between atoms: C12_16  and  C13_17
REMARK   10  A    between atoms: C12_16  and  C19_24
REMARK   11  A    between atoms: O3_33  and  C27_34
REMARK                            x       y       z     vdW  Elec       q    Type
REMARK                         _______ _______ _______ _____ _____    ______ ____
ROOT
ATOM      1  N1  UNL     1      76.362  63.178 113.420  0.00  0.00    +0.000 NA
ATOM      2  C8  UNL     1      75.346  64.250 113.422  0.00  0.00    +0.000 C 
ATOM      3  C9  UNL     1      74.020  63.818 112.760  0.00  0.00    +0.000 C 
ATOM      4  N2  UNL     1      74.214  63.243 111.408  0.00  0.00    +0.000 NA
ATOM      5  C10 UNL     1      75.191  62.130 111.485  0.00  0.00    +0.000 C 
ATOM      6  C11 UNL     1      76.532  62.581 112.082  0.00  0.00    +0.000 C 
ENDROOT
BRANCH   1   7
ATOM      7  C7  UNL     1      76.151  62.179 114.491  0.00  0.00    +0.000 C 
BRANCH   7  11
ATOM      8  C2  UNL     1      79.917  60.443 115.719  0.00  0.00    +0.000 A 
ATOM      9  C3  UNL     1      79.521  61.683 116.239  0.00  0.00    +0.000 A 
ATOM     10  C5  UNL     1      78.269  62.233 115.877  0.00  0.00    +0.000 A 
ATOM     11  C6  UNL     1      77.480  61.598 114.897  0.00  0.00    +0.000 A 
ATOM     12  C25 UNL     1      77.901  60.374 114.362  0.00  0.00    +0.000 A 
ATOM     13  C26 UNL     1      79.096  59.790 114.782  0.00  0.00    +0.000 A 
BRANCH   8  15
ATOM     14  C1  UNL     1      81.525  58.543 115.969  0.00  0.00    +0.000 C 
ATOM     15  O1  UNL     1      81.140  59.902 116.146  0.00  0.00    +0.000 OA
ENDBRANCH   8  15
BRANCH   9  16
ATOM     16  O2  UNL     1      80.400  62.343 117.109  0.00  0.00    +0.000 OA
ATOM     17  C4  UNL     1      80.349  62.207 118.527  0.00  0.00    +0.000 C 
ENDBRANCH   9  16
BRANCH  10  18
ATOM     18  O3  UNL     1      77.783  63.385 116.500  0.00  0.00    +0.000 OA
ATOM     19  C27 UNL     1      77.039  63.323 117.711  0.00  0.00    +0.000 C 
ENDBRANCH  10  18
ENDBRANCH   7  11
ENDBRANCH   1   7
BRANCH   4  20
ATOM     20  C12 UNL     1      74.528  64.268 110.368  0.00  0.00    +0.000 C 
BRANCH  20  21
ATOM     21  C13 UNL     1      74.927  63.641 109.041  0.00  0.00    +0.000 A 
ATOM     22  C14 UNL     1      76.171  63.924 108.446  0.00  0.00    +0.000 A 
ATOM     23  C15 UNL     1      76.526  63.329 107.231  0.00  0.00    +0.000 A 
ATOM     24  C16 UNL     1      75.646  62.448 106.599  0.00  0.00    +0.000 A 
ATOM     25  F1  UNL     1      75.991  61.875 105.420  0.00  0.00    +0.000 F 
ATOM     26  C17 UNL     1      74.410  62.157 107.182  0.00  0.00    +0.000 A 
ATOM     27  C18 UNL     1      74.052  62.747 108.398  0.00  0.00    +0.000 A 
ENDBRANCH  20  21
BRANCH  20  28
ATOM     28  C19 UNL     1      73.352  65.196 110.103  0.00  0.00    +0.000 A 
ATOM     29  C20 UNL     1      73.586  66.479 109.578  0.00  0.00    +0.000 A 
ATOM     30  C21 UNL     1      72.515  67.329 109.282  0.00  0.00    +0.000 A 
ATOM     31  C22 UNL     1      71.203  66.906 109.502  0.00  0.00    +0.000 A 
ATOM     32  F2  UNL     1      70.168  67.735 109.218  0.00  0.00    +0.000 F 
ATOM     33  C23 UNL     1      70.958  65.628 110.010  0.00  0.00    +0.000 A 
ATOM     34  C24 UNL     1      72.024  64.773 110.302  0.00  0.00    +0.000 A 
ENDBRANCH  20  28
ENDBRANCH   4  20
TORSDOF 8
ENDMDL
MODEL 19
REMARK VINA RESULT:      -6.0     13.361     16.309
REMARK  Name = ./S4084.pdb
REMARK  11 active torsions:
REMARK  status: ('A' for Active; 'I' for Inactive)
REMARK    1  A    between atoms: C1_1  and  O1_2
REMARK    2  A    between atoms: O1_2  and  C2_3
REMARK    3  A    between atoms: C3_4  and  O2_5
REMARK    4  A    between atoms: O2_5  and  C4_6
REMARK    5  A    between atoms: C5_7  and  O3_33
REMARK    6  A    between atoms: C6_8  and  C7_9
REMARK    7  A    between atoms: C7_9  and  N1_10
REMARK    8  A    between atoms: N2_13  and  C12_16
REMARK    9  A    between atoms: C12_16  and  C13_17
REMARK   10  A    between atoms: C12_16  and  C19_24
REMARK   11  A    between atoms: O3_33  and  C27_34
REMARK                            x       y       z     vdW  Elec       q    Type
REMARK                         _______ _______ _______ _____ _____    ______ ____
ROOT
ATOM      1  N1  UNL     1      76.413  63.134 113.268  0.00  0.00    +0.000 NA
ATOM      2  C8  UNL     1      75.401  64.209 113.278  0.00  0.00    +0.000 C 
ATOM      3  C9  UNL     1      74.059  63.771 112.652  0.00  0.00    +0.000 C 
ATOM      4  N2  UNL     1      74.221  63.177 111.305  0.00  0.00    +0.000 NA
ATOM      5  C10 UNL     1      75.196  62.063 111.375  0.00  0.00    +0.000 C 
ATOM      6  C11 UNL     1      76.551  62.517 111.935  0.00  0.00    +0.000 C 
ENDROOT
BRANCH   1   7
ATOM      7  C7  UNL     1      76.225  62.150 114.357  0.00  0.00    +0.000 C 
BRANCH   7  11
ATOM      8  C2  UNL     1      79.419  62.708 117.218  0.00  0.00    +0.000 A 
ATOM      9  C3  UNL     1      79.544  61.734 116.219  0.00  0.00    +0.000 A 
ATOM     10  C5  UNL     1      78.523  61.580 115.252  0.00  0.00    +0.000 A 
ATOM     11  C6  UNL     1      77.326  62.314 115.371  0.00  0.00    +0.000 A 
ATOM     12  C25 UNL     1      77.200  63.263 116.394  0.00  0.00    +0.000 A 
ATOM     13  C26 UNL     1      78.242  63.474 117.296  0.00  0.00    +0.000 A 
BRANCH   8  15
ATOM     14  C1  UNL     1      80.413  62.537 119.507  0.00  0.00    +0.000 C 
ATOM     15  O1  UNL     1      80.478  62.871 118.125  0.00  0.00    +0.000 OA
ENDBRANCH   8  15
BRANCH   9  16
ATOM     16  O2  UNL     1      80.695  60.934 116.219  0.00  0.00    +0.000 OA
ATOM     17  C4  UNL     1      80.784  59.686 116.901  0.00  0.00    +0.000 C 
ENDBRANCH   9  16
BRANCH  10  18
ATOM     18  O3  UNL     1      78.693  60.729 114.156  0.00  0.00    +0.000 OA
ATOM     19  C27 UNL     1      78.404  59.338 114.238  0.00  0.00    +0.000 C 
ENDBRANCH  10  18
ENDBRANCH   7  11
ENDBRANCH   1   7
BRANCH   4  20
ATOM     20  C12 UNL     1      74.514  64.187 110.243  0.00  0.00    +0.000 C 
BRANCH  20  21
ATOM     21  C13 UNL     1      74.845  63.540 108.907  0.00  0.00    +0.000 A 
ATOM     22  C14 UNL     1      76.078  63.776 108.269  0.00  0.00    +0.000 A 
ATOM     23  C15 UNL     1      76.371  63.163 107.046  0.00  0.00    +0.000 A 
ATOM     24  C16 UNL     1      75.439  62.312 106.449  0.00  0.00    +0.000 A 
ATOM     25  F1  UNL     1      75.723  61.722 105.262  0.00  0.00    +0.000 F 
ATOM     26  C17 UNL     1      74.213  62.068 107.074  0.00  0.00    +0.000 A 
ATOM     27  C18 UNL     1      73.917  62.675 108.298  0.00  0.00    +0.000 A 
ENDBRANCH  20  21
BRANCH  20  28
ATOM     28  C19 UNL     1      73.348  65.137 110.018  0.00  0.00    +0.000 A 
ATOM     29  C20 UNL     1      73.589  66.417 109.485  0.00  0.00    +0.000 A 
ATOM     30  C21 UNL     1      72.526  67.288 109.226  0.00  0.00    +0.000 A 
ATOM     31  C22 UNL     1      71.214  66.889 109.488  0.00  0.00    +0.000 A 
ATOM     32  F2  UNL     1      70.187  67.738 109.239  0.00  0.00    +0.000 F 
ATOM     33  C23 UNL     1      70.961  65.615 110.003  0.00  0.00    +0.000 A 
ATOM     34  C24 UNL     1      72.019  64.740 110.259  0.00  0.00    +0.000 A 
ENDBRANCH  20  28
ENDBRANCH   4  20
TORSDOF 8
ENDMDL
MODEL 20
REMARK VINA RESULT:      -5.9     10.192     14.876
REMARK  Name = ./S4084.pdb
REMARK  11 active torsions:
REMARK  status: ('A' for Active; 'I' for Inactive)
REMARK    1  A    between atoms: C1_1  and  O1_2
REMARK    2  A    between atoms: O1_2  and  C2_3
REMARK    3  A    between atoms: C3_4  and  O2_5
REMARK    4  A    between atoms: O2_5  and  C4_6
REMARK    5  A    between atoms: C5_7  and  O3_33
REMARK    6  A    between atoms: C6_8  and  C7_9
REMARK    7  A    between atoms: C7_9  and  N1_10
REMARK    8  A    between atoms: N2_13  and  C12_16
REMARK    9  A    between atoms: C12_16  and  C13_17
REMARK   10  A    between atoms: C12_16  and  C19_24
REMARK   11  A    between atoms: O3_33  and  C27_34
REMARK                            x       y       z     vdW  Elec       q    Type
REMARK                         _______ _______ _______ _____ _____    ______ ____
ROOT
ATOM      1  N1  UNL     1      73.758  62.497 106.229  0.00  0.00    +0.000 NA
ATOM      2  C8  UNL     1      74.494  62.419 107.507  0.00  0.00    +0.000 C 
ATOM      3  C9  UNL     1      73.563  62.492 108.738  0.00  0.00    +0.000 C 
ATOM      4  N2  UNL     1      72.649  63.657 108.697  0.00  0.00    +0.000 NA
ATOM      5  C10 UNL     1      71.892  63.641 107.422  0.00  0.00    +0.000 C 
ATOM      6  C11 UNL     1      72.822  63.636 106.200  0.00  0.00    +0.000 C 
ENDROOT
BRANCH   1   7
ATOM      7  C7  UNL     1      73.137  61.211 105.838  0.00  0.00    +0.000 C 
BRANCH   7  11
ATOM      8  C2  UNL     1      72.752  61.172 101.532  0.00  0.00    +0.000 A 
ATOM      9  C3  UNL     1      71.624  60.946 102.332  0.00  0.00    +0.000 A 
ATOM     10  C5  UNL     1      71.735  61.005 103.741  0.00  0.00    +0.000 A 
ATOM     11  C6  UNL     1      73.001  61.161 104.340  0.00  0.00    +0.000 A 
ATOM     12  C25 UNL     1      74.127  61.355 103.528  0.00  0.00    +0.000 A 
ATOM     13  C26 UNL     1      74.003  61.381 102.140  0.00  0.00    +0.000 A 
BRANCH   8  15
ATOM     14  C1  UNL     1      73.658  61.031  99.204  0.00  0.00    +0.000 C 
ATOM     15  O1  UNL     1      72.591  61.163 100.137  0.00  0.00    +0.000 OA
ENDBRANCH   8  15
BRANCH   9  16
ATOM     16  O2  UNL     1      70.409  60.662 101.693  0.00  0.00    +0.000 OA
ATOM     17  C4  UNL     1      69.498  61.668 101.257  0.00  0.00    +0.000 C 
ENDBRANCH   9  16
BRANCH  10  18
ATOM     18  O3  UNL     1      70.601  60.941 104.555  0.00  0.00    +0.000 OA
ATOM     19  C27 UNL     1      69.841  62.102 104.870  0.00  0.00    +0.000 C 
ENDBRANCH  10  18
ENDBRANCH   7  11
ENDBRANCH   1   7
BRANCH   4  20
ATOM     20  C12 UNL     1      73.329  64.954 108.994  0.00  0.00    +0.000 C 
BRANCH  20  21
ATOM     21  C13 UNL     1      72.452  66.153 108.667  0.00  0.00    +0.000 A 
ATOM     22  C14 UNL     1      71.234  66.370 109.339  0.00  0.00    +0.000 A 
ATOM     23  C15 UNL     1      70.446  67.484 109.034  0.00  0.00    +0.000 A 
ATOM     24  C16 UNL     1      70.863  68.391 108.059  0.00  0.00    +0.000 A 
ATOM     25  F1  UNL     1      70.096  69.469 107.762  0.00  0.00    +0.000 F 
ATOM     26  C17 UNL     1      72.072  68.189 107.387  0.00  0.00    +0.000 A 
ATOM     27  C18 UNL     1      72.865  67.078 107.690  0.00  0.00    +0.000 A 
ENDBRANCH  20  21
BRANCH  20  28
ATOM     28  C19 UNL     1      73.736  65.067 110.455  0.00  0.00    +0.000 A 
ATOM     29  C20 UNL     1      72.860  64.609 111.456  0.00  0.00    +0.000 A 
ATOM     30  C21 UNL     1      73.235  64.660 112.802  0.00  0.00    +0.000 A 
ATOM     31  C22 UNL     1      74.488  65.160 113.163  0.00  0.00    +0.000 A 
ATOM     32  F2  UNL     1      74.846  65.212 114.469  0.00  0.00    +0.000 F 
ATOM     33  C23 UNL     1      75.372  65.605 112.176  0.00  0.00    +0.000 A 
ATOM     34  C24 UNL     1      75.004  65.551 110.829  0.00  0.00    +0.000 A 
ENDBRANCH  20  28
ENDBRANCH   4  20
TORSDOF 8
ENDMDL
