MODEL 1
REMARK VINA RESULT:      -7.1      0.000      0.000
REMARK  Name = ./S4095.pdb
REMARK  13 active torsions:
REMARK  status: ('A' for Active; 'I' for Inactive)
REMARK    1  A    between atoms: C1_1  and  C2_2
REMARK    2  A    between atoms: C2_2  and  C3_3
REMARK    3  A    between atoms: C3_3  and  C4_4
REMARK    4  A    between atoms: C4_4  and  O2_6
REMARK    5  A    between atoms: O2_6  and  C5_7
REMARK    6  A    between atoms: C5_7  and  C24_30
REMARK    7  A    between atoms: C17_21  and  C18_22
REMARK    8  A    between atoms: C20_25  and  O4_26
REMARK    9  A    between atoms: C22_28  and  C23_29
REMARK   10  A    between atoms: C24_30  and  C25_32
REMARK   11  A    between atoms: C25_32  and  O6_33
REMARK   12  A    between atoms: O6_33  and  C26_34
REMARK   13  A    between atoms: C26_34  and  C27_35
REMARK                            x       y       z     vdW  Elec       q    Type
REMARK                         _______ _______ _______ _____ _____    ______ ____
ROOT
ATOM      1  C5  UNL     1      62.379  57.917 105.854  0.00  0.00    +0.000 C 
ATOM      2  C6  UNL     1      63.872  58.367 105.728  0.00  0.00    +0.000 C 
ATOM      3  C7  UNL     1      64.247  59.125 107.019  0.00  0.00    +0.000 C 
ATOM      4  C8  UNL     1      62.941  59.181 107.794  0.00  0.00    +0.000 C 
ATOM      5  C9  UNL     1      62.932  59.652 109.273  0.00  0.00    +0.000 C 
ATOM      6  C10 UNL     1      63.909  58.903 110.209  0.00  0.00    +0.000 C 
ATOM      7  C11 UNL     1      63.839  59.388 111.653  0.00  0.00    +0.000 C 
ATOM      8  F1  UNL     1      64.409  60.643 111.768  0.00  0.00    +0.000 F 
ATOM      9  C12 UNL     1      62.407  59.412 112.132  0.00  0.00    +0.000 C 
ATOM     10  C13 UNL     1      62.104  58.851 113.315  0.00  0.00    +0.000 C 
ATOM     11  C14 UNL     1      60.728  58.846 113.816  0.00  0.00    +0.000 C 
ATOM     12  O3  UNL     1      60.467  58.350 114.943  0.00  0.00    +0.000 OA
ATOM     13  C15 UNL     1      59.658  59.404 112.993  0.00  0.00    +0.000 C 
ATOM     14  C16 UNL     1      59.936  59.978 111.825  0.00  0.00    +0.000 C 
ATOM     15  C17 UNL     1      61.359  60.171 111.301  0.00  0.00    +0.000 C 
ATOM     16  C18 UNL     1      61.640  61.688 111.445  0.00  0.00    +0.000 C 
ATOM     17  C19 UNL     1      61.446  59.727 109.784  0.00  0.00    +0.000 C 
ATOM     18  F2  UNL     1      60.809  60.716 109.039  0.00  0.00    +0.000 F 
ATOM     19  C20 UNL     1      60.661  58.407 109.470  0.00  0.00    +0.000 C 
ATOM     20  C21 UNL     1      60.741  57.992 107.967  0.00  0.00    +0.000 C 
ATOM     21  C22 UNL     1      62.194  57.879 107.426  0.00  0.00    +0.000 C 
ATOM     22  C23 UNL     1      62.862  56.573 107.986  0.00  0.00    +0.000 C 
ENDROOT
BRANCH  19  23
ATOM     23  O4  UNL     1      61.065  57.370 110.325  0.00  0.00    +0.000 OA
ATOM     24  H24 UNL     1      60.955  57.702 111.255  0.00  0.00    +0.000 HD
ENDBRANCH  19  23
BRANCH   1  25
ATOM     25  C24 UNL     1      62.129  56.601 105.099  0.00  0.00    +0.000 C 
ATOM     26  O5  UNL     1      63.075  55.898 104.781  0.00  0.00    +0.000 OA
BRANCH  25  27
ATOM     27  C25 UNL     1      60.742  56.037 104.888  0.00  0.00    +0.000 C 
BRANCH  27  28
ATOM     28  O6  UNL     1      60.254  56.377 103.594  0.00  0.00    +0.000 OA
BRANCH  28  29
ATOM     29  C26 UNL     1      59.119  57.174 103.401  0.00  0.00    +0.000 C 
ATOM     30  C27 UNL     1      58.441  57.163 102.074  0.00  0.00    +0.000 C 
ATOM     31  O7  UNL     1      58.688  57.922 104.322  0.00  0.00    +0.000 OA
ENDBRANCH  28  29
ENDBRANCH  27  28
ENDBRANCH  25  27
ENDBRANCH   1  25
BRANCH   1  32
ATOM     32  O2  UNL     1      61.588  58.965 105.254  0.00  0.00    +0.000 OA
BRANCH  32  33
ATOM     33  C4  UNL     1      61.977  59.848 104.231  0.00  0.00    +0.000 C 
ATOM     34  O1  UNL     1      62.351  61.025 104.486  0.00  0.00    +0.000 OA
BRANCH  33  35
ATOM     35  C3  UNL     1      61.949  59.378 102.812  0.00  0.00    +0.000 C 
BRANCH  35  37
ATOM     36  C1  UNL     1      62.837  59.782 100.487  0.00  0.00    +0.000 C 
ATOM     37  C2  UNL     1      62.961  60.151 101.961  0.00  0.00    +0.000 C 
ENDBRANCH  35  37
ENDBRANCH  33  35
ENDBRANCH  32  33
ENDBRANCH   1  32
TORSDOF 9
ENDMDL
MODEL 2
REMARK VINA RESULT:      -7.1      2.598      3.986
REMARK  Name = ./S4095.pdb
REMARK  13 active torsions:
REMARK  status: ('A' for Active; 'I' for Inactive)
REMARK    1  A    between atoms: C1_1  and  C2_2
REMARK    2  A    between atoms: C2_2  and  C3_3
REMARK    3  A    between atoms: C3_3  and  C4_4
REMARK    4  A    between atoms: C4_4  and  O2_6
REMARK    5  A    between atoms: O2_6  and  C5_7
REMARK    6  A    between atoms: C5_7  and  C24_30
REMARK    7  A    between atoms: C17_21  and  C18_22
REMARK    8  A    between atoms: C20_25  and  O4_26
REMARK    9  A    between atoms: C22_28  and  C23_29
REMARK   10  A    between atoms: C24_30  and  C25_32
REMARK   11  A    between atoms: C25_32  and  O6_33
REMARK   12  A    between atoms: O6_33  and  C26_34
REMARK   13  A    between atoms: C26_34  and  C27_35
REMARK                            x       y       z     vdW  Elec       q    Type
REMARK                         _______ _______ _______ _____ _____    ______ ____
ROOT
ATOM      1  C5  UNL     1      61.730  56.454 102.583  0.00  0.00    +0.000 C 
ATOM      2  C6  UNL     1      63.137  56.068 102.017  0.00  0.00    +0.000 C 
ATOM      3  C7  UNL     1      64.203  56.627 102.983  0.00  0.00    +0.000 C 
ATOM      4  C8  UNL     1      63.390  57.401 104.006  0.00  0.00    +0.000 C 
ATOM      5  C9  UNL     1      64.064  57.925 105.303  0.00  0.00    +0.000 C 
ATOM      6  C10 UNL     1      64.818  56.858 106.130  0.00  0.00    +0.000 C 
ATOM      7  C11 UNL     1      65.437  57.422 107.405  0.00  0.00    +0.000 C 
ATOM      8  F1  UNL     1      66.528  58.215 107.100  0.00  0.00    +0.000 F 
ATOM      9  C12 UNL     1      64.411  58.210 108.185  0.00  0.00    +0.000 C 
ATOM     10  C13 UNL     1      64.269  57.976 109.501  0.00  0.00    +0.000 C 
ATOM     11  C14 UNL     1      63.284  58.713 110.294  0.00  0.00    +0.000 C 
ATOM     12  O3  UNL     1      63.189  58.508 111.532  0.00  0.00    +0.000 OA
ATOM     13  C15 UNL     1      62.399  59.671 109.638  0.00  0.00    +0.000 C 
ATOM     14  C16 UNL     1      62.531  59.931 108.339  0.00  0.00    +0.000 C 
ATOM     15  C17 UNL     1      63.636  59.329 107.471  0.00  0.00    +0.000 C 
ATOM     16  C18 UNL     1      64.618  60.498 107.202  0.00  0.00    +0.000 C 
ATOM     17  C19 UNL     1      63.027  58.787 106.114  0.00  0.00    +0.000 C 
ATOM     18  F2  UNL     1      62.726  59.900 105.335  0.00  0.00    +0.000 F 
ATOM     19  C20 UNL     1      61.665  58.032 106.294  0.00  0.00    +0.000 C 
ATOM     20  C21 UNL     1      61.069  57.518 104.945  0.00  0.00    +0.000 C 
ATOM     21  C22 UNL     1      62.051  56.638 104.122  0.00  0.00    +0.000 C 
ATOM     22  C23 UNL     1      62.173  55.223 104.791  0.00  0.00    +0.000 C 
ENDROOT
BRANCH  19  23
ATOM     23  O4  UNL     1      61.785  57.004 107.243  0.00  0.00    +0.000 OA
ATOM     24  H24 UNL     1      61.792  57.435 108.137  0.00  0.00    +0.000 HD
ENDBRANCH  19  23
BRANCH   1  25
ATOM     25  C24 UNL     1      60.676  55.394 102.221  0.00  0.00    +0.000 C 
ATOM     26  O5  UNL     1      61.022  54.361 101.671  0.00  0.00    +0.000 OA
BRANCH  25  27
ATOM     27  C25 UNL     1      59.239  55.490 102.681  0.00  0.00    +0.000 C 
BRANCH  27  28
ATOM     28  O6  UNL     1      58.411  55.997 101.639  0.00  0.00    +0.000 OA
BRANCH  28  29
ATOM     29  C26 UNL     1      57.967  57.325 101.607  0.00  0.00    +0.000 C 
ATOM     30  C27 UNL     1      57.896  58.097 102.878  0.00  0.00    +0.000 C 
ATOM     31  O7  UNL     1      57.599  57.859 100.524  0.00  0.00    +0.000 OA
ENDBRANCH  28  29
ENDBRANCH  27  28
ENDBRANCH  25  27
ENDBRANCH   1  25
BRANCH   1  32
ATOM     32  O2  UNL     1      61.375  57.708 101.963  0.00  0.00    +0.000 OA
BRANCH  32  33
ATOM     33  C4  UNL     1      61.504  58.057 100.607  0.00  0.00    +0.000 C 
ATOM     34  O1  UNL     1      61.113  57.286  99.690  0.00  0.00    +0.000 OA
BRANCH  33  35
ATOM     35  C3  UNL     1      62.116  59.373 100.248  0.00  0.00    +0.000 C 
BRANCH  35  37
ATOM     36  C1  UNL     1      63.307  60.598 102.103  0.00  0.00    +0.000 C 
ATOM     37  C2  UNL     1      63.446  59.575 100.981  0.00  0.00    +0.000 C 
ENDBRANCH  35  37
ENDBRANCH  33  35
ENDBRANCH  32  33
ENDBRANCH   1  32
TORSDOF 9
ENDMDL
MODEL 3
REMARK VINA RESULT:      -6.9     11.036     13.076
REMARK  Name = ./S4095.pdb
REMARK  13 active torsions:
REMARK  status: ('A' for Active; 'I' for Inactive)
REMARK    1  A    between atoms: C1_1  and  C2_2
REMARK    2  A    between atoms: C2_2  and  C3_3
REMARK    3  A    between atoms: C3_3  and  C4_4
REMARK    4  A    between atoms: C4_4  and  O2_6
REMARK    5  A    between atoms: O2_6  and  C5_7
REMARK    6  A    between atoms: C5_7  and  C24_30
REMARK    7  A    between atoms: C17_21  and  C18_22
REMARK    8  A    between atoms: C20_25  and  O4_26
REMARK    9  A    between atoms: C22_28  and  C23_29
REMARK   10  A    between atoms: C24_30  and  C25_32
REMARK   11  A    between atoms: C25_32  and  O6_33
REMARK   12  A    between atoms: O6_33  and  C26_34
REMARK   13  A    between atoms: C26_34  and  C27_35
REMARK                            x       y       z     vdW  Elec       q    Type
REMARK                         _______ _______ _______ _____ _____    ______ ____
ROOT
ATOM      1  C5  UNL     1      73.993  61.749 105.968  0.00  0.00    +0.000 C 
ATOM      2  C6  UNL     1      74.082  62.652 104.694  0.00  0.00    +0.000 C 
ATOM      3  C7  UNL     1      73.771  64.102 105.121  0.00  0.00    +0.000 C 
ATOM      4  C8  UNL     1      73.410  63.974 106.591  0.00  0.00    +0.000 C 
ATOM      5  C9  UNL     1      73.262  65.243 107.471  0.00  0.00    +0.000 C 
ATOM      6  C10 UNL     1      74.473  66.205 107.449  0.00  0.00    +0.000 C 
ATOM      7  C11 UNL     1      74.284  67.420 108.351  0.00  0.00    +0.000 C 
ATOM      8  F1  UNL     1      73.358  68.288 107.801  0.00  0.00    +0.000 F 
ATOM      9  C12 UNL     1      73.851  66.989 109.732  0.00  0.00    +0.000 C 
ATOM     10  C13 UNL     1      74.487  67.492 110.804  0.00  0.00    +0.000 C 
ATOM     11  C14 UNL     1      74.103  67.098 112.161  0.00  0.00    +0.000 C 
ATOM     12  O3  UNL     1      74.684  67.607 113.155  0.00  0.00    +0.000 OA
ATOM     13  C15 UNL     1      73.057  66.099 112.354  0.00  0.00    +0.000 C 
ATOM     14  C16 UNL     1      72.402  65.597 111.309  0.00  0.00    +0.000 C 
ATOM     15  C17 UNL     1      72.626  66.070 109.873  0.00  0.00    +0.000 C 
ATOM     16  C18 UNL     1      71.363  66.897 109.519  0.00  0.00    +0.000 C 
ATOM     17  C19 UNL     1      72.768  64.825 108.905  0.00  0.00    +0.000 C 
ATOM     18  F2  UNL     1      71.494  64.285 108.756  0.00  0.00    +0.000 F 
ATOM     19  C20 UNL     1      73.639  63.665 109.499  0.00  0.00    +0.000 C 
ATOM     20  C21 UNL     1      73.757  62.438 108.541  0.00  0.00    +0.000 C 
ATOM     21  C22 UNL     1      74.267  62.801 107.119  0.00  0.00    +0.000 C 
ATOM     22  C23 UNL     1      75.807  63.104 107.176  0.00  0.00    +0.000 C 
ENDROOT
BRANCH  19  23
ATOM     23  O4  UNL     1      74.897  64.141 109.902  0.00  0.00    +0.000 OA
ATOM     24  H24 UNL     1      74.966  63.984 110.881  0.00  0.00    +0.000 HD
ENDBRANCH  19  23
BRANCH   1  25
ATOM     25  C24 UNL     1      74.964  60.560 105.877  0.00  0.00    +0.000 C 
ATOM     26  O5  UNL     1      75.817  60.542 105.004  0.00  0.00    +0.000 OA
BRANCH  25  27
ATOM     27  C25 UNL     1      75.033  59.485 106.938  0.00  0.00    +0.000 C 
BRANCH  27  28
ATOM     28  O6  UNL     1      74.225  58.369 106.575  0.00  0.00    +0.000 OA
BRANCH  28  29
ATOM     29  C26 UNL     1      73.084  57.998 107.298  0.00  0.00    +0.000 C 
ATOM     30  C27 UNL     1      72.833  58.620 108.628  0.00  0.00    +0.000 C 
ATOM     31  O7  UNL     1      72.290  57.124 106.851  0.00  0.00    +0.000 OA
ENDBRANCH  28  29
ENDBRANCH  27  28
ENDBRANCH  25  27
ENDBRANCH   1  25
BRANCH   1  32
ATOM     32  O2  UNL     1      72.638  61.252 106.018  0.00  0.00    +0.000 OA
BRANCH  32  33
ATOM     33  C4  UNL     1      71.855  60.801 104.941  0.00  0.00    +0.000 C 
ATOM     34  O1  UNL     1      72.121  59.726 104.339  0.00  0.00    +0.000 OA
BRANCH  33  35
ATOM     35  C3  UNL     1      70.678  61.614 104.505  0.00  0.00    +0.000 C 
BRANCH  35  37
ATOM     36  C1  UNL     1      70.131  63.629 105.920  0.00  0.00    +0.000 C 
ATOM     37  C2  UNL     1      69.897  62.136 105.716  0.00  0.00    +0.000 C 
ENDBRANCH  35  37
ENDBRANCH  33  35
ENDBRANCH  32  33
ENDBRANCH   1  32
TORSDOF 9
ENDMDL
MODEL 4
REMARK VINA RESULT:      -6.8      2.908      8.039
REMARK  Name = ./S4095.pdb
REMARK  13 active torsions:
REMARK  status: ('A' for Active; 'I' for Inactive)
REMARK    1  A    between atoms: C1_1  and  C2_2
REMARK    2  A    between atoms: C2_2  and  C3_3
REMARK    3  A    between atoms: C3_3  and  C4_4
REMARK    4  A    between atoms: C4_4  and  O2_6
REMARK    5  A    between atoms: O2_6  and  C5_7
REMARK    6  A    between atoms: C5_7  and  C24_30
REMARK    7  A    between atoms: C17_21  and  C18_22
REMARK    8  A    between atoms: C20_25  and  O4_26
REMARK    9  A    between atoms: C22_28  and  C23_29
REMARK   10  A    between atoms: C24_30  and  C25_32
REMARK   11  A    between atoms: C25_32  and  O6_33
REMARK   12  A    between atoms: O6_33  and  C26_34
REMARK   13  A    between atoms: C26_34  and  C27_35
REMARK                            x       y       z     vdW  Elec       q    Type
REMARK                         _______ _______ _______ _____ _____    ______ ____
ROOT
ATOM      1  C5  UNL     1      63.972  58.831 108.990  0.00  0.00    +0.000 C 
ATOM      2  C6  UNL     1      64.636  60.186 108.576  0.00  0.00    +0.000 C 
ATOM      3  C7  UNL     1      64.508  60.325 107.044  0.00  0.00    +0.000 C 
ATOM      4  C8  UNL     1      63.878  59.010 106.616  0.00  0.00    +0.000 C 
ATOM      5  C9  UNL     1      63.353  58.834 105.166  0.00  0.00    +0.000 C 
ATOM      6  C10 UNL     1      62.357  59.917 104.690  0.00  0.00    +0.000 C 
ATOM      7  C11 UNL     1      61.854  59.679 103.270  0.00  0.00    +0.000 C 
ATOM      8  F1  UNL     1      62.856  59.943 102.354  0.00  0.00    +0.000 F 
ATOM      9  C12 UNL     1      61.357  58.261 103.118  0.00  0.00    +0.000 C 
ATOM     10  C13 UNL     1      60.157  58.045 102.552  0.00  0.00    +0.000 C 
ATOM     11  C14 UNL     1      59.634  56.688 102.389  0.00  0.00    +0.000 C 
ATOM     12  O3  UNL     1      58.525  56.502 101.824  0.00  0.00    +0.000 OA
ATOM     13  C15 UNL     1      60.397  55.554 102.903  0.00  0.00    +0.000 C 
ATOM     14  C16 UNL     1      61.594  55.740 103.453  0.00  0.00    +0.000 C 
ATOM     15  C17 UNL     1      62.286  57.103 103.517  0.00  0.00    +0.000 C 
ATOM     16  C18 UNL     1      63.430  57.023 102.474  0.00  0.00    +0.000 C 
ATOM     17  C19 UNL     1      62.868  57.350 104.968  0.00  0.00    +0.000 C 
ATOM     18  F2  UNL     1      63.990  56.535 105.095  0.00  0.00    +0.000 F 
ATOM     19  C20 UNL     1      61.902  56.900 106.117  0.00  0.00    +0.000 C 
ATOM     20  C21 UNL     1      62.497  57.135 107.541  0.00  0.00    +0.000 C 
ATOM     21  C22 UNL     1      62.964  58.596 107.792  0.00  0.00    +0.000 C 
ATOM     22  C23 UNL     1      61.711  59.520 107.990  0.00  0.00    +0.000 C 
ENDROOT
BRANCH  19  23
ATOM     23  O4  UNL     1      60.639  57.495 105.969  0.00  0.00    +0.000 OA
ATOM     24  H24 UNL     1      60.670  58.365 106.447  0.00  0.00    +0.000 HD
ENDBRANCH  19  23
BRANCH   1  25
ATOM     25  C24 UNL     1      63.358  58.919 110.398  0.00  0.00    +0.000 C 
ATOM     26  O5  UNL     1      62.729  57.973 110.843  0.00  0.00    +0.000 OA
BRANCH  25  27
ATOM     27  C25 UNL     1      63.654  60.063 111.341  0.00  0.00    +0.000 C 
BRANCH  27  28
ATOM     28  O6  UNL     1      64.761  59.748 112.180  0.00  0.00    +0.000 OA
BRANCH  28  29
ATOM     29  C26 UNL     1      64.689  59.803 113.577  0.00  0.00    +0.000 C 
ATOM     30  C27 UNL     1      65.950  59.795 114.370  0.00  0.00    +0.000 C 
ATOM     31  O7  UNL     1      63.574  59.826 114.169  0.00  0.00    +0.000 OA
ENDBRANCH  28  29
ENDBRANCH  27  28
ENDBRANCH  25  27
ENDBRANCH   1  25
BRANCH   1  32
ATOM     32  O2  UNL     1      65.028  57.847 108.994  0.00  0.00    +0.000 OA
BRANCH  32  33
ATOM     33  C4  UNL     1      66.412  58.081 109.077  0.00  0.00    +0.000 C 
ATOM     34  O1  UNL     1      66.950  58.465 110.151  0.00  0.00    +0.000 OA
BRANCH  33  35
ATOM     35  C3  UNL     1      67.262  57.865 107.867  0.00  0.00    +0.000 C 
BRANCH  35  37
ATOM     36  C1  UNL     1      67.666  55.534 106.992  0.00  0.00    +0.000 C 
ATOM     37  C2  UNL     1      66.710  56.722 107.009  0.00  0.00    +0.000 C 
ENDBRANCH  35  37
ENDBRANCH  33  35
ENDBRANCH  32  33
ENDBRANCH   1  32
TORSDOF 9
ENDMDL
MODEL 5
REMARK VINA RESULT:      -6.8      3.509      8.192
REMARK  Name = ./S4095.pdb
REMARK  13 active torsions:
REMARK  status: ('A' for Active; 'I' for Inactive)
REMARK    1  A    between atoms: C1_1  and  C2_2
REMARK    2  A    between atoms: C2_2  and  C3_3
REMARK    3  A    between atoms: C3_3  and  C4_4
REMARK    4  A    between atoms: C4_4  and  O2_6
REMARK    5  A    between atoms: O2_6  and  C5_7
REMARK    6  A    between atoms: C5_7  and  C24_30
REMARK    7  A    between atoms: C17_21  and  C18_22
REMARK    8  A    between atoms: C20_25  and  O4_26
REMARK    9  A    between atoms: C22_28  and  C23_29
REMARK   10  A    between atoms: C24_30  and  C25_32
REMARK   11  A    between atoms: C25_32  and  O6_33
REMARK   12  A    between atoms: O6_33  and  C26_34
REMARK   13  A    between atoms: C26_34  and  C27_35
REMARK                            x       y       z     vdW  Elec       q    Type
REMARK                         _______ _______ _______ _____ _____    ______ ____
ROOT
ATOM      1  C5  UNL     1      59.993  60.325 113.230  0.00  0.00    +0.000 C 
ATOM      2  C6  UNL     1      58.611  59.790 112.730  0.00  0.00    +0.000 C 
ATOM      3  C7  UNL     1      58.779  59.352 111.259  0.00  0.00    +0.000 C 
ATOM      4  C8  UNL     1      60.209  59.746 110.929  0.00  0.00    +0.000 C 
ATOM      5  C9  UNL     1      60.866  59.260 109.610  0.00  0.00    +0.000 C 
ATOM      6  C10 UNL     1      60.817  57.733 109.373  0.00  0.00    +0.000 C 
ATOM      7  C11 UNL     1      61.501  57.310 108.076  0.00  0.00    +0.000 C 
ATOM      8  F1  UNL     1      60.737  57.683 106.986  0.00  0.00    +0.000 F 
ATOM      9  C12 UNL     1      62.882  57.914 107.987  0.00  0.00    +0.000 C 
ATOM     10  C13 UNL     1      63.922  57.125 107.668  0.00  0.00    +0.000 C 
ATOM     11  C14 UNL     1      65.278  57.667 107.576  0.00  0.00    +0.000 C 
ATOM     12  O3  UNL     1      66.235  56.921 107.239  0.00  0.00    +0.000 OA
ATOM     13  C15 UNL     1      65.518  59.071 107.894  0.00  0.00    +0.000 C 
ATOM     14  C16 UNL     1      64.502  59.876 108.198  0.00  0.00    +0.000 C 
ATOM     15  C17 UNL     1      63.039  59.434 108.160  0.00  0.00    +0.000 C 
ATOM     16  C18 UNL     1      62.442  60.123 106.907  0.00  0.00    +0.000 C 
ATOM     17  C19 UNL     1      62.292  59.911 109.471  0.00  0.00    +0.000 C 
ATOM     18  F2  UNL     1      62.102  61.284 109.348  0.00  0.00    +0.000 F 
ATOM     19  C20 UNL     1      63.138  59.729 110.778  0.00  0.00    +0.000 C 
ATOM     20  C21 UNL     1      62.395  60.220 112.060  0.00  0.00    +0.000 C 
ATOM     21  C22 UNL     1      60.991  59.581 112.252  0.00  0.00    +0.000 C 
ATOM     22  C23 UNL     1      61.152  58.092 112.723  0.00  0.00    +0.000 C 
ENDROOT
BRANCH  19  23
ATOM     23  O4  UNL     1      63.586  58.404 110.903  0.00  0.00    +0.000 OA
ATOM     24  H24 UNL     1      64.363  58.303 110.293  0.00  0.00    +0.000 HD
ENDBRANCH  19  23
BRANCH   1  25
ATOM     25  C24 UNL     1      60.179  60.063 114.734  0.00  0.00    +0.000 C 
ATOM     26  O5  UNL     1      59.405  59.321 115.319  0.00  0.00    +0.000 OA
BRANCH  25  27
ATOM     27  C25 UNL     1      61.395  60.539 115.497  0.00  0.00    +0.000 C 
BRANCH  27  28
ATOM     28  O6  UNL     1      61.945  59.480 116.275  0.00  0.00    +0.000 OA
BRANCH  28  29
ATOM     29  C26 UNL     1      63.083  58.765 115.880  0.00  0.00    +0.000 C 
ATOM     30  C27 UNL     1      64.185  59.484 115.181  0.00  0.00    +0.000 C 
ATOM     31  O7  UNL     1      63.169  57.521 116.079  0.00  0.00    +0.000 OA
ENDBRANCH  28  29
ENDBRANCH  27  28
ENDBRANCH  25  27
ENDBRANCH   1  25
BRANCH   1  32
ATOM     32  O2  UNL     1      59.984  61.749 112.995  0.00  0.00    +0.000 OA
BRANCH  32  33
ATOM     33  C4  UNL     1      58.868  62.604 112.976  0.00  0.00    +0.000 C 
ATOM     34  O1  UNL     1      58.141  62.759 113.994  0.00  0.00    +0.000 OA
BRANCH  33  35
ATOM     35  C3  UNL     1      58.542  63.349 111.721  0.00  0.00    +0.000 C 
BRANCH  35  37
ATOM     36  C1  UNL     1      59.448  63.083 109.383  0.00  0.00    +0.000 C 
ATOM     37  C2  UNL     1      59.776  63.468 110.821  0.00  0.00    +0.000 C 
ENDBRANCH  35  37
ENDBRANCH  33  35
ENDBRANCH  32  33
ENDBRANCH   1  32
TORSDOF 9
ENDMDL
MODEL 6
REMARK VINA RESULT:      -6.8     10.527     12.645
REMARK  Name = ./S4095.pdb
REMARK  13 active torsions:
REMARK  status: ('A' for Active; 'I' for Inactive)
REMARK    1  A    between atoms: C1_1  and  C2_2
REMARK    2  A    between atoms: C2_2  and  C3_3
REMARK    3  A    between atoms: C3_3  and  C4_4
REMARK    4  A    between atoms: C4_4  and  O2_6
REMARK    5  A    between atoms: O2_6  and  C5_7
REMARK    6  A    between atoms: C5_7  and  C24_30
REMARK    7  A    between atoms: C17_21  and  C18_22
REMARK    8  A    between atoms: C20_25  and  O4_26
REMARK    9  A    between atoms: C22_28  and  C23_29
REMARK   10  A    between atoms: C24_30  and  C25_32
REMARK   11  A    between atoms: C25_32  and  O6_33
REMARK   12  A    between atoms: O6_33  and  C26_34
REMARK   13  A    between atoms: C26_34  and  C27_35
REMARK                            x       y       z     vdW  Elec       q    Type
REMARK                         _______ _______ _______ _____ _____    ______ ____
ROOT
ATOM      1  C5  UNL     1      72.564  61.260 104.747  0.00  0.00    +0.000 C 
ATOM      2  C6  UNL     1      71.009  61.242 104.578  0.00  0.00    +0.000 C 
ATOM      3  C7  UNL     1      70.412  62.224 105.608  0.00  0.00    +0.000 C 
ATOM      4  C8  UNL     1      71.621  62.690 106.402  0.00  0.00    +0.000 C 
ATOM      5  C9  UNL     1      71.493  63.879 107.391  0.00  0.00    +0.000 C 
ATOM      6  C10 UNL     1      70.898  65.174 106.791  0.00  0.00    +0.000 C 
ATOM      7  C11 UNL     1      70.820  66.316 107.798  0.00  0.00    +0.000 C 
ATOM      8  F1  UNL     1      69.822  66.075 108.724  0.00  0.00    +0.000 F 
ATOM      9  C12 UNL     1      72.150  66.500 108.490  0.00  0.00    +0.000 C 
ATOM     10  C13 UNL     1      72.676  67.734 108.579  0.00  0.00    +0.000 C 
ATOM     11  C14 UNL     1      73.965  67.957 109.236  0.00  0.00    +0.000 C 
ATOM     12  O3  UNL     1      74.426  69.124 109.344  0.00  0.00    +0.000 OA
ATOM     13  C15 UNL     1      74.721  66.818 109.749  0.00  0.00    +0.000 C 
ATOM     14  C16 UNL     1      74.215  65.589 109.685  0.00  0.00    +0.000 C 
ATOM     15  C17 UNL     1      72.810  65.286 109.164  0.00  0.00    +0.000 C 
ATOM     16  C18 UNL     1      71.981  64.928 110.424  0.00  0.00    +0.000 C 
ATOM     17  C19 UNL     1      72.854  64.065 108.158  0.00  0.00    +0.000 C 
ATOM     18  F2  UNL     1      73.049  62.919 108.924  0.00  0.00    +0.000 F 
ATOM     19  C20 UNL     1      74.071  64.109 107.170  0.00  0.00    +0.000 C 
ATOM     20  C21 UNL     1      74.111  62.890 106.196  0.00  0.00    +0.000 C 
ATOM     21  C22 UNL     1      72.794  62.685 105.396  0.00  0.00    +0.000 C 
ATOM     22  C23 UNL     1      72.685  63.779 104.275  0.00  0.00    +0.000 C 
ENDROOT
BRANCH  19  23
ATOM     23  O4  UNL     1      74.113  65.334 106.484  0.00  0.00    +0.000 OA
ATOM     24  H24 UNL     1      73.396  65.306 105.798  0.00  0.00    +0.000 HD
ENDBRANCH  19  23
BRANCH   1  25
ATOM     25  C24 UNL     1      73.271  60.991 103.407  0.00  0.00    +0.000 C 
ATOM     26  O5  UNL     1      74.479  60.815 103.386  0.00  0.00    +0.000 OA
BRANCH  25  27
ATOM     27  C25 UNL     1      72.512  60.749 102.123  0.00  0.00    +0.000 C 
BRANCH  27  28
ATOM     28  O6  UNL     1      72.524  61.916 101.306  0.00  0.00    +0.000 OA
BRANCH  28  29
ATOM     29  C26 UNL     1      71.390  62.369 100.620  0.00  0.00    +0.000 C 
ATOM     30  C27 UNL     1      70.135  62.621 101.380  0.00  0.00    +0.000 C 
ATOM     31  O7  UNL     1      71.412  62.533  99.368  0.00  0.00    +0.000 OA
ENDBRANCH  28  29
ENDBRANCH  27  28
ENDBRANCH  25  27
ENDBRANCH   1  25
BRANCH   1  32
ATOM     32  O2  UNL     1      72.883  60.199 105.672  0.00  0.00    +0.000 OA
BRANCH  32  33
ATOM     33  C4  UNL     1      72.222  58.967 105.819  0.00  0.00    +0.000 C 
ATOM     34  O1  UNL     1      72.206  58.115 104.890  0.00  0.00    +0.000 OA
BRANCH  33  35
ATOM     35  C3  UNL     1      71.528  58.661 107.107  0.00  0.00    +0.000 C 
BRANCH  35  37
ATOM     36  C1  UNL     1      73.575  58.562 108.576  0.00  0.00    +0.000 C 
ATOM     37  C2  UNL     1      72.268  59.294 108.290  0.00  0.00    +0.000 C 
ENDBRANCH  35  37
ENDBRANCH  33  35
ENDBRANCH  32  33
ENDBRANCH   1  32
TORSDOF 9
ENDMDL
MODEL 7
REMARK VINA RESULT:      -6.8      1.407      2.073
REMARK  Name = ./S4095.pdb
REMARK  13 active torsions:
REMARK  status: ('A' for Active; 'I' for Inactive)
REMARK    1  A    between atoms: C1_1  and  C2_2
REMARK    2  A    between atoms: C2_2  and  C3_3
REMARK    3  A    between atoms: C3_3  and  C4_4
REMARK    4  A    between atoms: C4_4  and  O2_6
REMARK    5  A    between atoms: O2_6  and  C5_7
REMARK    6  A    between atoms: C5_7  and  C24_30
REMARK    7  A    between atoms: C17_21  and  C18_22
REMARK    8  A    between atoms: C20_25  and  O4_26
REMARK    9  A    between atoms: C22_28  and  C23_29
REMARK   10  A    between atoms: C24_30  and  C25_32
REMARK   11  A    between atoms: C25_32  and  O6_33
REMARK   12  A    between atoms: O6_33  and  C26_34
REMARK   13  A    between atoms: C26_34  and  C27_35
REMARK                            x       y       z     vdW  Elec       q    Type
REMARK                         _______ _______ _______ _____ _____    ______ ____
ROOT
ATOM      1  C5  UNL     1      62.748  58.307 106.038  0.00  0.00    +0.000 C 
ATOM      2  C6  UNL     1      64.198  58.887 106.130  0.00  0.00    +0.000 C 
ATOM      3  C7  UNL     1      64.367  59.515 107.530  0.00  0.00    +0.000 C 
ATOM      4  C8  UNL     1      62.989  59.376 108.154  0.00  0.00    +0.000 C 
ATOM      5  C9  UNL     1      62.784  59.669 109.664  0.00  0.00    +0.000 C 
ATOM      6  C10 UNL     1      63.724  58.896 110.618  0.00  0.00    +0.000 C 
ATOM      7  C11 UNL     1      63.461  59.202 112.089  0.00  0.00    +0.000 C 
ATOM      8  F1  UNL     1      63.898  60.476 112.402  0.00  0.00    +0.000 F 
ATOM      9  C12 UNL     1      61.991  59.055 112.403  0.00  0.00    +0.000 C 
ATOM     10  C13 UNL     1      61.620  58.337 113.477  0.00  0.00    +0.000 C 
ATOM     11  C14 UNL     1      60.207  58.164 113.816  0.00  0.00    +0.000 C 
ATOM     12  O3  UNL     1      59.878  57.520 114.846  0.00  0.00    +0.000 OA
ATOM     13  C15 UNL     1      59.181  58.727 112.942  0.00  0.00    +0.000 C 
ATOM     14  C16 UNL     1      59.523  59.454 111.882  0.00  0.00    +0.000 C 
ATOM     15  C17 UNL     1      60.969  59.820 111.546  0.00  0.00    +0.000 C 
ATOM     16  C18 UNL     1      61.092  61.327 111.883  0.00  0.00    +0.000 C 
ATOM     17  C19 UNL     1      61.252  59.565 110.009  0.00  0.00    +0.000 C 
ATOM     18  F2  UNL     1      60.607  60.580 109.308  0.00  0.00    +0.000 F 
ATOM     19  C20 UNL     1      60.629  58.233 109.468  0.00  0.00    +0.000 C 
ATOM     20  C21 UNL     1      60.902  58.004 107.949  0.00  0.00    +0.000 C 
ATOM     21  C22 UNL     1      62.406  58.071 107.566  0.00  0.00    +0.000 C 
ATOM     22  C23 UNL     1      63.130  56.766 108.054  0.00  0.00    +0.000 C 
ENDROOT
BRANCH  19  23
ATOM     23  O4  UNL     1      61.036  57.138 110.248  0.00  0.00    +0.000 OA
ATOM     24  H24 UNL     1      60.245  56.547 110.353  0.00  0.00    +0.000 HD
ENDBRANCH  19  23
BRANCH   1  25
ATOM     25  C24 UNL     1      62.700  57.072 105.123  0.00  0.00    +0.000 C 
ATOM     26  O5  UNL     1      61.678  56.407 105.058  0.00  0.00    +0.000 OA
BRANCH  25  27
ATOM     27  C25 UNL     1      63.807  56.741 104.148  0.00  0.00    +0.000 C 
BRANCH  27  28
ATOM     28  O6  UNL     1      63.269  56.429 102.866  0.00  0.00    +0.000 OA
BRANCH  28  29
ATOM     29  C26 UNL     1      63.951  56.708 101.674  0.00  0.00    +0.000 C 
ATOM     30  C27 UNL     1      65.327  57.273 101.740  0.00  0.00    +0.000 C 
ATOM     31  O7  UNL     1      63.401  56.518 100.553  0.00  0.00    +0.000 OA
ENDBRANCH  28  29
ENDBRANCH  27  28
ENDBRANCH  25  27
ENDBRANCH   1  25
BRANCH   1  32
ATOM     32  O2  UNL     1      61.931  59.352 105.469  0.00  0.00    +0.000 OA
BRANCH  32  33
ATOM     33  C4  UNL     1      61.723  59.626 104.105  0.00  0.00    +0.000 C 
ATOM     34  O1  UNL     1      60.642  59.324 103.531  0.00  0.00    +0.000 OA
BRANCH  33  35
ATOM     35  C3  UNL     1      62.809  60.294 103.323  0.00  0.00    +0.000 C 
BRANCH  35  37
ATOM     36  C1  UNL     1      63.734  60.717 101.016  0.00  0.00    +0.000 C 
ATOM     37  C2  UNL     1      62.678  59.978 101.830  0.00  0.00    +0.000 C 
ENDBRANCH  35  37
ENDBRANCH  33  35
ENDBRANCH  32  33
ENDBRANCH   1  32
TORSDOF 9
ENDMDL
MODEL 8
REMARK VINA RESULT:      -6.7     15.437     18.390
REMARK  Name = ./S4095.pdb
REMARK  13 active torsions:
REMARK  status: ('A' for Active; 'I' for Inactive)
REMARK    1  A    between atoms: C1_1  and  C2_2
REMARK    2  A    between atoms: C2_2  and  C3_3
REMARK    3  A    between atoms: C3_3  and  C4_4
REMARK    4  A    between atoms: C4_4  and  O2_6
REMARK    5  A    between atoms: O2_6  and  C5_7
REMARK    6  A    between atoms: C5_7  and  C24_30
REMARK    7  A    between atoms: C17_21  and  C18_22
REMARK    8  A    between atoms: C20_25  and  O4_26
REMARK    9  A    between atoms: C22_28  and  C23_29
REMARK   10  A    between atoms: C24_30  and  C25_32
REMARK   11  A    between atoms: C25_32  and  O6_33
REMARK   12  A    between atoms: O6_33  and  C26_34
REMARK   13  A    between atoms: C26_34  and  C27_35
REMARK                            x       y       z     vdW  Elec       q    Type
REMARK                         _______ _______ _______ _____ _____    ______ ____
ROOT
ATOM      1  C5  UNL     1      78.607  60.163 115.997  0.00  0.00    +0.000 C 
ATOM      2  C6  UNL     1      78.701  59.704 114.504  0.00  0.00    +0.000 C 
ATOM      3  C7  UNL     1      77.648  60.496 113.701  0.00  0.00    +0.000 C 
ATOM      4  C8  UNL     1      76.915  61.299 114.762  0.00  0.00    +0.000 C 
ATOM      5  C9  UNL     1      75.927  62.421 114.348  0.00  0.00    +0.000 C 
ATOM      6  C10 UNL     1      76.504  63.484 113.385  0.00  0.00    +0.000 C 
ATOM      7  C11 UNL     1      75.499  64.576 113.033  0.00  0.00    +0.000 C 
ATOM      8  F1  UNL     1      74.526  64.079 112.185  0.00  0.00    +0.000 F 
ATOM      9  C12 UNL     1      74.873  65.140 114.286  0.00  0.00    +0.000 C 
ATOM     10  C13 UNL     1      74.815  66.473 114.445  0.00  0.00    +0.000 C 
ATOM     11  C14 UNL     1      74.221  67.063 115.646  0.00  0.00    +0.000 C 
ATOM     12  O3  UNL     1      74.140  68.314 115.763  0.00  0.00    +0.000 OA
ATOM     13  C15 UNL     1      73.739  66.193 116.715  0.00  0.00    +0.000 C 
ATOM     14  C16 UNL     1      73.772  64.870 116.574  0.00  0.00    +0.000 C 
ATOM     15  C17 UNL     1      74.225  64.173 115.291  0.00  0.00    +0.000 C 
ATOM     16  C18 UNL     1      72.926  63.618 114.654  0.00  0.00    +0.000 C 
ATOM     17  C19 UNL     1      75.227  62.996 115.634  0.00  0.00    +0.000 C 
ATOM     18  F2  UNL     1      74.465  61.966 116.178  0.00  0.00    +0.000 F 
ATOM     19  C20 UNL     1      76.272  63.365 116.743  0.00  0.00    +0.000 C 
ATOM     20  C21 UNL     1      77.241  62.189 117.082  0.00  0.00    +0.000 C 
ATOM     21  C22 UNL     1      77.976  61.606 115.843  0.00  0.00    +0.000 C 
ATOM     22  C23 UNL     1      79.095  62.605 115.380  0.00  0.00    +0.000 C 
ENDROOT
BRANCH  19  23
ATOM     23  O4  UNL     1      76.964  64.539 116.407  0.00  0.00    +0.000 OA
ATOM     24  H24 UNL     1      76.322  65.291 116.500  0.00  0.00    +0.000 HD
ENDBRANCH  19  23
BRANCH   1  25
ATOM     25  C24 UNL     1      79.977  60.080 116.691  0.00  0.00    +0.000 C 
ATOM     26  O5  UNL     1      80.045  60.174 117.907  0.00  0.00    +0.000 OA
BRANCH  25  27
ATOM     27  C25 UNL     1      81.241  59.703 115.951  0.00  0.00    +0.000 C 
BRANCH  27  28
ATOM     28  O6  UNL     1      81.593  58.349 116.219  0.00  0.00    +0.000 OA
BRANCH  28  29
ATOM     29  C26 UNL     1      81.614  57.364 115.224  0.00  0.00    +0.000 C 
ATOM     30  C27 UNL     1      81.879  55.949 115.609  0.00  0.00    +0.000 C 
ATOM     31  O7  UNL     1      81.445  57.665 114.010  0.00  0.00    +0.000 OA
ENDBRANCH  28  29
ENDBRANCH  27  28
ENDBRANCH  25  27
ENDBRANCH   1  25
BRANCH   1  32
ATOM     32  O2  UNL     1      77.693  59.252 116.643  0.00  0.00    +0.000 OA
BRANCH  32  33
ATOM     33  C4  UNL     1      77.497  57.890 116.354  0.00  0.00    +0.000 C 
ATOM     34  O1  UNL     1      78.358  57.022 116.662  0.00  0.00    +0.000 OA
BRANCH  33  35
ATOM     35  C3  UNL     1      76.238  57.464 115.669  0.00  0.00    +0.000 C 
BRANCH  35  37
ATOM     36  C1  UNL     1      74.342  58.911 114.850  0.00  0.00    +0.000 C 
ATOM     37  C2  UNL     1      75.066  58.362 116.075  0.00  0.00    +0.000 C 
ENDBRANCH  35  37
ENDBRANCH  33  35
ENDBRANCH  32  33
ENDBRANCH   1  32
TORSDOF 9
ENDMDL
MODEL 9
REMARK VINA RESULT:      -6.6     10.864     15.920
REMARK  Name = ./S4095.pdb
REMARK  13 active torsions:
REMARK  status: ('A' for Active; 'I' for Inactive)
REMARK    1  A    between atoms: C1_1  and  C2_2
REMARK    2  A    between atoms: C2_2  and  C3_3
REMARK    3  A    between atoms: C3_3  and  C4_4
REMARK    4  A    between atoms: C4_4  and  O2_6
REMARK    5  A    between atoms: O2_6  and  C5_7
REMARK    6  A    between atoms: C5_7  and  C24_30
REMARK    7  A    between atoms: C17_21  and  C18_22
REMARK    8  A    between atoms: C20_25  and  O4_26
REMARK    9  A    between atoms: C22_28  and  C23_29
REMARK   10  A    between atoms: C24_30  and  C25_32
REMARK   11  A    between atoms: C25_32  and  O6_33
REMARK   12  A    between atoms: O6_33  and  C26_34
REMARK   13  A    between atoms: C26_34  and  C27_35
REMARK                            x       y       z     vdW  Elec       q    Type
REMARK                         _______ _______ _______ _____ _____    ______ ____
ROOT
ATOM      1  C5  UNL     1      70.825  60.696  98.853  0.00  0.00    +0.000 C 
ATOM      2  C6  UNL     1      71.167  59.381  99.630  0.00  0.00    +0.000 C 
ATOM      3  C7  UNL     1      70.816  58.189  98.716  0.00  0.00    +0.000 C 
ATOM      4  C8  UNL     1      70.190  58.844  97.496  0.00  0.00    +0.000 C 
ATOM      5  C9  UNL     1      69.913  58.007  96.218  0.00  0.00    +0.000 C 
ATOM      6  C10 UNL     1      71.129  57.231  95.662  0.00  0.00    +0.000 C 
ATOM      7  C11 UNL     1      70.806  56.449  94.393  0.00  0.00    +0.000 C 
ATOM      8  F1  UNL     1      70.017  55.354  94.690  0.00  0.00    +0.000 F 
ATOM      9  C12 UNL     1      70.118  57.340  93.386  0.00  0.00    +0.000 C 
ATOM     10  C13 UNL     1      70.559  57.355  92.116  0.00  0.00    +0.000 C 
ATOM     11  C14 UNL     1      69.926  58.207  91.109  0.00  0.00    +0.000 C 
ATOM     12  O3  UNL     1      70.327  58.180  89.916  0.00  0.00    +0.000 OA
ATOM     13  C15 UNL     1      68.839  59.100  91.499  0.00  0.00    +0.000 C 
ATOM     14  C16 UNL     1      68.375  59.093  92.746  0.00  0.00    +0.000 C 
ATOM     15  C17 UNL     1      68.868  58.123  93.820  0.00  0.00    +0.000 C 
ATOM     16  C18 UNL     1      67.710  57.110  94.010  0.00  0.00    +0.000 C 
ATOM     17  C19 UNL     1      69.156  58.902  95.168  0.00  0.00    +0.000 C 
ATOM     18  F2  UNL     1      67.919  59.220  95.720  0.00  0.00    +0.000 F 
ATOM     19  C20 UNL     1      69.877  60.277  94.956  0.00  0.00    +0.000 C 
ATOM     20  C21 UNL     1      70.139  61.041  96.292  0.00  0.00    +0.000 C 
ATOM     21  C22 UNL     1      70.909  60.204  97.351  0.00  0.00    +0.000 C 
ATOM     22  C23 UNL     1      72.419  60.092  96.934  0.00  0.00    +0.000 C 
ENDROOT
BRANCH  19  23
ATOM     23  O4  UNL     1      71.051  60.115  94.202  0.00  0.00    +0.000 OA
ATOM     24  H24 UNL     1      71.664  60.854  94.458  0.00  0.00    +0.000 HD
ENDBRANCH  19  23
BRANCH   1  25
ATOM     25  C24 UNL     1      71.770  61.841  99.256  0.00  0.00    +0.000 C 
ATOM     26  O5  UNL     1      71.841  62.840  98.558  0.00  0.00    +0.000 OA
BRANCH  25  27
ATOM     27  C25 UNL     1      72.488  61.871 100.586  0.00  0.00    +0.000 C 
BRANCH  27  28
ATOM     28  O6  UNL     1      71.943  62.883 101.428  0.00  0.00    +0.000 OA
BRANCH  28  29
ATOM     29  C26 UNL     1      72.271  62.993 102.785  0.00  0.00    +0.000 C 
ATOM     30  C27 UNL     1      71.940  61.869 103.705  0.00  0.00    +0.000 C 
ATOM     31  O7  UNL     1      72.811  64.040 103.239  0.00  0.00    +0.000 OA
ENDBRANCH  28  29
ENDBRANCH  27  28
ENDBRANCH  25  27
ENDBRANCH   1  25
BRANCH   1  32
ATOM     32  O2  UNL     1      69.474  61.044  99.221  0.00  0.00    +0.000 OA
BRANCH  32  33
ATOM     33  C4  UNL     1      68.796  60.701 100.404  0.00  0.00    +0.000 C 
ATOM     34  O1  UNL     1      69.300  60.924 101.538  0.00  0.00    +0.000 OA
BRANCH  33  35
ATOM     35  C3  UNL     1      67.447  60.063 100.313  0.00  0.00    +0.000 C 
BRANCH  35  37
ATOM     36  C1  UNL     1      66.808  58.144  98.807  0.00  0.00    +0.000 C 
ATOM     37  C2  UNL     1      67.146  59.629  98.875  0.00  0.00    +0.000 C 
ENDBRANCH  35  37
ENDBRANCH  33  35
ENDBRANCH  32  33
ENDBRANCH   1  32
TORSDOF 9
ENDMDL
MODEL 10
REMARK VINA RESULT:      -6.6     10.291     12.131
REMARK  Name = ./S4095.pdb
REMARK  13 active torsions:
REMARK  status: ('A' for Active; 'I' for Inactive)
REMARK    1  A    between atoms: C1_1  and  C2_2
REMARK    2  A    between atoms: C2_2  and  C3_3
REMARK    3  A    between atoms: C3_3  and  C4_4
REMARK    4  A    between atoms: C4_4  and  O2_6
REMARK    5  A    between atoms: O2_6  and  C5_7
REMARK    6  A    between atoms: C5_7  and  C24_30
REMARK    7  A    between atoms: C17_21  and  C18_22
REMARK    8  A    between atoms: C20_25  and  O4_26
REMARK    9  A    between atoms: C22_28  and  C23_29
REMARK   10  A    between atoms: C24_30  and  C25_32
REMARK   11  A    between atoms: C25_32  and  O6_33
REMARK   12  A    between atoms: O6_33  and  C26_34
REMARK   13  A    between atoms: C26_34  and  C27_35
REMARK                            x       y       z     vdW  Elec       q    Type
REMARK                         _______ _______ _______ _____ _____    ______ ____
ROOT
ATOM      1  C5  UNL     1      72.404  62.516 103.499  0.00  0.00    +0.000 C 
ATOM      2  C6  UNL     1      73.504  63.386 102.804  0.00  0.00    +0.000 C 
ATOM      3  C7  UNL     1      73.826  64.572 103.738  0.00  0.00    +0.000 C 
ATOM      4  C8  UNL     1      72.836  64.409 104.879  0.00  0.00    +0.000 C 
ATOM      5  C9  UNL     1      72.983  65.265 106.166  0.00  0.00    +0.000 C 
ATOM      6  C10 UNL     1      74.372  65.204 106.843  0.00  0.00    +0.000 C 
ATOM      7  C11 UNL     1      74.450  66.041 108.115  0.00  0.00    +0.000 C 
ATOM      8  F1  UNL     1      74.463  67.388 107.805  0.00  0.00    +0.000 F 
ATOM      9  C12 UNL     1      73.293  65.719 109.030  0.00  0.00    +0.000 C 
ATOM     10  C13 UNL     1      73.535  65.465 110.328  0.00  0.00    +0.000 C 
ATOM     11  C14 UNL     1      72.445  65.144 111.249  0.00  0.00    +0.000 C 
ATOM     12  O3  UNL     1      72.685  64.946 112.469  0.00  0.00    +0.000 OA
ATOM     13  C15 UNL     1      71.079  65.036 110.742  0.00  0.00    +0.000 C 
ATOM     14  C16 UNL     1      70.812  65.297 109.465  0.00  0.00    +0.000 C 
ATOM     15  C17 UNL     1      71.862  65.796 108.472  0.00  0.00    +0.000 C 
ATOM     16  C18 UNL     1      71.518  67.289 108.238  0.00  0.00    +0.000 C 
ATOM     17  C19 UNL     1      71.764  64.980 107.119  0.00  0.00    +0.000 C 
ATOM     18  F2  UNL     1      70.621  65.427 106.463  0.00  0.00    +0.000 F 
ATOM     19  C20 UNL     1      71.542  63.442 107.328  0.00  0.00    +0.000 C 
ATOM     20  C21 UNL     1      71.430  62.654 105.985  0.00  0.00    +0.000 C 
ATOM     21  C22 UNL     1      72.628  62.884 105.022  0.00  0.00    +0.000 C 
ATOM     22  C23 UNL     1      73.886  62.110 105.555  0.00  0.00    +0.000 C 
ENDROOT
BRANCH  19  23
ATOM     23  O4  UNL     1      72.527  62.906 108.173  0.00  0.00    +0.000 OA
ATOM     24  H24 UNL     1      72.983  63.673 108.609  0.00  0.00    +0.000 HD
ENDBRANCH  19  23
BRANCH   1  25
ATOM     25  C24 UNL     1      72.549  61.032 103.121  0.00  0.00    +0.000 C 
ATOM     26  O5  UNL     1      71.734  60.221 103.532  0.00  0.00    +0.000 OA
BRANCH  25  27
ATOM     27  C25 UNL     1      73.558  60.548 102.104  0.00  0.00    +0.000 C 
BRANCH  27  28
ATOM     28  O6  UNL     1      72.951  60.409 100.823  0.00  0.00    +0.000 OA
BRANCH  28  29
ATOM     29  C26 UNL     1      73.427  61.076  99.686  0.00  0.00    +0.000 C 
ATOM     30  C27 UNL     1      72.651  60.991  98.418  0.00  0.00    +0.000 C 
ATOM     31  O7  UNL     1      74.515  61.715  99.718  0.00  0.00    +0.000 OA
ENDBRANCH  28  29
ENDBRANCH  27  28
ENDBRANCH  25  27
ENDBRANCH   1  25
BRANCH   1  32
ATOM     32  O2  UNL     1      71.136  63.006 103.016  0.00  0.00    +0.000 OA
BRANCH  32  33
ATOM     33  C4  UNL     1      70.542  62.753 101.767  0.00  0.00    +0.000 C 
ATOM     34  O1  UNL     1      71.030  63.218 100.701  0.00  0.00    +0.000 OA
BRANCH  33  35
ATOM     35  C3  UNL     1      69.308  61.911 101.703  0.00  0.00    +0.000 C 
BRANCH  35  37
ATOM     36  C1  UNL     1      68.005  60.760  99.877  0.00  0.00    +0.000 C 
ATOM     37  C2  UNL     1      69.374  60.935 100.525  0.00  0.00    +0.000 C 
ENDBRANCH  35  37
ENDBRANCH  33  35
ENDBRANCH  32  33
ENDBRANCH   1  32
TORSDOF 9
ENDMDL
MODEL 11
REMARK VINA RESULT:      -6.6      2.880      8.270
REMARK  Name = ./S4095.pdb
REMARK  13 active torsions:
REMARK  status: ('A' for Active; 'I' for Inactive)
REMARK    1  A    between atoms: C1_1  and  C2_2
REMARK    2  A    between atoms: C2_2  and  C3_3
REMARK    3  A    between atoms: C3_3  and  C4_4
REMARK    4  A    between atoms: C4_4  and  O2_6
REMARK    5  A    between atoms: O2_6  and  C5_7
REMARK    6  A    between atoms: C5_7  and  C24_30
REMARK    7  A    between atoms: C17_21  and  C18_22
REMARK    8  A    between atoms: C20_25  and  O4_26
REMARK    9  A    between atoms: C22_28  and  C23_29
REMARK   10  A    between atoms: C24_30  and  C25_32
REMARK   11  A    between atoms: C25_32  and  O6_33
REMARK   12  A    between atoms: O6_33  and  C26_34
REMARK   13  A    between atoms: C26_34  and  C27_35
REMARK                            x       y       z     vdW  Elec       q    Type
REMARK                         _______ _______ _______ _____ _____    ______ ____
ROOT
ATOM      1  C5  UNL     1      62.601  59.323 110.001  0.00  0.00    +0.000 C 
ATOM      2  C6  UNL     1      61.312  58.549 110.432  0.00  0.00    +0.000 C 
ATOM      3  C7  UNL     1      60.703  57.906 109.168  0.00  0.00    +0.000 C 
ATOM      4  C8  UNL     1      61.591  58.414 108.044  0.00  0.00    +0.000 C 
ATOM      5  C9  UNL     1      61.470  57.807 106.621  0.00  0.00    +0.000 C 
ATOM      6  C10 UNL     1      61.592  56.268 106.548  0.00  0.00    +0.000 C 
ATOM      7  C11 UNL     1      61.493  55.729 105.124  0.00  0.00    +0.000 C 
ATOM      8  F1  UNL     1      60.193  55.827 104.662  0.00  0.00    +0.000 F 
ATOM      9  C12 UNL     1      62.437  56.476 104.212  0.00  0.00    +0.000 C 
ATOM     10  C13 UNL     1      63.245  55.779 103.395  0.00  0.00    +0.000 C 
ATOM     11  C14 UNL     1      64.179  56.461 102.498  0.00  0.00    +0.000 C 
ATOM     12  O3  UNL     1      64.902  55.795 101.712  0.00  0.00    +0.000 OA
ATOM     13  C15 UNL     1      64.280  57.918 102.532  0.00  0.00    +0.000 C 
ATOM     14  C16 UNL     1      63.480  58.630 103.322  0.00  0.00    +0.000 C 
ATOM     15  C17 UNL     1      62.368  58.011 104.169  0.00  0.00    +0.000 C 
ATOM     16  C18 UNL     1      61.050  58.413 103.460  0.00  0.00    +0.000 C 
ATOM     17  C19 UNL     1      62.413  58.597 105.639  0.00  0.00    +0.000 C 
ATOM     18  F2  UNL     1      61.927  59.900 105.568  0.00  0.00    +0.000 F 
ATOM     19  C20 UNL     1      63.864  58.732 106.217  0.00  0.00    +0.000 C 
ATOM     20  C21 UNL     1      63.893  59.326 107.660  0.00  0.00    +0.000 C 
ATOM     21  C22 UNL     1      62.996  58.560 108.671  0.00  0.00    +0.000 C 
ATOM     22  C23 UNL     1      63.678  57.197 109.048  0.00  0.00    +0.000 C 
ENDROOT
BRANCH  19  23
ATOM     23  O4  UNL     1      64.549  57.509 106.137  0.00  0.00    +0.000 OA
ATOM     24  H24 UNL     1      65.432  57.642 106.572  0.00  0.00    +0.000 HD
ENDBRANCH  19  23
BRANCH   1  25
ATOM     25  C24 UNL     1      63.648  59.329 111.128  0.00  0.00    +0.000 C 
ATOM     26  O5  UNL     1      63.424  58.726 112.165  0.00  0.00    +0.000 OA
BRANCH  25  27
ATOM     27  C25 UNL     1      65.036  59.901 110.943  0.00  0.00    +0.000 C 
BRANCH  27  28
ATOM     28  O6  UNL     1      65.537  60.408 112.177  0.00  0.00    +0.000 OA
BRANCH  28  29
ATOM     29  C26 UNL     1      66.504  59.733 112.932  0.00  0.00    +0.000 C 
ATOM     30  C27 UNL     1      66.379  59.708 114.416  0.00  0.00    +0.000 C 
ATOM     31  O7  UNL     1      67.492  59.177 112.374  0.00  0.00    +0.000 OA
ENDBRANCH  28  29
ENDBRANCH  27  28
ENDBRANCH  25  27
ENDBRANCH   1  25
BRANCH   1  32
ATOM     32  O2  UNL     1      62.188  60.679 109.730  0.00  0.00    +0.000 OA
BRANCH  32  33
ATOM     33  C4  UNL     1      61.226  61.433 110.426  0.00  0.00    +0.000 C 
ATOM     34  O1  UNL     1      61.294  61.593 111.675  0.00  0.00    +0.000 OA
BRANCH  33  35
ATOM     35  C3  UNL     1      60.103  62.062 109.665  0.00  0.00    +0.000 C 
BRANCH  35  37
ATOM     36  C1  UNL     1      58.657  63.505 111.143  0.00  0.00    +0.000 C 
ATOM     37  C2  UNL     1      59.830  63.482 110.170  0.00  0.00    +0.000 C 
ENDBRANCH  35  37
ENDBRANCH  33  35
ENDBRANCH  32  33
ENDBRANCH   1  32
TORSDOF 9
ENDMDL
MODEL 12
REMARK VINA RESULT:      -6.5     11.444     14.716
REMARK  Name = ./S4095.pdb
REMARK  13 active torsions:
REMARK  status: ('A' for Active; 'I' for Inactive)
REMARK    1  A    between atoms: C1_1  and  C2_2
REMARK    2  A    between atoms: C2_2  and  C3_3
REMARK    3  A    between atoms: C3_3  and  C4_4
REMARK    4  A    between atoms: C4_4  and  O2_6
REMARK    5  A    between atoms: O2_6  and  C5_7
REMARK    6  A    between atoms: C5_7  and  C24_30
REMARK    7  A    between atoms: C17_21  and  C18_22
REMARK    8  A    between atoms: C20_25  and  O4_26
REMARK    9  A    between atoms: C22_28  and  C23_29
REMARK   10  A    between atoms: C24_30  and  C25_32
REMARK   11  A    between atoms: C25_32  and  O6_33
REMARK   12  A    between atoms: O6_33  and  C26_34
REMARK   13  A    between atoms: C26_34  and  C27_35
REMARK                            x       y       z     vdW  Elec       q    Type
REMARK                         _______ _______ _______ _____ _____    ______ ____
ROOT
ATOM      1  C5  UNL     1      72.493  66.821 108.758  0.00  0.00    +0.000 C 
ATOM      2  C6  UNL     1      70.973  67.176 108.640  0.00  0.00    +0.000 C 
ATOM      3  C7  UNL     1      70.376  66.318 107.505  0.00  0.00    +0.000 C 
ATOM      4  C8  UNL     1      71.579  65.583 106.939  0.00  0.00    +0.000 C 
ATOM      5  C9  UNL     1      71.379  64.423 105.927  0.00  0.00    +0.000 C 
ATOM      6  C10 UNL     1      70.420  63.302 106.391  0.00  0.00    +0.000 C 
ATOM      7  C11 UNL     1      70.282  62.177 105.371  0.00  0.00    +0.000 C 
ATOM      8  F1  UNL     1      69.543  62.603 104.282  0.00  0.00    +0.000 F 
ATOM      9  C12 UNL     1      71.644  61.695 104.931  0.00  0.00    +0.000 C 
ATOM     10  C13 UNL     1      71.899  60.375 104.923  0.00  0.00    +0.000 C 
ATOM     11  C14 UNL     1      73.206  59.864 104.509  0.00  0.00    +0.000 C 
ATOM     12  O3  UNL     1      73.416  58.623 104.471  0.00  0.00    +0.000 OA
ATOM     13  C15 UNL     1      74.270  60.800 104.158  0.00  0.00    +0.000 C 
ATOM     14  C16 UNL     1      74.037  62.110 104.144  0.00  0.00    +0.000 C 
ATOM     15  C17 UNL     1      72.660  62.721 104.405  0.00  0.00    +0.000 C 
ATOM     16  C18 UNL     1      72.170  63.216 103.020  0.00  0.00    +0.000 C 
ATOM     17  C19 UNL     1      72.784  63.931 105.419  0.00  0.00    +0.000 C 
ATOM     18  F2  UNL     1      73.356  64.987 104.717  0.00  0.00    +0.000 F 
ATOM     19  C20 UNL     1      73.763  63.652 106.612  0.00  0.00    +0.000 C 
ATOM     20  C21 UNL     1      73.887  64.859 107.593  0.00  0.00    +0.000 C 
ATOM     21  C22 UNL     1      72.523  65.363 108.142  0.00  0.00    +0.000 C 
ATOM     22  C23 UNL     1      71.980  64.347 109.209  0.00  0.00    +0.000 C 
ENDROOT
BRANCH  19  23
ATOM     23  O4  UNL     1      73.415  62.465 107.277  0.00  0.00    +0.000 OA
ATOM     24  H24 UNL     1      73.752  61.713 106.722  0.00  0.00    +0.000 HD
ENDBRANCH  19  23
BRANCH   1  25
ATOM     25  C24 UNL     1      72.987  66.967 110.208  0.00  0.00    +0.000 C 
ATOM     26  O5  UNL     1      72.234  66.705 111.132  0.00  0.00    +0.000 OA
BRANCH  25  27
ATOM     27  C25 UNL     1      74.433  67.247 110.547  0.00  0.00    +0.000 C 
BRANCH  27  28
ATOM     28  O6  UNL     1      74.532  67.925 111.797  0.00  0.00    +0.000 OA
BRANCH  28  29
ATOM     29  C26 UNL     1      75.061  67.318 112.944  0.00  0.00    +0.000 C 
ATOM     30  C27 UNL     1      75.033  65.833 113.058  0.00  0.00    +0.000 C 
ATOM     31  O7  UNL     1      75.526  68.014 113.889  0.00  0.00    +0.000 OA
ENDBRANCH  28  29
ENDBRANCH  27  28
ENDBRANCH  25  27
ENDBRANCH   1  25
BRANCH   1  32
ATOM     32  O2  UNL     1      73.194  67.764 107.921  0.00  0.00    +0.000 OA
BRANCH  32  33
ATOM     33  C4  UNL     1      72.849  69.103 107.667  0.00  0.00    +0.000 C 
ATOM     34  O1  UNL     1      73.212  70.033 108.437  0.00  0.00    +0.000 OA
BRANCH  33  35
ATOM     35  C3  UNL     1      72.036  69.429 106.455  0.00  0.00    +0.000 C 
BRANCH  35  37
ATOM     36  C1  UNL     1      69.598  69.899 106.013  0.00  0.00    +0.000 C 
ATOM     37  C2  UNL     1      70.827  70.293 106.826  0.00  0.00    +0.000 C 
ENDBRANCH  35  37
ENDBRANCH  33  35
ENDBRANCH  32  33
ENDBRANCH   1  32
TORSDOF 9
ENDMDL
MODEL 13
REMARK VINA RESULT:      -6.5     11.259     14.384
REMARK  Name = ./S4095.pdb
REMARK  13 active torsions:
REMARK  status: ('A' for Active; 'I' for Inactive)
REMARK    1  A    between atoms: C1_1  and  C2_2
REMARK    2  A    between atoms: C2_2  and  C3_3
REMARK    3  A    between atoms: C3_3  and  C4_4
REMARK    4  A    between atoms: C4_4  and  O2_6
REMARK    5  A    between atoms: O2_6  and  C5_7
REMARK    6  A    between atoms: C5_7  and  C24_30
REMARK    7  A    between atoms: C17_21  and  C18_22
REMARK    8  A    between atoms: C20_25  and  O4_26
REMARK    9  A    between atoms: C22_28  and  C23_29
REMARK   10  A    between atoms: C24_30  and  C25_32
REMARK   11  A    between atoms: C25_32  and  O6_33
REMARK   12  A    between atoms: O6_33  and  C26_34
REMARK   13  A    between atoms: C26_34  and  C27_35
REMARK                            x       y       z     vdW  Elec       q    Type
REMARK                         _______ _______ _______ _____ _____    ______ ____
ROOT
ATOM      1  C5  UNL     1      73.258  66.636 108.840  0.00  0.00    +0.000 C 
ATOM      2  C6  UNL     1      72.018  67.471 108.377  0.00  0.00    +0.000 C 
ATOM      3  C7  UNL     1      71.319  66.689 107.245  0.00  0.00    +0.000 C 
ATOM      4  C8  UNL     1      72.228  65.493 107.020  0.00  0.00    +0.000 C 
ATOM      5  C9  UNL     1      71.761  64.316 106.123  0.00  0.00    +0.000 C 
ATOM      6  C10 UNL     1      70.395  63.700 106.502  0.00  0.00    +0.000 C 
ATOM      7  C11 UNL     1      69.999  62.532 105.605  0.00  0.00    +0.000 C 
ATOM      8  F1  UNL     1      69.644  62.989 104.349  0.00  0.00    +0.000 F 
ATOM      9  C12 UNL     1      71.129  61.536 105.508  0.00  0.00    +0.000 C 
ATOM     10  C13 UNL     1      70.869  60.231 105.696  0.00  0.00    +0.000 C 
ATOM     11  C14 UNL     1      71.936  59.231 105.616  0.00  0.00    +0.000 C 
ATOM     12  O3  UNL     1      71.669  58.009 105.758  0.00  0.00    +0.000 OA
ATOM     13  C15 UNL     1      73.312  59.661 105.388  0.00  0.00    +0.000 C 
ATOM     14  C16 UNL     1      73.593  60.946 105.183  0.00  0.00    +0.000 C 
ATOM     15  C17 UNL     1      72.522  62.034 105.089  0.00  0.00    +0.000 C 
ATOM     16  C18 UNL     1      72.466  62.415 103.588  0.00  0.00    +0.000 C 
ATOM     17  C19 UNL     1      72.938  63.283 105.968  0.00  0.00    +0.000 C 
ATOM     18  F2  UNL     1      73.962  63.932 105.285  0.00  0.00    +0.000 F 
ATOM     19  C20 UNL     1      73.552  62.897 107.358  0.00  0.00    +0.000 C 
ATOM     20  C21 UNL     1      73.972  64.138 108.206  0.00  0.00    +0.000 C 
ATOM     21  C22 UNL     1      72.831  65.174 108.407  0.00  0.00    +0.000 C 
ATOM     22  C23 UNL     1      71.794  64.617 109.446  0.00  0.00    +0.000 C 
ENDROOT
BRANCH  19  23
ATOM     23  O4  UNL     1      72.690  62.043 108.065  0.00  0.00    +0.000 OA
ATOM     24  H24 UNL     1      73.051  61.966 108.987  0.00  0.00    +0.000 HD
ENDBRANCH  19  23
BRANCH   1  25
ATOM     25  C24 UNL     1      73.549  66.855 110.334  0.00  0.00    +0.000 C 
ATOM     26  O5  UNL     1      72.622  66.997 111.116  0.00  0.00    +0.000 OA
BRANCH  25  27
ATOM     27  C25 UNL     1      74.937  66.718 110.919  0.00  0.00    +0.000 C 
BRANCH  27  28
ATOM     28  O6  UNL     1      75.295  65.345 111.044  0.00  0.00    +0.000 OA
BRANCH  28  29
ATOM     29  C26 UNL     1      74.794  64.525 112.062  0.00  0.00    +0.000 C 
ATOM     30  C27 UNL     1      75.146  64.828 113.478  0.00  0.00    +0.000 C 
ATOM     31  O7  UNL     1      74.081  63.519 111.792  0.00  0.00    +0.000 OA
ENDBRANCH  28  29
ENDBRANCH  27  28
ENDBRANCH  25  27
ENDBRANCH   1  25
BRANCH   1  32
ATOM     32  O2  UNL     1      74.378  67.112 108.064  0.00  0.00    +0.000 OA
BRANCH  32  33
ATOM     33  C4  UNL     1      74.594  68.417 107.587  0.00  0.00    +0.000 C 
ATOM     34  O1  UNL     1      74.867  69.366 108.371  0.00  0.00    +0.000 OA
BRANCH  33  35
ATOM     35  C3  UNL     1      74.501  68.681 106.118  0.00  0.00    +0.000 C 
BRANCH  35  37
ATOM     36  C1  UNL     1      73.811  67.094 104.284  0.00  0.00    +0.000 C 
ATOM     37  C2  UNL     1      74.882  67.433 105.315  0.00  0.00    +0.000 C 
ENDBRANCH  35  37
ENDBRANCH  33  35
ENDBRANCH  32  33
ENDBRANCH   1  32
TORSDOF 9
ENDMDL
MODEL 14
REMARK VINA RESULT:      -6.5     12.221     14.793
REMARK  Name = ./S4095.pdb
REMARK  13 active torsions:
REMARK  status: ('A' for Active; 'I' for Inactive)
REMARK    1  A    between atoms: C1_1  and  C2_2
REMARK    2  A    between atoms: C2_2  and  C3_3
REMARK    3  A    between atoms: C3_3  and  C4_4
REMARK    4  A    between atoms: C4_4  and  O2_6
REMARK    5  A    between atoms: O2_6  and  C5_7
REMARK    6  A    between atoms: C5_7  and  C24_30
REMARK    7  A    between atoms: C17_21  and  C18_22
REMARK    8  A    between atoms: C20_25  and  O4_26
REMARK    9  A    between atoms: C22_28  and  C23_29
REMARK   10  A    between atoms: C24_30  and  C25_32
REMARK   11  A    between atoms: C25_32  and  O6_33
REMARK   12  A    between atoms: O6_33  and  C26_34
REMARK   13  A    between atoms: C26_34  and  C27_35
REMARK                            x       y       z     vdW  Elec       q    Type
REMARK                         _______ _______ _______ _____ _____    ______ ____
ROOT
ATOM      1  C5  UNL     1      72.821  64.991 109.361  0.00  0.00    +0.000 C 
ATOM      2  C6  UNL     1      74.299  64.970 108.848  0.00  0.00    +0.000 C 
ATOM      3  C7  UNL     1      74.460  66.117 107.828  0.00  0.00    +0.000 C 
ATOM      4  C8  UNL     1      73.057  66.688 107.705  0.00  0.00    +0.000 C 
ATOM      5  C9  UNL     1      72.823  68.024 106.953  0.00  0.00    +0.000 C 
ATOM      6  C10 UNL     1      73.686  69.212 107.436  0.00  0.00    +0.000 C 
ATOM      7  C11 UNL     1      73.395  70.505 106.681  0.00  0.00    +0.000 C 
ATOM      8  F1  UNL     1      73.896  70.434 105.394  0.00  0.00    +0.000 F 
ATOM      9  C12 UNL     1      71.910  70.779 106.657  0.00  0.00    +0.000 C 
ATOM     10  C13 UNL     1      71.465  72.002 106.992  0.00  0.00    +0.000 C 
ATOM     11  C14 UNL     1      70.034  72.310 106.988  0.00  0.00    +0.000 C 
ATOM     12  O3  UNL     1      69.636  73.471 107.268  0.00  0.00    +0.000 OA
ATOM     13  C15 UNL     1      69.070  71.259 106.676  0.00  0.00    +0.000 C 
ATOM     14  C16 UNL     1      69.487  70.044 106.327  0.00  0.00    +0.000 C 
ATOM     15  C17 UNL     1      70.962  69.681 106.148  0.00  0.00    +0.000 C 
ATOM     16  C18 UNL     1      71.161  69.547 104.617  0.00  0.00    +0.000 C 
ATOM     17  C19 UNL     1      71.277  68.311 106.876  0.00  0.00    +0.000 C 
ATOM     18  F2  UNL     1      70.715  67.304 106.098  0.00  0.00    +0.000 F 
ATOM     19  C20 UNL     1      70.595  68.175 108.281  0.00  0.00    +0.000 C 
ATOM     20  C21 UNL     1      70.902  66.813 108.978  0.00  0.00    +0.000 C 
ATOM     21  C22 UNL     1      72.419  66.499 109.101  0.00  0.00    +0.000 C 
ATOM     22  C23 UNL     1      73.051  67.397 110.223  0.00  0.00    +0.000 C 
ENDROOT
BRANCH  19  23
ATOM     23  O4  UNL     1      70.914  69.270 109.099  0.00  0.00    +0.000 OA
ATOM     24  H24 UNL     1      70.640  69.030 110.023  0.00  0.00    +0.000 HD
ENDBRANCH  19  23
BRANCH   1  25
ATOM     25  C24 UNL     1      72.730  64.495 110.815  0.00  0.00    +0.000 C 
ATOM     26  O5  UNL     1      71.644  64.197 111.285  0.00  0.00    +0.000 OA
BRANCH  25  27
ATOM     27  C25 UNL     1      73.956  64.182 111.644  0.00  0.00    +0.000 C 
BRANCH  27  28
ATOM     28  O6  UNL     1      74.313  62.810 111.512  0.00  0.00    +0.000 OA
BRANCH  28  29
ATOM     29  C26 UNL     1      75.592  62.397 111.119  0.00  0.00    +0.000 C 
ATOM     30  C27 UNL     1      76.782  62.965 111.813  0.00  0.00    +0.000 C 
ATOM     31  O7  UNL     1      75.747  61.581 110.169  0.00  0.00    +0.000 OA
ENDBRANCH  28  29
ENDBRANCH  27  28
ENDBRANCH  25  27
ENDBRANCH   1  25
BRANCH   1  32
ATOM     32  O2  UNL     1      72.084  64.091 108.507  0.00  0.00    +0.000 OA
BRANCH  32  33
ATOM     33  C4  UNL     1      72.570  62.946 107.851  0.00  0.00    +0.000 C 
ATOM     34  O1  UNL     1      72.898  61.911 108.492  0.00  0.00    +0.000 OA
BRANCH  33  35
ATOM     35  C3  UNL     1      72.694  62.958 106.361  0.00  0.00    +0.000 C 
BRANCH  35  37
ATOM     36  C1  UNL     1      70.282  63.309 105.716  0.00  0.00    +0.000 C 
ATOM     37  C2  UNL     1      71.679  63.920 105.736  0.00  0.00    +0.000 C 
ENDBRANCH  35  37
ENDBRANCH  33  35
ENDBRANCH  32  33
ENDBRANCH   1  32
TORSDOF 9
ENDMDL
MODEL 15
REMARK VINA RESULT:      -6.4     15.358     18.403
REMARK  Name = ./S4095.pdb
REMARK  13 active torsions:
REMARK  status: ('A' for Active; 'I' for Inactive)
REMARK    1  A    between atoms: C1_1  and  C2_2
REMARK    2  A    between atoms: C2_2  and  C3_3
REMARK    3  A    between atoms: C3_3  and  C4_4
REMARK    4  A    between atoms: C4_4  and  O2_6
REMARK    5  A    between atoms: O2_6  and  C5_7
REMARK    6  A    between atoms: C5_7  and  C24_30
REMARK    7  A    between atoms: C17_21  and  C18_22
REMARK    8  A    between atoms: C20_25  and  O4_26
REMARK    9  A    between atoms: C22_28  and  C23_29
REMARK   10  A    between atoms: C24_30  and  C25_32
REMARK   11  A    between atoms: C25_32  and  O6_33
REMARK   12  A    between atoms: O6_33  and  C26_34
REMARK   13  A    between atoms: C26_34  and  C27_35
REMARK                            x       y       z     vdW  Elec       q    Type
REMARK                         _______ _______ _______ _____ _____    ______ ____
ROOT
ATOM      1  C5  UNL     1      75.505  62.995 114.671  0.00  0.00    +0.000 C 
ATOM      2  C6  UNL     1      76.134  64.142 115.530  0.00  0.00    +0.000 C 
ATOM      3  C7  UNL     1      77.262  63.527 116.384  0.00  0.00    +0.000 C 
ATOM      4  C8  UNL     1      77.177  62.041 116.075  0.00  0.00    +0.000 C 
ATOM      5  C9  UNL     1      78.301  61.081 116.549  0.00  0.00    +0.000 C 
ATOM      6  C10 UNL     1      79.733  61.485 116.129  0.00  0.00    +0.000 C 
ATOM      7  C11 UNL     1      80.792  60.493 116.597  0.00  0.00    +0.000 C 
ATOM      8  F1  UNL     1      80.974  60.593 117.964  0.00  0.00    +0.000 F 
ATOM      9  C12 UNL     1      80.402  59.085 116.215  0.00  0.00    +0.000 C 
ATOM     10  C13 UNL     1      81.306  58.296 115.611  0.00  0.00    +0.000 C 
ATOM     11  C14 UNL     1      80.969  56.927 115.219  0.00  0.00    +0.000 C 
ATOM     12  O3  UNL     1      81.839  56.189 114.688  0.00  0.00    +0.000 OA
ATOM     13  C15 UNL     1      79.613  56.428 115.431  0.00  0.00    +0.000 C 
ATOM     14  C16 UNL     1      78.704  57.185 116.041  0.00  0.00    +0.000 C 
ATOM     15  C17 UNL     1      79.015  58.563 116.627  0.00  0.00    +0.000 C 
ATOM     16  C18 UNL     1      79.016  58.357 118.163  0.00  0.00    +0.000 C 
ATOM     17  C19 UNL     1      77.897  59.600 116.202  0.00  0.00    +0.000 C 
ATOM     18  F2  UNL     1      76.764  59.300 116.953  0.00  0.00    +0.000 F 
ATOM     19  C20 UNL     1      77.447  59.461 114.707  0.00  0.00    +0.000 C 
ATOM     20  C21 UNL     1      76.333  60.478 114.307  0.00  0.00    +0.000 C 
ATOM     21  C22 UNL     1      76.700  61.959 114.608  0.00  0.00    +0.000 C 
ATOM     22  C23 UNL     1      77.755  62.460 113.559  0.00  0.00    +0.000 C 
ENDROOT
BRANCH  19  23
ATOM     23  O4  UNL     1      78.553  59.525 113.844  0.00  0.00    +0.000 OA
ATOM     24  H24 UNL     1      78.431  60.330 113.276  0.00  0.00    +0.000 HD
ENDBRANCH  19  23
BRANCH   1  25
ATOM     25  C24 UNL     1      74.984  63.529 113.326  0.00  0.00    +0.000 C 
ATOM     26  O5  UNL     1      74.219  62.849 112.661  0.00  0.00    +0.000 OA
BRANCH  25  27
ATOM     27  C25 UNL     1      75.232  64.947 112.865  0.00  0.00    +0.000 C 
BRANCH  27  28
ATOM     28  O6  UNL     1      74.106  65.771 113.150  0.00  0.00    +0.000 OA
BRANCH  28  29
ATOM     29  C26 UNL     1      74.213  66.979 113.852  0.00  0.00    +0.000 C 
ATOM     30  C27 UNL     1      73.510  67.123 115.158  0.00  0.00    +0.000 C 
ATOM     31  O7  UNL     1      74.866  67.949 113.378  0.00  0.00    +0.000 OA
ENDBRANCH  28  29
ENDBRANCH  27  28
ENDBRANCH  25  27
ENDBRANCH   1  25
BRANCH   1  32
ATOM     32  O2  UNL     1      74.396  62.478 115.437  0.00  0.00    +0.000 OA
BRANCH  32  33
ATOM     33  C4  UNL     1      73.444  63.214 116.165  0.00  0.00    +0.000 C 
ATOM     34  O1  UNL     1      72.519  63.845 115.586  0.00  0.00    +0.000 OA
BRANCH  33  35
ATOM     35  C3  UNL     1      73.531  63.243 117.657  0.00  0.00    +0.000 C 
BRANCH  35  37
ATOM     36  C1  UNL     1      74.489  65.375 118.604  0.00  0.00    +0.000 C 
ATOM     37  C2  UNL     1      73.216  64.643 118.194  0.00  0.00    +0.000 C 
ENDBRANCH  35  37
ENDBRANCH  33  35
ENDBRANCH  32  33
ENDBRANCH   1  32
TORSDOF 9
ENDMDL
MODEL 16
REMARK VINA RESULT:      -6.4     10.355     12.866
REMARK  Name = ./S4095.pdb
REMARK  13 active torsions:
REMARK  status: ('A' for Active; 'I' for Inactive)
REMARK    1  A    between atoms: C1_1  and  C2_2
REMARK    2  A    between atoms: C2_2  and  C3_3
REMARK    3  A    between atoms: C3_3  and  C4_4
REMARK    4  A    between atoms: C4_4  and  O2_6
REMARK    5  A    between atoms: O2_6  and  C5_7
REMARK    6  A    between atoms: C5_7  and  C24_30
REMARK    7  A    between atoms: C17_21  and  C18_22
REMARK    8  A    between atoms: C20_25  and  O4_26
REMARK    9  A    between atoms: C22_28  and  C23_29
REMARK   10  A    between atoms: C24_30  and  C25_32
REMARK   11  A    between atoms: C25_32  and  O6_33
REMARK   12  A    between atoms: O6_33  and  C26_34
REMARK   13  A    between atoms: C26_34  and  C27_35
REMARK                            x       y       z     vdW  Elec       q    Type
REMARK                         _______ _______ _______ _____ _____    ______ ____
ROOT
ATOM      1  C5  UNL     1      71.680  61.441 105.723  0.00  0.00    +0.000 C 
ATOM      2  C6  UNL     1      70.220  61.826 105.312  0.00  0.00    +0.000 C 
ATOM      3  C7  UNL     1      69.865  63.151 106.019  0.00  0.00    +0.000 C 
ATOM      4  C8  UNL     1      71.079  63.429 106.890  0.00  0.00    +0.000 C 
ATOM      5  C9  UNL     1      71.235  64.803 107.592  0.00  0.00    +0.000 C 
ATOM      6  C10 UNL     1      71.134  66.034 106.662  0.00  0.00    +0.000 C 
ATOM      7  C11 UNL     1      71.323  67.355 107.399  0.00  0.00    +0.000 C 
ATOM      8  F1  UNL     1      70.216  67.632 108.180  0.00  0.00    +0.000 F 
ATOM      9  C12 UNL     1      72.572  67.312 108.247  0.00  0.00    +0.000 C 
ATOM     10  C13 UNL     1      73.446  68.331 108.176  0.00  0.00    +0.000 C 
ATOM     11  C14 UNL     1      74.672  68.328 108.976  0.00  0.00    +0.000 C 
ATOM     12  O3  UNL     1      75.462  69.307 108.926  0.00  0.00    +0.000 OA
ATOM     13  C15 UNL     1      74.982  67.176 109.818  0.00  0.00    +0.000 C 
ATOM     14  C16 UNL     1      74.125  66.162 109.916  0.00  0.00    +0.000 C 
ATOM     15  C17 UNL     1      72.752  66.156 109.244  0.00  0.00    +0.000 C 
ATOM     16  C18 UNL     1      71.737  66.355 110.399  0.00  0.00    +0.000 C 
ATOM     17  C19 UNL     1      72.508  64.771 108.518  0.00  0.00    +0.000 C 
ATOM     18  F2  UNL     1      72.261  63.832 109.515  0.00  0.00    +0.000 F 
ATOM     19  C20 UNL     1      73.765  64.234 107.750  0.00  0.00    +0.000 C 
ATOM     20  C21 UNL     1      73.514  62.860 107.054  0.00  0.00    +0.000 C 
ATOM     21  C22 UNL     1      72.281  62.853 106.108  0.00  0.00    +0.000 C 
ATOM     22  C23 UNL     1      72.626  63.637 104.792  0.00  0.00    +0.000 C 
ENDROOT
BRANCH  19  23
ATOM     23  O4  UNL     1      74.252  65.198 106.854  0.00  0.00    +0.000 OA
ATOM     24  H24 UNL     1      73.547  65.339 106.168  0.00  0.00    +0.000 HD
ENDBRANCH  19  23
BRANCH   1  25
ATOM     25  C24 UNL     1      72.391  60.674 104.595  0.00  0.00    +0.000 C 
ATOM     26  O5  UNL     1      71.821  60.500 103.529  0.00  0.00    +0.000 OA
BRANCH  25  27
ATOM     27  C25 UNL     1      73.848  60.278 104.676  0.00  0.00    +0.000 C 
BRANCH  27  28
ATOM     28  O6  UNL     1      74.084  59.082 103.939  0.00  0.00    +0.000 OA
BRANCH  28  29
ATOM     29  C26 UNL     1      73.865  57.808 104.478  0.00  0.00    +0.000 C 
ATOM     30  C27 UNL     1      74.931  57.177 105.305  0.00  0.00    +0.000 C 
ATOM     31  O7  UNL     1      72.795  57.180 104.244  0.00  0.00    +0.000 OA
ENDBRANCH  28  29
ENDBRANCH  27  28
ENDBRANCH  25  27
ENDBRANCH   1  25
BRANCH   1  32
ATOM     32  O2  UNL     1      71.562  60.583 106.877  0.00  0.00    +0.000 OA
BRANCH  32  33
ATOM     33  C4  UNL     1      71.287  59.204 106.892  0.00  0.00    +0.000 C 
ATOM     34  O1  UNL     1      70.277  58.729 106.307  0.00  0.00    +0.000 OA
BRANCH  33  35
ATOM     35  C3  UNL     1      72.218  58.283 107.614  0.00  0.00    +0.000 C 
BRANCH  35  37
ATOM     36  C1  UNL     1      74.363  59.411 108.309  0.00  0.00    +0.000 C 
ATOM     37  C2  UNL     1      72.953  59.021 108.738  0.00  0.00    +0.000 C 
ENDBRANCH  35  37
ENDBRANCH  33  35
ENDBRANCH  32  33
ENDBRANCH   1  32
TORSDOF 9
ENDMDL
MODEL 17
REMARK VINA RESULT:      -6.4     12.310     14.834
REMARK  Name = ./S4095.pdb
REMARK  13 active torsions:
REMARK  status: ('A' for Active; 'I' for Inactive)
REMARK    1  A    between atoms: C1_1  and  C2_2
REMARK    2  A    between atoms: C2_2  and  C3_3
REMARK    3  A    between atoms: C3_3  and  C4_4
REMARK    4  A    between atoms: C4_4  and  O2_6
REMARK    5  A    between atoms: O2_6  and  C5_7
REMARK    6  A    between atoms: C5_7  and  C24_30
REMARK    7  A    between atoms: C17_21  and  C18_22
REMARK    8  A    between atoms: C20_25  and  O4_26
REMARK    9  A    between atoms: C22_28  and  C23_29
REMARK   10  A    between atoms: C24_30  and  C25_32
REMARK   11  A    between atoms: C25_32  and  O6_33
REMARK   12  A    between atoms: O6_33  and  C26_34
REMARK   13  A    between atoms: C26_34  and  C27_35
REMARK                            x       y       z     vdW  Elec       q    Type
REMARK                         _______ _______ _______ _____ _____    ______ ____
ROOT
ATOM      1  C5  UNL     1      73.529  65.191 108.147  0.00  0.00    +0.000 C 
ATOM      2  C6  UNL     1      74.955  65.770 108.428  0.00  0.00    +0.000 C 
ATOM      3  C7  UNL     1      74.961  67.246 107.980  0.00  0.00    +0.000 C 
ATOM      4  C8  UNL     1      73.586  67.439 107.362  0.00  0.00    +0.000 C 
ATOM      5  C9  UNL     1      73.088  68.863 106.999  0.00  0.00    +0.000 C 
ATOM      6  C10 UNL     1      73.147  69.895 108.149  0.00  0.00    +0.000 C 
ATOM      7  C11 UNL     1      72.620  71.268 107.744  0.00  0.00    +0.000 C 
ATOM      8  F1  UNL     1      73.515  71.896 106.897  0.00  0.00    +0.000 F 
ATOM      9  C12 UNL     1      71.267  71.141 107.086  0.00  0.00    +0.000 C 
ATOM     10  C13 UNL     1      70.264  71.938 107.492  0.00  0.00    +0.000 C 
ATOM     11  C14 UNL     1      68.936  71.845 106.885  0.00  0.00    +0.000 C 
ATOM     12  O3  UNL     1      68.018  72.625 107.251  0.00  0.00    +0.000 OA
ATOM     13  C15 UNL     1      68.676  70.832 105.866  0.00  0.00    +0.000 C 
ATOM     14  C16 UNL     1      69.657  70.041 105.437  0.00  0.00    +0.000 C 
ATOM     15  C17 UNL     1      71.108  70.177 105.898  0.00  0.00    +0.000 C 
ATOM     16  C18 UNL     1      71.861  70.782 104.685  0.00  0.00    +0.000 C 
ATOM     17  C19 UNL     1      71.697  68.756 106.270  0.00  0.00    +0.000 C 
ATOM     18  F2  UNL     1      71.917  68.085 105.071  0.00  0.00    +0.000 F 
ATOM     19  C20 UNL     1      70.697  67.852 107.069  0.00  0.00    +0.000 C 
ATOM     20  C21 UNL     1      71.285  66.448 107.414  0.00  0.00    +0.000 C 
ATOM     21  C22 UNL     1      72.648  66.506 108.160  0.00  0.00    +0.000 C 
ATOM     22  C23 UNL     1      72.413  66.949 109.648  0.00  0.00    +0.000 C 
ENDROOT
BRANCH  19  23
ATOM     23  O4  UNL     1      70.221  68.519 108.210  0.00  0.00    +0.000 OA
ATOM     24  H24 UNL     1      70.592  69.440 108.182  0.00  0.00    +0.000 HD
ENDBRANCH  19  23
BRANCH   1  25
ATOM     25  C24 UNL     1      73.158  64.104 109.171  0.00  0.00    +0.000 C 
ATOM     26  O5  UNL     1      72.053  63.587 109.131  0.00  0.00    +0.000 OA
BRANCH  25  27
ATOM     27  C25 UNL     1      74.170  63.508 110.123  0.00  0.00    +0.000 C 
BRANCH  27  28
ATOM     28  O6  UNL     1      73.707  63.597 111.468  0.00  0.00    +0.000 OA
BRANCH  28  29
ATOM     29  C26 UNL     1      73.863  64.752 112.244  0.00  0.00    +0.000 C 
ATOM     30  C27 UNL     1      75.136  65.520 112.155  0.00  0.00    +0.000 C 
ATOM     31  O7  UNL     1      72.955  65.127 113.037  0.00  0.00    +0.000 OA
ENDBRANCH  28  29
ENDBRANCH  27  28
ENDBRANCH  25  27
ENDBRANCH   1  25
BRANCH   1  32
ATOM     32  O2  UNL     1      73.583  64.602 106.831  0.00  0.00    +0.000 OA
BRANCH  32  33
ATOM     33  C4  UNL     1      73.827  63.256 106.507  0.00  0.00    +0.000 C 
ATOM     34  O1  UNL     1      74.943  62.717 106.738  0.00  0.00    +0.000 OA
BRANCH  33  35
ATOM     35  C3  UNL     1      72.737  62.448 105.878  0.00  0.00    +0.000 C 
BRANCH  35  37
ATOM     36  C1  UNL     1      70.303  63.096 105.983  0.00  0.00    +0.000 C 
ATOM     37  C2  UNL     1      71.644  63.357 105.308  0.00  0.00    +0.000 C 
ENDBRANCH  35  37
ENDBRANCH  33  35
ENDBRANCH  32  33
ENDBRANCH   1  32
TORSDOF 9
ENDMDL
MODEL 18
REMARK VINA RESULT:      -6.4     10.933     16.241
REMARK  Name = ./S4095.pdb
REMARK  13 active torsions:
REMARK  status: ('A' for Active; 'I' for Inactive)
REMARK    1  A    between atoms: C1_1  and  C2_2
REMARK    2  A    between atoms: C2_2  and  C3_3
REMARK    3  A    between atoms: C3_3  and  C4_4
REMARK    4  A    between atoms: C4_4  and  O2_6
REMARK    5  A    between atoms: O2_6  and  C5_7
REMARK    6  A    between atoms: C5_7  and  C24_30
REMARK    7  A    between atoms: C17_21  and  C18_22
REMARK    8  A    between atoms: C20_25  and  O4_26
REMARK    9  A    between atoms: C22_28  and  C23_29
REMARK   10  A    between atoms: C24_30  and  C25_32
REMARK   11  A    between atoms: C25_32  and  O6_33
REMARK   12  A    between atoms: O6_33  and  C26_34
REMARK   13  A    between atoms: C26_34  and  C27_35
REMARK                            x       y       z     vdW  Elec       q    Type
REMARK                         _______ _______ _______ _____ _____    ______ ____
ROOT
ATOM      1  C5  UNL     1      70.853  60.556  98.631  0.00  0.00    +0.000 C 
ATOM      2  C6  UNL     1      71.084  59.213  99.401  0.00  0.00    +0.000 C 
ATOM      3  C7  UNL     1      70.605  58.061  98.493  0.00  0.00    +0.000 C 
ATOM      4  C8  UNL     1      70.019  58.775  97.286  0.00  0.00    +0.000 C 
ATOM      5  C9  UNL     1      69.639  57.971  96.014  0.00  0.00    +0.000 C 
ATOM      6  C10 UNL     1      70.765  57.085  95.434  0.00  0.00    +0.000 C 
ATOM      7  C11 UNL     1      70.346  56.340  94.171  0.00  0.00    +0.000 C 
ATOM      8  F1  UNL     1      69.462  55.323  94.483  0.00  0.00    +0.000 F 
ATOM      9  C12 UNL     1      69.725  57.295  93.178  0.00  0.00    +0.000 C 
ATOM     10  C13 UNL     1      70.141  57.270  91.900  0.00  0.00    +0.000 C 
ATOM     11  C14 UNL     1      69.571  58.180  90.906  0.00  0.00    +0.000 C 
ATOM     12  O3  UNL     1      69.944  58.119  89.705  0.00  0.00    +0.000 OA
ATOM     13  C15 UNL     1      68.581  59.172  91.317  0.00  0.00    +0.000 C 
ATOM     14  C16 UNL     1      68.143  59.206  92.574  0.00  0.00    +0.000 C 
ATOM     15  C17 UNL     1      68.563  58.190  93.637  0.00  0.00    +0.000 C 
ATOM     16  C18 UNL     1      67.319  57.291  93.849  0.00  0.00    +0.000 C 
ATOM     17  C19 UNL     1      68.950  58.935  94.979  0.00  0.00    +0.000 C 
ATOM     18  F2  UNL     1      67.759  59.368  95.556  0.00  0.00    +0.000 F 
ATOM     19  C20 UNL     1      69.794  60.237  94.753  0.00  0.00    +0.000 C 
ATOM     20  C21 UNL     1      70.153  60.970  96.084  0.00  0.00    +0.000 C 
ATOM     21  C22 UNL     1      70.861  60.061  97.128  0.00  0.00    +0.000 C 
ATOM     22  C23 UNL     1      72.345  59.808  96.681  0.00  0.00    +0.000 C 
ENDROOT
BRANCH  19  23
ATOM     23  O4  UNL     1      70.932  59.967  93.977  0.00  0.00    +0.000 OA
ATOM     24  H24 UNL     1      71.722  60.217  94.524  0.00  0.00    +0.000 HD
ENDBRANCH  19  23
BRANCH   1  25
ATOM     25  C24 UNL     1      71.909  61.606  99.016  0.00  0.00    +0.000 C 
ATOM     26  O5  UNL     1      71.791  62.754  98.620  0.00  0.00    +0.000 OA
BRANCH  25  27
ATOM     27  C25 UNL     1      73.002  61.326 100.023  0.00  0.00    +0.000 C 
BRANCH  27  28
ATOM     28  O6  UNL     1      74.265  61.213  99.373  0.00  0.00    +0.000 OA
BRANCH  28  29
ATOM     29  C26 UNL     1      75.044  60.051  99.437  0.00  0.00    +0.000 C 
ATOM     30  C27 UNL     1      76.521  60.175  99.586  0.00  0.00    +0.000 C 
ATOM     31  O7  UNL     1      74.515  58.909  99.337  0.00  0.00    +0.000 OA
ENDBRANCH  28  29
ENDBRANCH  27  28
ENDBRANCH  25  27
ENDBRANCH   1  25
BRANCH   1  32
ATOM     32  O2  UNL     1      69.548  61.029  99.026  0.00  0.00    +0.000 OA
BRANCH  32  33
ATOM     33  C4  UNL     1      68.857  60.735 100.215  0.00  0.00    +0.000 C 
ATOM     34  O1  UNL     1      69.406  60.863 101.343  0.00  0.00    +0.000 OA
BRANCH  33  35
ATOM     35  C3  UNL     1      67.440  60.266 100.138  0.00  0.00    +0.000 C 
BRANCH  35  37
ATOM     36  C1  UNL     1      66.820  58.217  98.806  0.00  0.00    +0.000 C 
ATOM     37  C2  UNL     1      67.371  58.736 100.129  0.00  0.00    +0.000 C 
ENDBRANCH  35  37
ENDBRANCH  33  35
ENDBRANCH  32  33
ENDBRANCH   1  32
TORSDOF 9
ENDMDL
MODEL 19
REMARK VINA RESULT:      -6.3     12.240     15.833
REMARK  Name = ./S4095.pdb
REMARK  13 active torsions:
REMARK  status: ('A' for Active; 'I' for Inactive)
REMARK    1  A    between atoms: C1_1  and  C2_2
REMARK    2  A    between atoms: C2_2  and  C3_3
REMARK    3  A    between atoms: C3_3  and  C4_4
REMARK    4  A    between atoms: C4_4  and  O2_6
REMARK    5  A    between atoms: O2_6  and  C5_7
REMARK    6  A    between atoms: C5_7  and  C24_30
REMARK    7  A    between atoms: C17_21  and  C18_22
REMARK    8  A    between atoms: C20_25  and  O4_26
REMARK    9  A    between atoms: C22_28  and  C23_29
REMARK   10  A    between atoms: C24_30  and  C25_32
REMARK   11  A    between atoms: C25_32  and  O6_33
REMARK   12  A    between atoms: O6_33  and  C26_34
REMARK   13  A    between atoms: C26_34  and  C27_35
REMARK                            x       y       z     vdW  Elec       q    Type
REMARK                         _______ _______ _______ _____ _____    ______ ____
ROOT
ATOM      1  C5  UNL     1      74.582  63.441 113.349  0.00  0.00    +0.000 C 
ATOM      2  C6  UNL     1      75.473  62.457 112.522  0.00  0.00    +0.000 C 
ATOM      3  C7  UNL     1      75.125  62.646 111.031  0.00  0.00    +0.000 C 
ATOM      4  C8  UNL     1      73.980  63.645 111.053  0.00  0.00    +0.000 C 
ATOM      5  C9  UNL     1      73.488  64.297 109.734  0.00  0.00    +0.000 C 
ATOM      6  C10 UNL     1      74.587  64.983 108.889  0.00  0.00    +0.000 C 
ATOM      7  C11 UNL     1      74.044  65.629 107.618  0.00  0.00    +0.000 C 
ATOM      8  F1  UNL     1      73.691  64.659 106.698  0.00  0.00    +0.000 F 
ATOM      9  C12 UNL     1      72.860  66.510 107.940  0.00  0.00    +0.000 C 
ATOM     10  C13 UNL     1      72.819  67.758 107.445  0.00  0.00    +0.000 C 
ATOM     11  C14 UNL     1      71.694  68.648 107.735  0.00  0.00    +0.000 C 
ATOM     12  O3  UNL     1      71.653  69.801 107.233  0.00  0.00    +0.000 OA
ATOM     13  C15 UNL     1      70.627  68.196 108.625  0.00  0.00    +0.000 C 
ATOM     14  C16 UNL     1      70.638  66.959 109.115  0.00  0.00    +0.000 C 
ATOM     15  C17 UNL     1      71.687  65.914 108.736  0.00  0.00    +0.000 C 
ATOM     16  C18 UNL     1      70.943  64.912 107.816  0.00  0.00    +0.000 C 
ATOM     17  C19 UNL     1      72.226  65.187 110.034  0.00  0.00    +0.000 C 
ATOM     18  F2  UNL     1      71.217  64.330 110.464  0.00  0.00    +0.000 F 
ATOM     19  C20 UNL     1      72.479  66.158 111.238  0.00  0.00    +0.000 C 
ATOM     20  C21 UNL     1      72.994  65.425 112.516  0.00  0.00    +0.000 C 
ATOM     21  C22 UNL     1      74.258  64.554 112.272  0.00  0.00    +0.000 C 
ATOM     22  C23 UNL     1      75.512  65.484 112.107  0.00  0.00    +0.000 C 
ENDROOT
BRANCH  19  23
ATOM     23  O4  UNL     1      73.324  67.214 110.859  0.00  0.00    +0.000 OA
ATOM     24  H24 UNL     1      73.001  67.541 109.979  0.00  0.00    +0.000 HD
ENDBRANCH  19  23
BRANCH   1  25
ATOM     25  C24 UNL     1      75.304  63.907 114.625  0.00  0.00    +0.000 C 
ATOM     26  O5  UNL     1      76.452  63.549 114.834  0.00  0.00    +0.000 OA
BRANCH  25  27
ATOM     27  C25 UNL     1      74.720  64.946 115.555  0.00  0.00    +0.000 C 
BRANCH  27  28
ATOM     28  O6  UNL     1      75.515  66.128 115.549  0.00  0.00    +0.000 OA
BRANCH  28  29
ATOM     29  C26 UNL     1      74.977  67.398 115.305  0.00  0.00    +0.000 C 
ATOM     30  C27 UNL     1      73.525  67.629 115.545  0.00  0.00    +0.000 C 
ATOM     31  O7  UNL     1      75.698  68.332 114.855  0.00  0.00    +0.000 OA
ENDBRANCH  28  29
ENDBRANCH  27  28
ENDBRANCH  25  27
ENDBRANCH   1  25
BRANCH   1  32
ATOM     32  O2  UNL     1      73.398  62.701 113.718  0.00  0.00    +0.000 OA
BRANCH  32  33
ATOM     33  C4  UNL     1      73.325  61.561 114.537  0.00  0.00    +0.000 C 
ATOM     34  O1  UNL     1      73.524  60.405 114.074  0.00  0.00    +0.000 OA
BRANCH  33  35
ATOM     35  C3  UNL     1      73.008  61.725 115.989  0.00  0.00    +0.000 C 
BRANCH  35  37
ATOM     36  C1  UNL     1      71.791  63.447 117.372  0.00  0.00    +0.000 C 
ATOM     37  C2  UNL     1      71.702  62.502 116.178  0.00  0.00    +0.000 C 
ENDBRANCH  35  37
ENDBRANCH  33  35
ENDBRANCH  32  33
ENDBRANCH   1  32
TORSDOF 9
ENDMDL
MODEL 20
REMARK VINA RESULT:      -6.3     11.122     14.491
REMARK  Name = ./S4095.pdb
REMARK  13 active torsions:
REMARK  status: ('A' for Active; 'I' for Inactive)
REMARK    1  A    between atoms: C1_1  and  C2_2
REMARK    2  A    between atoms: C2_2  and  C3_3
REMARK    3  A    between atoms: C3_3  and  C4_4
REMARK    4  A    between atoms: C4_4  and  O2_6
REMARK    5  A    between atoms: O2_6  and  C5_7
REMARK    6  A    between atoms: C5_7  and  C24_30
REMARK    7  A    between atoms: C17_21  and  C18_22
REMARK    8  A    between atoms: C20_25  and  O4_26
REMARK    9  A    between atoms: C22_28  and  C23_29
REMARK   10  A    between atoms: C24_30  and  C25_32
REMARK   11  A    between atoms: C25_32  and  O6_33
REMARK   12  A    between atoms: O6_33  and  C26_34
REMARK   13  A    between atoms: C26_34  and  C27_35
REMARK                            x       y       z     vdW  Elec       q    Type
REMARK                         _______ _______ _______ _____ _____    ______ ____
ROOT
ATOM      1  C5  UNL     1      72.622  62.353 105.844  0.00  0.00    +0.000 C 
ATOM      2  C6  UNL     1      74.170  62.477 106.035  0.00  0.00    +0.000 C 
ATOM      3  C7  UNL     1      74.843  62.064 104.709  0.00  0.00    +0.000 C 
ATOM      4  C8  UNL     1      73.680  61.615 103.841  0.00  0.00    +0.000 C 
ATOM      5  C9  UNL     1      73.896  61.343 102.328  0.00  0.00    +0.000 C 
ATOM      6  C10 UNL     1      74.549  62.501 101.538  0.00  0.00    +0.000 C 
ATOM      7  C11 UNL     1      74.712  62.190 100.054  0.00  0.00    +0.000 C 
ATOM      8  F1  UNL     1      75.716  61.258  99.865  0.00  0.00    +0.000 F 
ATOM      9  C12 UNL     1      73.410  61.691  99.473  0.00  0.00    +0.000 C 
ATOM     10  C13 UNL     1      72.955  62.228  98.328  0.00  0.00    +0.000 C 
ATOM     11  C14 UNL     1      71.696  61.779  97.733  0.00  0.00    +0.000 C 
ATOM     12  O3  UNL     1      71.303  62.266  96.641  0.00  0.00    +0.000 OA
ATOM     13  C15 UNL     1      70.889  60.776  98.423  0.00  0.00    +0.000 C 
ATOM     14  C16 UNL     1      71.325  60.218  99.549  0.00  0.00    +0.000 C 
ATOM     15  C17 UNL     1      72.699  60.510 100.154  0.00  0.00    +0.000 C 
ATOM     16  C18 UNL     1      73.534  59.231  99.891  0.00  0.00    +0.000 C 
ATOM     17  C19 UNL     1      72.564  60.780 101.708  0.00  0.00    +0.000 C 
ATOM     18  F2  UNL     1      72.323  59.549 102.310  0.00  0.00    +0.000 F 
ATOM     19  C20 UNL     1      71.331  61.670 102.085  0.00  0.00    +0.000 C 
ATOM     20  C21 UNL     1      71.201  61.914 103.622  0.00  0.00    +0.000 C 
ATOM     21  C22 UNL     1      72.486  62.496 104.274  0.00  0.00    +0.000 C 
ATOM     22  C23 UNL     1      72.631  64.011 103.885  0.00  0.00    +0.000 C 
ENDROOT
BRANCH  19  23
ATOM     23  O4  UNL     1      71.341  62.872 101.360  0.00  0.00    +0.000 OA
ATOM     24  H24 UNL     1      71.473  62.634 100.405  0.00  0.00    +0.000 HD
ENDBRANCH  19  23
BRANCH   1  25
ATOM     25  C24 UNL     1      71.871  63.389 106.698  0.00  0.00    +0.000 C 
ATOM     26  O5  UNL     1      70.651  63.409 106.689  0.00  0.00    +0.000 OA
BRANCH  25  27
ATOM     27  C25 UNL     1      72.574  64.278 107.699  0.00  0.00    +0.000 C 
BRANCH  27  28
ATOM     28  O6  UNL     1      72.209  63.920 109.029  0.00  0.00    +0.000 OA
BRANCH  28  29
ATOM     29  C26 UNL     1      71.418  64.742 109.841  0.00  0.00    +0.000 C 
ATOM     30  C27 UNL     1      70.965  66.061 109.317  0.00  0.00    +0.000 C 
ATOM     31  O7  UNL     1      71.114  64.393 111.016  0.00  0.00    +0.000 OA
ENDBRANCH  28  29
ENDBRANCH  27  28
ENDBRANCH  25  27
ENDBRANCH   1  25
BRANCH   1  32
ATOM     32  O2  UNL     1      72.265  61.026 106.287  0.00  0.00    +0.000 OA
BRANCH  32  33
ATOM     33  C4  UNL     1      72.876  60.274 107.306  0.00  0.00    +0.000 C 
ATOM     34  O1  UNL     1      72.802  60.622 108.515  0.00  0.00    +0.000 OA
BRANCH  33  35
ATOM     35  C3  UNL     1      73.624  59.031 106.945  0.00  0.00    +0.000 C 
BRANCH  35  37
ATOM     36  C1  UNL     1      74.263  58.105 104.688  0.00  0.00    +0.000 C 
ATOM     37  C2  UNL     1      73.110  58.448 105.625  0.00  0.00    +0.000 C 
ENDBRANCH  35  37
ENDBRANCH  33  35
ENDBRANCH  32  33
ENDBRANCH   1  32
TORSDOF 9
ENDMDL
