MODEL 1
REMARK VINA RESULT:      -8.0      0.000      0.000
REMARK  Name = ./S4122.pdb
REMARK  28 active torsions:
REMARK  status: ('A' for Active; 'I' for Inactive)
REMARK    1  A    between atoms: C1_1  and  C2_2
REMARK    2  A    between atoms: C2_2  and  C3_3
REMARK    3  A    between atoms: C6_8  and  O3_9
REMARK    4  A    between atoms: C7_10  and  C8_11
REMARK    5  A    between atoms: C9_12  and  O4_13
REMARK    6  A    between atoms: O4_13  and  C10_14
REMARK    7  A    between atoms: C11_16  and  C12_17
REMARK    8  A    between atoms: C13_18  and  O6_19
REMARK    9  A    between atoms: C14_20  and  N1_23
REMARK   10  A    between atoms: C15_21  and  O7_22
REMARK   11  A    between atoms: N1_23  and  C16_24
REMARK   12  A    between atoms: N1_23  and  C17_25
REMARK   13  A    between atoms: C18_26  and  C19_27
REMARK   14  A    between atoms: C19_27  and  C20_28
REMARK   15  A    between atoms: C20_28  and  N2_29
REMARK   16  A    between atoms: C22_31  and  C23_32
REMARK   17  A    between atoms: C25_34  and  C26_35
REMARK   18  A    between atoms: C29_38  and  C30_39
REMARK   19  A    between atoms: C34_44  and  C46_61
REMARK   20  A    between atoms: C36_46  and  C37_47
REMARK   21  A    between atoms: C37_47  and  O9_48
REMARK   22  A    between atoms: O9_48  and  C38_49
REMARK   23  A    between atoms: C39_51  and  C40_52
REMARK   24  A    between atoms: C41_53  and  O11_54
REMARK   25  A    between atoms: C42_55  and  O12_56
REMARK   26  A    between atoms: O12_56  and  C43_57
REMARK   27  A    between atoms: C44_58  and  O13_59
REMARK   28  A    between atoms: O13_59  and  C45_60
REMARK                            x       y       z     vdW  Elec       q    Type
REMARK                         _______ _______ _______ _____ _____    ______ ____
ROOT
ATOM      1  C3  UNL     1      74.531  62.723 109.463  0.00  0.00    +0.000 C 
ATOM      2  O1  UNL     1      73.611  62.154 108.528  0.00  0.00    +0.000 OA
ATOM      3  C4  UNL     1      73.362  60.791 108.375  0.00  0.00    +0.000 C 
ATOM      4  O2  UNL     1      73.268  60.035 109.376  0.00  0.00    +0.000 OA
ATOM      5  C5  UNL     1      73.387  60.239 106.986  0.00  0.00    +0.000 C 
ATOM      6  C6  UNL     1      72.029  59.743 106.414  0.00  0.00    +0.000 C 
ATOM      7  C7  UNL     1      71.506  60.527 105.167  0.00  0.00    +0.000 C 
ATOM      8  C8  UNL     1      70.934  61.904 105.574  0.00  0.00    +0.000 C 
ATOM      9  C9  UNL     1      72.548  60.559 103.976  0.00  0.00    +0.000 C 
ATOM     10  C18 UNL     1      72.176  61.524 102.796  0.00  0.00    +0.000 C 
ATOM     11  C28 UNL     1      73.401  61.847 101.883  0.00  0.00    +0.000 C 
ATOM     12  C29 UNL     1      74.547  62.761 102.440  0.00  0.00    +0.000 C 
ATOM     13  C30 UNL     1      75.728  61.988 103.055  0.00  0.00    +0.000 C 
ATOM     14  C31 UNL     1      74.078  63.911 103.305  0.00  0.00    +0.000 C 
ATOM     15  O8  UNL     1      73.427  64.858 102.779  0.00  0.00    +0.000 OA
ATOM     16  C32 UNL     1      74.315  63.956 104.753  0.00  0.00    +0.000 C 
ATOM     17  C33 UNL     1      75.332  64.667 105.287  0.00  0.00    +0.000 C 
ATOM     18  C34 UNL     1      75.630  64.691 106.749  0.00  0.00    +0.000 C 
ATOM     19  C35 UNL     1      74.620  64.578 107.653  0.00  0.00    +0.000 C 
ATOM     20  C36 UNL     1      74.650  64.251 109.147  0.00  0.00    +0.000 C 
ATOM     21  C46 UNL     1      77.061  64.932 107.132  0.00  0.00    +0.000 C 
ENDROOT
BRANCH   1  23
ATOM     22  C1  UNL     1      76.541  61.855 110.890  0.00  0.00    +0.000 C 
ATOM     23  C2  UNL     1      75.867  61.930 109.509  0.00  0.00    +0.000 C 
ENDBRANCH   1  23
BRANCH   6  24
ATOM     24  O3  UNL     1      71.036  59.697 107.413  0.00  0.00    +0.000 OA
ATOM     25  H10 UNL     1      70.859  60.636 107.689  0.00  0.00    +0.000 HD
ENDBRANCH   6  24
BRANCH   9  26
ATOM     26  O4  UNL     1      72.705  59.227 103.487  0.00  0.00    +0.000 OA
BRANCH  26  27
ATOM     27  C10 UNL     1      73.971  58.637 103.773  0.00  0.00    +0.000 C 
ATOM     28  O5  UNL     1      74.858  58.837 102.668  0.00  0.00    +0.000 OA
ATOM     29  C11 UNL     1      74.801  57.836 101.653  0.00  0.00    +0.000 C 
ATOM     30  C12 UNL     1      73.488  57.880 100.857  0.00  0.00    +0.000 C 
ATOM     31  C13 UNL     1      75.150  56.410 102.169  0.00  0.00    +0.000 C 
ATOM     32  C14 UNL     1      75.027  56.332 103.714  0.00  0.00    +0.000 C 
ATOM     33  C15 UNL     1      73.796  57.131 104.164  0.00  0.00    +0.000 C 
BRANCH  32  34
ATOM     34  N1  UNL     1      74.994  54.954 104.285  0.00  0.00    +0.000 NA
ATOM     35  C16 UNL     1      76.321  54.465 104.692  0.00  0.00    +0.000 C 
ATOM     36  C17 UNL     1      74.283  53.941 103.479  0.00  0.00    +0.000 C 
ENDBRANCH  32  34
BRANCH  31  37
ATOM     37  O6  UNL     1      76.465  56.075 101.801  0.00  0.00    +0.000 OA
ATOM     38  H22 UNL     1      76.597  56.404 100.876  0.00  0.00    +0.000 HD
ENDBRANCH  31  37
BRANCH  33  39
ATOM     39  O7  UNL     1      73.595  56.971 105.546  0.00  0.00    +0.000 OA
ATOM     40  H25 UNL     1      74.363  57.385 106.018  0.00  0.00    +0.000 HD
ENDBRANCH  33  39
ENDBRANCH  26  27
ENDBRANCH   9  26
BRANCH  10  41
ATOM     41  C19 UNL     1      70.995  60.917 101.969  0.00  0.00    +0.000 C 
BRANCH  41  42
ATOM     42  C20 UNL     1      71.247  60.773 100.457  0.00  0.00    +0.000 C 
BRANCH  42  43
ATOM     43  N2  UNL     1      70.169  61.408  99.666  0.00  0.00    +0.000 NA
ATOM     44  C21 UNL     1      68.828  61.201 100.290  0.00  0.00    +0.000 C 
ATOM     45  C22 UNL     1      68.060  60.027  99.652  0.00  0.00    +0.000 C 
ATOM     46  C23 UNL     1      66.746  59.757 100.397  0.00  0.00    +0.000 C 
ATOM     47  C24 UNL     1      67.808  60.297  98.149  0.00  0.00    +0.000 C 
ATOM     48  C25 UNL     1      68.895  61.193  97.514  0.00  0.00    +0.000 C 
ATOM     49  C26 UNL     1      69.034  60.920  96.012  0.00  0.00    +0.000 C 
ATOM     50  C27 UNL     1      70.245  60.999  98.237  0.00  0.00    +0.000 C 
ENDBRANCH  42  43
ENDBRANCH  41  42
ENDBRANCH  10  41
BRANCH  20  51
ATOM     51  C37 UNL     1      75.554  65.093 110.077  0.00  0.00    +0.000 C 
BRANCH  51  52
ATOM     52  O9  UNL     1      74.817  65.963 110.899  0.00  0.00    +0.000 OA
BRANCH  52  53
ATOM     53  C38 UNL     1      74.515  65.371 112.151  0.00  0.00    +0.000 C 
ATOM     54  O10 UNL     1      75.325  65.955 113.165  0.00  0.00    +0.000 OA
ATOM     55  C39 UNL     1      74.672  67.015 113.834  0.00  0.00    +0.000 C 
ATOM     56  C40 UNL     1      75.693  67.758 114.696  0.00  0.00    +0.000 C 
ATOM     57  C41 UNL     1      73.524  66.449 114.701  0.00  0.00    +0.000 C 
ATOM     58  C42 UNL     1      72.661  65.434 113.898  0.00  0.00    +0.000 C 
ATOM     59  C44 UNL     1      72.985  65.474 112.392  0.00  0.00    +0.000 C 
BRANCH  57  60
ATOM     60  O11 UNL     1      72.728  67.514 115.172  0.00  0.00    +0.000 OA
ATOM     61  H69 UNL     1      73.195  67.875 115.968  0.00  0.00    +0.000 HD
ENDBRANCH  57  60
BRANCH  58  62
ATOM     62  O12 UNL     1      72.912  64.123 114.382  0.00  0.00    +0.000 OA
ATOM     63  C43 UNL     1      73.191  64.142 115.766  0.00  0.00    +0.000 C 
ENDBRANCH  58  62
BRANCH  59  64
ATOM     64  O13 UNL     1      72.348  64.398 111.718  0.00  0.00    +0.000 OA
ATOM     65  C45 UNL     1      71.378  64.875 110.807  0.00  0.00    +0.000 C 
ENDBRANCH  59  64
ENDBRANCH  52  53
ENDBRANCH  51  52
ENDBRANCH  20  51
TORSDOF 16
ENDMDL
MODEL 2
REMARK VINA RESULT:      -7.6      3.913     11.869
REMARK  Name = ./S4122.pdb
REMARK  28 active torsions:
REMARK  status: ('A' for Active; 'I' for Inactive)
REMARK    1  A    between atoms: C1_1  and  C2_2
REMARK    2  A    between atoms: C2_2  and  C3_3
REMARK    3  A    between atoms: C6_8  and  O3_9
REMARK    4  A    between atoms: C7_10  and  C8_11
REMARK    5  A    between atoms: C9_12  and  O4_13
REMARK    6  A    between atoms: O4_13  and  C10_14
REMARK    7  A    between atoms: C11_16  and  C12_17
REMARK    8  A    between atoms: C13_18  and  O6_19
REMARK    9  A    between atoms: C14_20  and  N1_23
REMARK   10  A    between atoms: C15_21  and  O7_22
REMARK   11  A    between atoms: N1_23  and  C16_24
REMARK   12  A    between atoms: N1_23  and  C17_25
REMARK   13  A    between atoms: C18_26  and  C19_27
REMARK   14  A    between atoms: C19_27  and  C20_28
REMARK   15  A    between atoms: C20_28  and  N2_29
REMARK   16  A    between atoms: C22_31  and  C23_32
REMARK   17  A    between atoms: C25_34  and  C26_35
REMARK   18  A    between atoms: C29_38  and  C30_39
REMARK   19  A    between atoms: C34_44  and  C46_61
REMARK   20  A    between atoms: C36_46  and  C37_47
REMARK   21  A    between atoms: C37_47  and  O9_48
REMARK   22  A    between atoms: O9_48  and  C38_49
REMARK   23  A    between atoms: C39_51  and  C40_52
REMARK   24  A    between atoms: C41_53  and  O11_54
REMARK   25  A    between atoms: C42_55  and  O12_56
REMARK   26  A    between atoms: O12_56  and  C43_57
REMARK   27  A    between atoms: C44_58  and  O13_59
REMARK   28  A    between atoms: O13_59  and  C45_60
REMARK                            x       y       z     vdW  Elec       q    Type
REMARK                         _______ _______ _______ _____ _____    ______ ____
ROOT
ATOM      1  C3  UNL     1      73.433  60.723 106.504  0.00  0.00    +0.000 C 
ATOM      2  O1  UNL     1      74.252  61.651 107.222  0.00  0.00    +0.000 OA
ATOM      3  C4  UNL     1      74.870  61.396 108.444  0.00  0.00    +0.000 C 
ATOM      4  O2  UNL     1      75.413  60.286 108.675  0.00  0.00    +0.000 OA
ATOM      5  C5  UNL     1      74.709  62.420 109.523  0.00  0.00    +0.000 C 
ATOM      6  C6  UNL     1      75.991  63.196 109.936  0.00  0.00    +0.000 C 
ATOM      7  C7  UNL     1      75.954  64.735 109.663  0.00  0.00    +0.000 C 
ATOM      8  C8  UNL     1      76.147  65.038 108.161  0.00  0.00    +0.000 C 
ATOM      9  C9  UNL     1      74.716  65.453 110.340  0.00  0.00    +0.000 C 
ATOM     10  C18 UNL     1      74.499  66.946 109.908  0.00  0.00    +0.000 C 
ATOM     11  C28 UNL     1      73.064  67.459 110.246  0.00  0.00    +0.000 C 
ATOM     12  C29 UNL     1      71.845  66.910 109.426  0.00  0.00    +0.000 C 
ATOM     13  C30 UNL     1      71.129  65.715 110.084  0.00  0.00    +0.000 C 
ATOM     14  C31 UNL     1      72.115  66.699 107.951  0.00  0.00    +0.000 C 
ATOM     15  O8  UNL     1      72.306  67.701 107.206  0.00  0.00    +0.000 OA
ATOM     16  C32 UNL     1      72.203  65.363 107.349  0.00  0.00    +0.000 C 
ATOM     17  C33 UNL     1      71.162  64.806 106.694  0.00  0.00    +0.000 C 
ATOM     18  C34 UNL     1      71.204  63.431 106.117  0.00  0.00    +0.000 C 
ATOM     19  C35 UNL     1      72.373  62.927 105.639  0.00  0.00    +0.000 C 
ATOM     20  C36 UNL     1      72.779  61.490 105.307  0.00  0.00    +0.000 C 
ATOM     21  C46 UNL     1      69.891  62.708 106.023  0.00  0.00    +0.000 C 
ENDROOT
BRANCH   1  23
ATOM     22  C1  UNL     1      72.613  58.442 107.481  0.00  0.00    +0.000 C 
ATOM     23  C2  UNL     1      72.453  59.972 107.450  0.00  0.00    +0.000 C 
ENDBRANCH   1  23
BRANCH   6  24
ATOM     24  O3  UNL     1      77.145  62.626 109.364  0.00  0.00    +0.000 OA
ATOM     25  H10 UNL     1      77.896  63.257 109.537  0.00  0.00    +0.000 HD
ENDBRANCH   6  24
BRANCH   9  26
ATOM     26  O4  UNL     1      74.875  65.371 111.756  0.00  0.00    +0.000 OA
BRANCH  26  27
ATOM     27  C10 UNL     1      73.782  64.763 112.441  0.00  0.00    +0.000 C 
ATOM     28  O5  UNL     1      73.068  65.754 113.186  0.00  0.00    +0.000 OA
ATOM     29  C11 UNL     1      73.555  65.991 114.507  0.00  0.00    +0.000 C 
ATOM     30  C12 UNL     1      74.920  66.693 114.513  0.00  0.00    +0.000 C 
ATOM     31  C13 UNL     1      73.517  64.728 115.416  0.00  0.00    +0.000 C 
ATOM     32  C14 UNL     1      73.400  63.435 114.567  0.00  0.00    +0.000 C 
ATOM     33  C15 UNL     1      74.284  63.568 113.318  0.00  0.00    +0.000 C 
BRANCH  32  34
ATOM     34  N1  UNL     1      73.704  62.165 115.289  0.00  0.00    +0.000 NA
ATOM     35  C16 UNL     1      72.497  61.416 115.673  0.00  0.00    +0.000 C 
ATOM     36  C17 UNL     1      74.637  62.282 116.428  0.00  0.00    +0.000 C 
ENDBRANCH  32  34
BRANCH  31  37
ATOM     37  O6  UNL     1      72.417  64.799 116.289  0.00  0.00    +0.000 OA
ATOM     38  H22 UNL     1      71.670  64.318 115.850  0.00  0.00    +0.000 HD
ENDBRANCH  31  37
BRANCH  33  39
ATOM     39  O7  UNL     1      74.291  62.360 112.600  0.00  0.00    +0.000 OA
ATOM     40  H25 UNL     1      75.178  62.265 112.168  0.00  0.00    +0.000 HD
ENDBRANCH  33  39
ENDBRANCH  26  27
ENDBRANCH   9  26
BRANCH  10  41
ATOM     41  C19 UNL     1      75.595  67.849 110.562  0.00  0.00    +0.000 C 
BRANCH  41  42
ATOM     42  C20 UNL     1      76.483  68.634 109.578  0.00  0.00    +0.000 C 
BRANCH  42  43
ATOM     43  N2  UNL     1      75.732  69.738 108.936  0.00  0.00    +0.000 NA
ATOM     44  C21 UNL     1      76.558  70.449 107.915  0.00  0.00    +0.000 C 
ATOM     45  C22 UNL     1      77.195  71.738 108.471  0.00  0.00    +0.000 C 
ATOM     46  C23 UNL     1      78.139  72.376 107.444  0.00  0.00    +0.000 C 
ATOM     47  C24 UNL     1      76.098  72.734 108.921  0.00  0.00    +0.000 C 
ATOM     48  C25 UNL     1      74.803  72.027 109.377  0.00  0.00    +0.000 C 
ATOM     49  C26 UNL     1      74.032  72.879 110.393  0.00  0.00    +0.000 C 
ATOM     50  C27 UNL     1      75.123  70.633 109.958  0.00  0.00    +0.000 C 
ENDBRANCH  42  43
ENDBRANCH  41  42
ENDBRANCH  10  41
BRANCH  20  51
ATOM     51  C37 UNL     1      71.890  60.667 104.347  0.00  0.00    +0.000 C 
BRANCH  51  52
ATOM     52  O9  UNL     1      71.546  61.381 103.186  0.00  0.00    +0.000 OA
BRANCH  52  53
ATOM     53  C38 UNL     1      72.159  60.832 102.033  0.00  0.00    +0.000 C 
ATOM     54  O10 UNL     1      71.158  60.423 101.106  0.00  0.00    +0.000 OA
ATOM     55  C39 UNL     1      70.883  61.414 100.136  0.00  0.00    +0.000 C 
ATOM     56  C40 UNL     1      69.622  61.017  99.368  0.00  0.00    +0.000 C 
ATOM     57  C41 UNL     1      72.092  61.552  99.181  0.00  0.00    +0.000 C 
ATOM     58  C42 UNL     1      73.427  61.638  99.974  0.00  0.00    +0.000 C 
ATOM     59  C44 UNL     1      73.186  61.858 101.480  0.00  0.00    +0.000 C 
BRANCH  57  60
ATOM     60  O11 UNL     1      71.920  62.694  98.373  0.00  0.00    +0.000 OA
ATOM     61  H69 UNL     1      70.941  62.840  98.308  0.00  0.00    +0.000 HD
ENDBRANCH  57  60
BRANCH  58  62
ATOM     62  O12 UNL     1      74.151  60.429  99.802  0.00  0.00    +0.000 OA
ATOM     63  C43 UNL     1      73.829  59.819  98.570  0.00  0.00    +0.000 C 
ENDBRANCH  58  62
BRANCH  59  64
ATOM     64  O13 UNL     1      74.399  61.717 102.204  0.00  0.00    +0.000 OA
ATOM     65  C45 UNL     1      74.916  62.979 102.577  0.00  0.00    +0.000 C 
ENDBRANCH  59  64
ENDBRANCH  52  53
ENDBRANCH  51  52
ENDBRANCH  20  51
TORSDOF 16
ENDMDL
MODEL 3
REMARK VINA RESULT:      -7.6      3.979     11.884
REMARK  Name = ./S4122.pdb
REMARK  28 active torsions:
REMARK  status: ('A' for Active; 'I' for Inactive)
REMARK    1  A    between atoms: C1_1  and  C2_2
REMARK    2  A    between atoms: C2_2  and  C3_3
REMARK    3  A    between atoms: C6_8  and  O3_9
REMARK    4  A    between atoms: C7_10  and  C8_11
REMARK    5  A    between atoms: C9_12  and  O4_13
REMARK    6  A    between atoms: O4_13  and  C10_14
REMARK    7  A    between atoms: C11_16  and  C12_17
REMARK    8  A    between atoms: C13_18  and  O6_19
REMARK    9  A    between atoms: C14_20  and  N1_23
REMARK   10  A    between atoms: C15_21  and  O7_22
REMARK   11  A    between atoms: N1_23  and  C16_24
REMARK   12  A    between atoms: N1_23  and  C17_25
REMARK   13  A    between atoms: C18_26  and  C19_27
REMARK   14  A    between atoms: C19_27  and  C20_28
REMARK   15  A    between atoms: C20_28  and  N2_29
REMARK   16  A    between atoms: C22_31  and  C23_32
REMARK   17  A    between atoms: C25_34  and  C26_35
REMARK   18  A    between atoms: C29_38  and  C30_39
REMARK   19  A    between atoms: C34_44  and  C46_61
REMARK   20  A    between atoms: C36_46  and  C37_47
REMARK   21  A    between atoms: C37_47  and  O9_48
REMARK   22  A    between atoms: O9_48  and  C38_49
REMARK   23  A    between atoms: C39_51  and  C40_52
REMARK   24  A    between atoms: C41_53  and  O11_54
REMARK   25  A    between atoms: C42_55  and  O12_56
REMARK   26  A    between atoms: O12_56  and  C43_57
REMARK   27  A    between atoms: C44_58  and  O13_59
REMARK   28  A    between atoms: O13_59  and  C45_60
REMARK                            x       y       z     vdW  Elec       q    Type
REMARK                         _______ _______ _______ _____ _____    ______ ____
ROOT
ATOM      1  C3  UNL     1      73.520  61.603 104.701  0.00  0.00    +0.000 C 
ATOM      2  O1  UNL     1      74.196  62.697 105.327  0.00  0.00    +0.000 OA
ATOM      3  C4  UNL     1      75.261  62.579 106.218  0.00  0.00    +0.000 C 
ATOM      4  O2  UNL     1      76.178  61.741 106.022  0.00  0.00    +0.000 OA
ATOM      5  C5  UNL     1      75.179  63.354 107.494  0.00  0.00    +0.000 C 
ATOM      6  C6  UNL     1      76.199  64.515 107.665  0.00  0.00    +0.000 C 
ATOM      7  C7  UNL     1      75.571  65.943 107.766  0.00  0.00    +0.000 C 
ATOM      8  C8  UNL     1      75.099  66.442 106.382  0.00  0.00    +0.000 C 
ATOM      9  C9  UNL     1      74.500  66.067 108.925  0.00  0.00    +0.000 C 
ATOM     10  C18 UNL     1      73.672  67.400 108.922  0.00  0.00    +0.000 C 
ATOM     11  C28 UNL     1      72.372  67.293 109.781  0.00  0.00    +0.000 C 
ATOM     12  C29 UNL     1      71.187  66.406 109.264  0.00  0.00    +0.000 C 
ATOM     13  C30 UNL     1      71.184  64.970 109.824  0.00  0.00    +0.000 C 
ATOM     14  C31 UNL     1      70.959  66.458 107.769  0.00  0.00    +0.000 C 
ATOM     15  O8  UNL     1      70.534  67.525 107.243  0.00  0.00    +0.000 OA
ATOM     16  C32 UNL     1      71.251  65.321 106.886  0.00  0.00    +0.000 C 
ATOM     17  C33 UNL     1      70.284  64.477 106.468  0.00  0.00    +0.000 C 
ATOM     18  C34 UNL     1      70.556  63.285 105.614  0.00  0.00    +0.000 C 
ATOM     19  C35 UNL     1      71.569  63.312 104.707  0.00  0.00    +0.000 C 
ATOM     20  C36 UNL     1      72.269  62.177 103.957  0.00  0.00    +0.000 C 
ATOM     21  C46 UNL     1      69.607  62.130 105.760  0.00  0.00    +0.000 C 
ENDROOT
BRANCH   1  23
ATOM     22  C1  UNL     1      73.852  59.086 105.321  0.00  0.00    +0.000 C 
ATOM     23  C2  UNL     1      73.248  60.448 105.705  0.00  0.00    +0.000 C 
ENDBRANCH   1  23
BRANCH   6  24
ATOM     24  O3  UNL     1      77.186  64.485 106.661  0.00  0.00    +0.000 OA
ATOM     25  H10 UNL     1      76.956  65.201 106.009  0.00  0.00    +0.000 HD
ENDBRANCH   6  24
BRANCH   9  26
ATOM     26  O4  UNL     1      75.177  65.914 110.173  0.00  0.00    +0.000 OA
BRANCH  26  27
ATOM     27  C10 UNL     1      74.679  64.858 110.991  0.00  0.00    +0.000 C 
ATOM     28  O5  UNL     1      73.732  65.379 111.929  0.00  0.00    +0.000 OA
ATOM     29  C11 UNL     1      74.289  65.851 113.156  0.00  0.00    +0.000 C 
ATOM     30  C12 UNL     1      75.108  67.137 112.974  0.00  0.00    +0.000 C 
ATOM     31  C13 UNL     1      75.052  64.753 113.952  0.00  0.00    +0.000 C 
ATOM     32  C14 UNL     1      75.419  63.556 113.037  0.00  0.00    +0.000 C 
ATOM     33  C15 UNL     1      75.861  64.086 111.665  0.00  0.00    +0.000 C 
BRANCH  32  34
ATOM     34  N1  UNL     1      76.440  62.617 113.588  0.00  0.00    +0.000 NA
ATOM     35  C16 UNL     1      75.886  61.298 113.933  0.00  0.00    +0.000 C 
ATOM     36  C17 UNL     1      77.269  63.145 114.691  0.00  0.00    +0.000 C 
ENDBRANCH  32  34
BRANCH  31  37
ATOM     37  O6  UNL     1      74.253  64.286 115.011  0.00  0.00    +0.000 OA
ATOM     38  H22 UNL     1      73.392  64.773 114.958  0.00  0.00    +0.000 HD
ENDBRANCH  31  37
BRANCH  33  39
ATOM     39  O7  UNL     1      76.317  63.026 110.862  0.00  0.00    +0.000 OA
ATOM     40  H25 UNL     1      77.166  62.689 111.250  0.00  0.00    +0.000 HD
ENDBRANCH  33  39
ENDBRANCH  26  27
ENDBRANCH   9  26
BRANCH  10  41
ATOM     41  C19 UNL     1      74.574  68.584 109.400  0.00  0.00    +0.000 C 
BRANCH  41  42
ATOM     42  C20 UNL     1      74.281  69.948 108.748  0.00  0.00    +0.000 C 
BRANCH  42  43
ATOM     43  N2  UNL     1      75.529  70.703 108.491  0.00  0.00    +0.000 NA
ATOM     44  C21 UNL     1      76.026  70.495 107.099  0.00  0.00    +0.000 C 
ATOM     45  C22 UNL     1      77.131  69.423 107.026  0.00  0.00    +0.000 C 
ATOM     46  C23 UNL     1      77.530  69.138 105.572  0.00  0.00    +0.000 C 
ATOM     47  C24 UNL     1      78.356  69.849 107.871  0.00  0.00    +0.000 C 
ATOM     48  C25 UNL     1      77.973  70.754 109.062  0.00  0.00    +0.000 C 
ATOM     49  C26 UNL     1      78.982  70.623 110.209  0.00  0.00    +0.000 C 
ATOM     50  C27 UNL     1      76.543  70.432 109.547  0.00  0.00    +0.000 C 
ENDBRANCH  42  43
ENDBRANCH  41  42
ENDBRANCH  10  41
BRANCH  20  51
ATOM     51  C37 UNL     1      71.410  61.175 103.151  0.00  0.00    +0.000 C 
BRANCH  51  52
ATOM     52  O9  UNL     1      70.753  61.781 102.066  0.00  0.00    +0.000 OA
BRANCH  52  53
ATOM     53  C38 UNL     1      70.833  60.987 100.896  0.00  0.00    +0.000 C 
ATOM     54  O10 UNL     1      69.720  60.101 100.841  0.00  0.00    +0.000 OA
ATOM     55  C39 UNL     1      68.654  60.620 100.070  0.00  0.00    +0.000 C 
ATOM     56  C40 UNL     1      67.416  59.752 100.292  0.00  0.00    +0.000 C 
ATOM     57  C41 UNL     1      69.057  60.636  98.577  0.00  0.00    +0.000 C 
ATOM     58  C42 UNL     1      70.477  61.241  98.385  0.00  0.00    +0.000 C 
ATOM     59  C44 UNL     1      70.986  61.926  99.668  0.00  0.00    +0.000 C 
BRANCH  57  60
ATOM     60  O11 UNL     1      68.101  61.369  97.844  0.00  0.00    +0.000 OA
ATOM     61  H69 UNL     1      68.591  61.774  97.083  0.00  0.00    +0.000 HD
ENDBRANCH  57  60
BRANCH  58  62
ATOM     62  O12 UNL     1      71.382  60.205  98.034  0.00  0.00    +0.000 OA
ATOM     63  C43 UNL     1      70.715  59.161  97.356  0.00  0.00    +0.000 C 
ENDBRANCH  58  62
BRANCH  59  64
ATOM     64  O13 UNL     1      72.356  62.276  99.535  0.00  0.00    +0.000 OA
ATOM     65  C45 UNL     1      73.189  61.280 100.094  0.00  0.00    +0.000 C 
ENDBRANCH  59  64
ENDBRANCH  52  53
ENDBRANCH  51  52
ENDBRANCH  20  51
TORSDOF 16
ENDMDL
MODEL 4
REMARK VINA RESULT:      -7.6      3.847     11.647
REMARK  Name = ./S4122.pdb
REMARK  28 active torsions:
REMARK  status: ('A' for Active; 'I' for Inactive)
REMARK    1  A    between atoms: C1_1  and  C2_2
REMARK    2  A    between atoms: C2_2  and  C3_3
REMARK    3  A    between atoms: C6_8  and  O3_9
REMARK    4  A    between atoms: C7_10  and  C8_11
REMARK    5  A    between atoms: C9_12  and  O4_13
REMARK    6  A    between atoms: O4_13  and  C10_14
REMARK    7  A    between atoms: C11_16  and  C12_17
REMARK    8  A    between atoms: C13_18  and  O6_19
REMARK    9  A    between atoms: C14_20  and  N1_23
REMARK   10  A    between atoms: C15_21  and  O7_22
REMARK   11  A    between atoms: N1_23  and  C16_24
REMARK   12  A    between atoms: N1_23  and  C17_25
REMARK   13  A    between atoms: C18_26  and  C19_27
REMARK   14  A    between atoms: C19_27  and  C20_28
REMARK   15  A    between atoms: C20_28  and  N2_29
REMARK   16  A    between atoms: C22_31  and  C23_32
REMARK   17  A    between atoms: C25_34  and  C26_35
REMARK   18  A    between atoms: C29_38  and  C30_39
REMARK   19  A    between atoms: C34_44  and  C46_61
REMARK   20  A    between atoms: C36_46  and  C37_47
REMARK   21  A    between atoms: C37_47  and  O9_48
REMARK   22  A    between atoms: O9_48  and  C38_49
REMARK   23  A    between atoms: C39_51  and  C40_52
REMARK   24  A    between atoms: C41_53  and  O11_54
REMARK   25  A    between atoms: C42_55  and  O12_56
REMARK   26  A    between atoms: O12_56  and  C43_57
REMARK   27  A    between atoms: C44_58  and  O13_59
REMARK   28  A    between atoms: O13_59  and  C45_60
REMARK                            x       y       z     vdW  Elec       q    Type
REMARK                         _______ _______ _______ _____ _____    ______ ____
ROOT
ATOM      1  C3  UNL     1      73.310  60.790 106.213  0.00  0.00    +0.000 C 
ATOM      2  O1  UNL     1      74.123  61.695 106.967  0.00  0.00    +0.000 OA
ATOM      3  C4  UNL     1      74.758  61.391 108.169  0.00  0.00    +0.000 C 
ATOM      4  O2  UNL     1      75.320  60.279 108.341  0.00  0.00    +0.000 OA
ATOM      5  C5  UNL     1      74.593  62.359 109.298  0.00  0.00    +0.000 C 
ATOM      6  C6  UNL     1      75.867  63.134 109.736  0.00  0.00    +0.000 C 
ATOM      7  C7  UNL     1      75.804  64.684 109.538  0.00  0.00    +0.000 C 
ATOM      8  C8  UNL     1      75.976  65.062 108.050  0.00  0.00    +0.000 C 
ATOM      9  C9  UNL     1      74.563  65.348 110.260  0.00  0.00    +0.000 C 
ATOM     10  C18 UNL     1      74.318  66.857 109.903  0.00  0.00    +0.000 C 
ATOM     11  C28 UNL     1      72.879  67.331 110.280  0.00  0.00    +0.000 C 
ATOM     12  C29 UNL     1      71.660  66.803 109.446  0.00  0.00    +0.000 C 
ATOM     13  C30 UNL     1      70.969  65.567 110.052  0.00  0.00    +0.000 C 
ATOM     14  C31 UNL     1      71.917  66.668 107.960  0.00  0.00    +0.000 C 
ATOM     15  O8  UNL     1      72.086  67.708 107.263  0.00  0.00    +0.000 OA
ATOM     16  C32 UNL     1      72.020  65.364 107.294  0.00  0.00    +0.000 C 
ATOM     17  C33 UNL     1      70.980  64.823 106.623  0.00  0.00    +0.000 C 
ATOM     18  C34 UNL     1      71.037  63.478 105.979  0.00  0.00    +0.000 C 
ATOM     19  C35 UNL     1      72.209  63.016 105.466  0.00  0.00    +0.000 C 
ATOM     20  C36 UNL     1      72.633  61.603 105.060  0.00  0.00    +0.000 C 
ATOM     21  C46 UNL     1      69.734  62.740 105.863  0.00  0.00    +0.000 C 
ENDROOT
BRANCH   1  23
ATOM     22  C1  UNL     1      72.513  58.450 107.062  0.00  0.00    +0.000 C 
ATOM     23  C2  UNL     1      72.353  59.979 107.131  0.00  0.00    +0.000 C 
ENDBRANCH   1  23
BRANCH   6  24
ATOM     24  O3  UNL     1      77.024  62.611 109.125  0.00  0.00    +0.000 OA
ATOM     25  H10 UNL     1      77.491  62.063 109.811  0.00  0.00    +0.000 HD
ENDBRANCH   6  24
BRANCH   9  26
ATOM     26  O4  UNL     1      74.738  65.202 111.670  0.00  0.00    +0.000 OA
BRANCH  26  27
ATOM     27  C10 UNL     1      73.689  64.492 112.326  0.00  0.00    +0.000 C 
ATOM     28  O5  UNL     1      72.859  65.411 113.043  0.00  0.00    +0.000 OA
ATOM     29  C11 UNL     1      73.281  65.699 114.376  0.00  0.00    +0.000 C 
ATOM     30  C12 UNL     1      74.571  66.531 114.417  0.00  0.00    +0.000 C 
ATOM     31  C13 UNL     1      73.339  64.442 115.291  0.00  0.00    +0.000 C 
ATOM     32  C14 UNL     1      73.376  63.140 114.448  0.00  0.00    +0.000 C 
ATOM     33  C15 UNL     1      74.279  63.355 113.225  0.00  0.00    +0.000 C 
BRANCH  32  34
ATOM     34  N1  UNL     1      73.780  61.909 115.187  0.00  0.00    +0.000 NA
ATOM     35  C16 UNL     1      72.639  61.058 115.562  0.00  0.00    +0.000 C 
ATOM     36  C17 UNL     1      74.683  62.118 116.338  0.00  0.00    +0.000 C 
ENDBRANCH  32  34
BRANCH  31  37
ATOM     37  O6  UNL     1      72.212  64.407 116.131  0.00  0.00    +0.000 OA
ATOM     38  H22 UNL     1      72.508  64.723 117.023  0.00  0.00    +0.000 HD
ENDBRANCH  31  37
BRANCH  33  39
ATOM     39  O7  UNL     1      74.426  62.151 112.515  0.00  0.00    +0.000 OA
ATOM     40  H25 UNL     1      73.606  61.610 112.657  0.00  0.00    +0.000 HD
ENDBRANCH  33  39
ENDBRANCH  26  27
ENDBRANCH   9  26
BRANCH  10  41
ATOM     41  C19 UNL     1      75.407  67.745 110.589  0.00  0.00    +0.000 C 
BRANCH  41  42
ATOM     42  C20 UNL     1      76.349  68.499 109.633  0.00  0.00    +0.000 C 
BRANCH  42  43
ATOM     43  N2  UNL     1      75.657  69.629 108.971  0.00  0.00    +0.000 NA
ATOM     44  C21 UNL     1      76.525  70.291 107.953  0.00  0.00    +0.000 C 
ATOM     45  C22 UNL     1      77.213  71.556 108.504  0.00  0.00    +0.000 C 
ATOM     46  C23 UNL     1      78.196  72.140 107.481  0.00  0.00    +0.000 C 
ATOM     47  C24 UNL     1      76.157  72.605 108.930  0.00  0.00    +0.000 C 
ATOM     48  C25 UNL     1      74.826  71.962 109.378  0.00  0.00    +0.000 C 
ATOM     49  C26 UNL     1      74.083  72.857 110.377  0.00  0.00    +0.000 C 
ATOM     50  C27 UNL     1      75.077  70.560 109.976  0.00  0.00    +0.000 C 
ENDBRANCH  42  43
ENDBRANCH  41  42
ENDBRANCH  10  41
BRANCH  20  51
ATOM     51  C37 UNL     1      71.746  60.814 104.071  0.00  0.00    +0.000 C 
BRANCH  51  52
ATOM     52  O9  UNL     1      72.496  60.178 103.066  0.00  0.00    +0.000 OA
BRANCH  52  53
ATOM     53  C38 UNL     1      73.483  61.039 102.525  0.00  0.00    +0.000 C 
ATOM     54  O10 UNL     1      74.754  60.400 102.574  0.00  0.00    +0.000 OA
ATOM     55  C39 UNL     1      75.075  59.744 101.364  0.00  0.00    +0.000 C 
ATOM     56  C40 UNL     1      76.304  58.863 101.591  0.00  0.00    +0.000 C 
ATOM     57  C41 UNL     1      75.345  60.794 100.262  0.00  0.00    +0.000 C 
ATOM     58  C42 UNL     1      74.237  61.886 100.244  0.00  0.00    +0.000 C 
ATOM     59  C44 UNL     1      73.027  61.488 101.111  0.00  0.00    +0.000 C 
BRANCH  57  60
ATOM     60  O11 UNL     1      75.426  60.148  99.011  0.00  0.00    +0.000 OA
ATOM     61  H69 UNL     1      75.714  60.840  98.362  0.00  0.00    +0.000 HD
ENDBRANCH  57  60
BRANCH  58  62
ATOM     62  O12 UNL     1      74.773  63.103 100.743  0.00  0.00    +0.000 OA
ATOM     63  C43 UNL     1      76.160  63.184 100.489  0.00  0.00    +0.000 C 
ENDBRANCH  58  62
BRANCH  59  64
ATOM     64  O13 UNL     1      72.134  62.584 101.251  0.00  0.00    +0.000 OA
ATOM     65  C45 UNL     1      70.900  62.315 100.616  0.00  0.00    +0.000 C 
ENDBRANCH  59  64
ENDBRANCH  52  53
ENDBRANCH  51  52
ENDBRANCH  20  51
TORSDOF 16
ENDMDL
MODEL 5
REMARK VINA RESULT:      -7.5      4.127     11.494
REMARK  Name = ./S4122.pdb
REMARK  28 active torsions:
REMARK  status: ('A' for Active; 'I' for Inactive)
REMARK    1  A    between atoms: C1_1  and  C2_2
REMARK    2  A    between atoms: C2_2  and  C3_3
REMARK    3  A    between atoms: C6_8  and  O3_9
REMARK    4  A    between atoms: C7_10  and  C8_11
REMARK    5  A    between atoms: C9_12  and  O4_13
REMARK    6  A    between atoms: O4_13  and  C10_14
REMARK    7  A    between atoms: C11_16  and  C12_17
REMARK    8  A    between atoms: C13_18  and  O6_19
REMARK    9  A    between atoms: C14_20  and  N1_23
REMARK   10  A    between atoms: C15_21  and  O7_22
REMARK   11  A    between atoms: N1_23  and  C16_24
REMARK   12  A    between atoms: N1_23  and  C17_25
REMARK   13  A    between atoms: C18_26  and  C19_27
REMARK   14  A    between atoms: C19_27  and  C20_28
REMARK   15  A    between atoms: C20_28  and  N2_29
REMARK   16  A    between atoms: C22_31  and  C23_32
REMARK   17  A    between atoms: C25_34  and  C26_35
REMARK   18  A    between atoms: C29_38  and  C30_39
REMARK   19  A    between atoms: C34_44  and  C46_61
REMARK   20  A    between atoms: C36_46  and  C37_47
REMARK   21  A    between atoms: C37_47  and  O9_48
REMARK   22  A    between atoms: O9_48  and  C38_49
REMARK   23  A    between atoms: C39_51  and  C40_52
REMARK   24  A    between atoms: C41_53  and  O11_54
REMARK   25  A    between atoms: C42_55  and  O12_56
REMARK   26  A    between atoms: O12_56  and  C43_57
REMARK   27  A    between atoms: C44_58  and  O13_59
REMARK   28  A    between atoms: O13_59  and  C45_60
REMARK                            x       y       z     vdW  Elec       q    Type
REMARK                         _______ _______ _______ _____ _____    ______ ____
ROOT
ATOM      1  C3  UNL     1      73.522  61.654 104.729  0.00  0.00    +0.000 C 
ATOM      2  O1  UNL     1      74.183  62.737 105.392  0.00  0.00    +0.000 OA
ATOM      3  C4  UNL     1      75.243  62.603 106.286  0.00  0.00    +0.000 C 
ATOM      4  O2  UNL     1      76.170  61.781 106.071  0.00  0.00    +0.000 OA
ATOM      5  C5  UNL     1      75.145  63.339 107.584  0.00  0.00    +0.000 C 
ATOM      6  C6  UNL     1      76.151  64.505 107.796  0.00  0.00    +0.000 C 
ATOM      7  C7  UNL     1      75.507  65.923 107.934  0.00  0.00    +0.000 C 
ATOM      8  C8  UNL     1      75.039  66.458 106.562  0.00  0.00    +0.000 C 
ATOM      9  C9  UNL     1      74.429  66.001 109.089  0.00  0.00    +0.000 C 
ATOM     10  C18 UNL     1      73.586  67.325 109.120  0.00  0.00    +0.000 C 
ATOM     11  C28 UNL     1      72.282  67.180 109.968  0.00  0.00    +0.000 C 
ATOM     12  C29 UNL     1      71.110  66.295 109.418  0.00  0.00    +0.000 C 
ATOM     13  C30 UNL     1      71.119  64.844 109.934  0.00  0.00    +0.000 C 
ATOM     14  C31 UNL     1      70.891  66.389 107.923  0.00  0.00    +0.000 C 
ATOM     15  O8  UNL     1      70.457  67.467 107.426  0.00  0.00    +0.000 OA
ATOM     16  C32 UNL     1      71.200  65.282 107.009  0.00  0.00    +0.000 C 
ATOM     17  C33 UNL     1      70.244  64.441 106.560  0.00  0.00    +0.000 C 
ATOM     18  C34 UNL     1      70.535  63.277 105.673  0.00  0.00    +0.000 C 
ATOM     19  C35 UNL     1      71.553  63.341 104.774  0.00  0.00    +0.000 C 
ATOM     20  C36 UNL     1      72.269  62.236 103.995  0.00  0.00    +0.000 C 
ATOM     21  C46 UNL     1      69.597  62.109 105.779  0.00  0.00    +0.000 C 
ENDROOT
BRANCH   1  23
ATOM     22  C1  UNL     1      73.846  59.115 105.259  0.00  0.00    +0.000 C 
ATOM     23  C2  UNL     1      73.256  60.467 105.698  0.00  0.00    +0.000 C 
ENDBRANCH   1  23
BRANCH   6  24
ATOM     24  O3  UNL     1      77.144  64.516 106.797  0.00  0.00    +0.000 OA
ATOM     25  H10 UNL     1      76.843  63.893 106.082  0.00  0.00    +0.000 HD
ENDBRANCH   6  24
BRANCH   9  26
ATOM     26  O4  UNL     1      75.099  65.819 110.337  0.00  0.00    +0.000 OA
BRANCH  26  27
ATOM     27  C10 UNL     1      74.597  64.744 111.128  0.00  0.00    +0.000 C 
ATOM     28  O5  UNL     1      73.680  65.250 112.103  0.00  0.00    +0.000 OA
ATOM     29  C11 UNL     1      74.270  65.668 113.334  0.00  0.00    +0.000 C 
ATOM     30  C12 UNL     1      75.111  66.944 113.179  0.00  0.00    +0.000 C 
ATOM     31  C13 UNL     1      75.027  64.528 114.075  0.00  0.00    +0.000 C 
ATOM     32  C14 UNL     1      75.352  63.357 113.111  0.00  0.00    +0.000 C 
ATOM     33  C15 UNL     1      75.777  63.926 111.750  0.00  0.00    +0.000 C 
BRANCH  32  34
ATOM     34  N1  UNL     1      76.364  62.380 113.608  0.00  0.00    +0.000 NA
ATOM     35  C16 UNL     1      75.772  61.106 114.045  0.00  0.00    +0.000 C 
ATOM     36  C17 UNL     1      77.311  62.895 114.618  0.00  0.00    +0.000 C 
ENDBRANCH  32  34
BRANCH  31  37
ATOM     37  O6  UNL     1      74.240  64.040 115.134  0.00  0.00    +0.000 OA
ATOM     38  H22 UNL     1      73.795  63.218 114.806  0.00  0.00    +0.000 HD
ENDBRANCH  31  37
BRANCH  33  39
ATOM     39  O7  UNL     1      76.195  62.886 110.901  0.00  0.00    +0.000 OA
ATOM     40  H25 UNL     1      77.123  63.082 110.611  0.00  0.00    +0.000 HD
ENDBRANCH  33  39
ENDBRANCH  26  27
ENDBRANCH   9  26
BRANCH  10  41
ATOM     41  C19 UNL     1      74.473  68.504 109.639  0.00  0.00    +0.000 C 
BRANCH  41  42
ATOM     42  C20 UNL     1      74.378  69.812 108.832  0.00  0.00    +0.000 C 
BRANCH  42  43
ATOM     43  N2  UNL     1      73.401  69.694 107.725  0.00  0.00    +0.000 NA
ATOM     44  C21 UNL     1      74.028  69.978 106.400  0.00  0.00    +0.000 C 
ATOM     45  C22 UNL     1      73.781  71.426 105.933  0.00  0.00    +0.000 C 
ATOM     46  C23 UNL     1      74.543  71.726 104.636  0.00  0.00    +0.000 C 
ATOM     47  C24 UNL     1      72.265  71.692 105.768  0.00  0.00    +0.000 C 
ATOM     48  C25 UNL     1      71.402  70.826 106.713  0.00  0.00    +0.000 C 
ATOM     49  C26 UNL     1      70.069  71.512 107.036  0.00  0.00    +0.000 C 
ATOM     50  C27 UNL     1      72.180  70.498 108.006  0.00  0.00    +0.000 C 
ENDBRANCH  42  43
ENDBRANCH  41  42
ENDBRANCH  10  41
BRANCH  20  51
ATOM     51  C37 UNL     1      71.426  61.250 103.155  0.00  0.00    +0.000 C 
BRANCH  51  52
ATOM     52  O9  UNL     1      70.843  61.863 102.031  0.00  0.00    +0.000 OA
BRANCH  52  53
ATOM     53  C38 UNL     1      70.925  61.037 100.883  0.00  0.00    +0.000 C 
ATOM     54  O10 UNL     1      69.815  60.145 100.853  0.00  0.00    +0.000 OA
ATOM     55  C39 UNL     1      68.748  60.638 100.069  0.00  0.00    +0.000 C 
ATOM     56  C40 UNL     1      67.513  59.772 100.316  0.00  0.00    +0.000 C 
ATOM     57  C41 UNL     1      69.149  60.615  98.576  0.00  0.00    +0.000 C 
ATOM     58  C42 UNL     1      70.567  61.221  98.367  0.00  0.00    +0.000 C 
ATOM     59  C44 UNL     1      71.074  61.942  99.631  0.00  0.00    +0.000 C 
BRANCH  57  60
ATOM     60  O11 UNL     1      68.190  61.324  97.824  0.00  0.00    +0.000 OA
ATOM     61  H69 UNL     1      68.569  62.228  97.678  0.00  0.00    +0.000 HD
ENDBRANCH  57  60
BRANCH  58  62
ATOM     62  O12 UNL     1      71.476  60.180  98.043  0.00  0.00    +0.000 OA
ATOM     63  C43 UNL     1      71.741  60.155  96.656  0.00  0.00    +0.000 C 
ENDBRANCH  58  62
BRANCH  59  64
ATOM     64  O13 UNL     1      72.442  62.294  99.487  0.00  0.00    +0.000 OA
ATOM     65  C45 UNL     1      73.278  61.342 100.114  0.00  0.00    +0.000 C 
ENDBRANCH  59  64
ENDBRANCH  52  53
ENDBRANCH  51  52
ENDBRANCH  20  51
TORSDOF 16
ENDMDL
MODEL 6
REMARK VINA RESULT:      -7.5      1.173      1.398
REMARK  Name = ./S4122.pdb
REMARK  28 active torsions:
REMARK  status: ('A' for Active; 'I' for Inactive)
REMARK    1  A    between atoms: C1_1  and  C2_2
REMARK    2  A    between atoms: C2_2  and  C3_3
REMARK    3  A    between atoms: C6_8  and  O3_9
REMARK    4  A    between atoms: C7_10  and  C8_11
REMARK    5  A    between atoms: C9_12  and  O4_13
REMARK    6  A    between atoms: O4_13  and  C10_14
REMARK    7  A    between atoms: C11_16  and  C12_17
REMARK    8  A    between atoms: C13_18  and  O6_19
REMARK    9  A    between atoms: C14_20  and  N1_23
REMARK   10  A    between atoms: C15_21  and  O7_22
REMARK   11  A    between atoms: N1_23  and  C16_24
REMARK   12  A    between atoms: N1_23  and  C17_25
REMARK   13  A    between atoms: C18_26  and  C19_27
REMARK   14  A    between atoms: C19_27  and  C20_28
REMARK   15  A    between atoms: C20_28  and  N2_29
REMARK   16  A    between atoms: C22_31  and  C23_32
REMARK   17  A    between atoms: C25_34  and  C26_35
REMARK   18  A    between atoms: C29_38  and  C30_39
REMARK   19  A    between atoms: C34_44  and  C46_61
REMARK   20  A    between atoms: C36_46  and  C37_47
REMARK   21  A    between atoms: C37_47  and  O9_48
REMARK   22  A    between atoms: O9_48  and  C38_49
REMARK   23  A    between atoms: C39_51  and  C40_52
REMARK   24  A    between atoms: C41_53  and  O11_54
REMARK   25  A    between atoms: C42_55  and  O12_56
REMARK   26  A    between atoms: O12_56  and  C43_57
REMARK   27  A    between atoms: C44_58  and  O13_59
REMARK   28  A    between atoms: O13_59  and  C45_60
REMARK                            x       y       z     vdW  Elec       q    Type
REMARK                         _______ _______ _______ _____ _____    ______ ____
ROOT
ATOM      1  C3  UNL     1      74.237  63.056 108.488  0.00  0.00    +0.000 C 
ATOM      2  O1  UNL     1      73.502  62.513 107.387  0.00  0.00    +0.000 OA
ATOM      3  C4  UNL     1      73.096  61.185 107.271  0.00  0.00    +0.000 C 
ATOM      4  O2  UNL     1      72.645  60.558 108.263  0.00  0.00    +0.000 OA
ATOM      5  C5  UNL     1      73.381  60.489 105.978  0.00  0.00    +0.000 C 
ATOM      6  C6  UNL     1      72.148  60.114 105.109  0.00  0.00    +0.000 C 
ATOM      7  C7  UNL     1      72.075  60.822 103.717  0.00  0.00    +0.000 C 
ATOM      8  C8  UNL     1      71.634  62.296 103.864  0.00  0.00    +0.000 C 
ATOM      9  C9  UNL     1      73.371  60.594 102.839  0.00  0.00    +0.000 C 
ATOM     10  C18 UNL     1      73.453  61.467 101.538  0.00  0.00    +0.000 C 
ATOM     11  C28 UNL     1      74.901  61.532 100.955  0.00  0.00    +0.000 C 
ATOM     12  C29 UNL     1      75.997  62.346 101.725  0.00  0.00    +0.000 C 
ATOM     13  C30 UNL     1      76.859  61.497 102.680  0.00  0.00    +0.000 C 
ATOM     14  C31 UNL     1      75.508  63.632 102.356  0.00  0.00    +0.000 C 
ATOM     15  O8  UNL     1      75.158  64.593 101.614  0.00  0.00    +0.000 OA
ATOM     16  C32 UNL     1      75.383  63.799 103.810  0.00  0.00    +0.000 C 
ATOM     17  C33 UNL     1      76.331  64.427 104.538  0.00  0.00    +0.000 C 
ATOM     18  C34 UNL     1      76.258  64.567 106.022  0.00  0.00    +0.000 C 
ATOM     19  C35 UNL     1      75.051  64.681 106.638  0.00  0.00    +0.000 C 
ATOM     20  C36 UNL     1      74.660  64.514 108.108  0.00  0.00    +0.000 C 
ATOM     21  C46 UNL     1      77.570  64.662 106.747  0.00  0.00    +0.000 C 
ENDROOT
BRANCH   1  23
ATOM     22  C1  UNL     1      75.441  61.808 110.443  0.00  0.00    +0.000 C 
ATOM     23  C2  UNL     1      75.385  62.107 108.935  0.00  0.00    +0.000 C 
ENDBRANCH   1  23
BRANCH   6  24
ATOM     24  O3  UNL     1      70.943  60.301 105.815  0.00  0.00    +0.000 OA
ATOM     25  H10 UNL     1      70.203  60.069 105.192  0.00  0.00    +0.000 HD
ENDBRANCH   6  24
BRANCH   9  26
ATOM     26  O4  UNL     1      73.442  59.208 102.502  0.00  0.00    +0.000 OA
BRANCH  26  27
ATOM     27  C10 UNL     1      74.586  58.531 103.017  0.00  0.00    +0.000 C 
ATOM     28  O5  UNL     1      75.596  58.454 102.006  0.00  0.00    +0.000 OA
ATOM     29  C11 UNL     1      75.511  57.318 101.146  0.00  0.00    +0.000 C 
ATOM     30  C12 UNL     1      74.300  57.385 100.203  0.00  0.00    +0.000 C 
ATOM     31  C13 UNL     1      75.620  55.961 101.899  0.00  0.00    +0.000 C 
ATOM     32  C14 UNL     1      75.335  56.141 103.413  0.00  0.00    +0.000 C 
ATOM     33  C15 UNL     1      74.179  57.135 103.597  0.00  0.00    +0.000 C 
BRANCH  32  34
ATOM     34  N1  UNL     1      75.068  54.883 104.169  0.00  0.00    +0.000 NA
ATOM     35  C16 UNL     1      76.279  54.300 104.769  0.00  0.00    +0.000 C 
ATOM     36  C17 UNL     1      74.289  53.855 103.449  0.00  0.00    +0.000 C 
ENDBRANCH  32  34
BRANCH  31  37
ATOM     37  O6  UNL     1      76.910  55.426 101.740  0.00  0.00    +0.000 OA
ATOM     38  H22 UNL     1      77.037  54.760 102.463  0.00  0.00    +0.000 HD
ENDBRANCH  31  37
BRANCH  33  39
ATOM     39  O7  UNL     1      73.824  57.217 104.954  0.00  0.00    +0.000 OA
ATOM     40  H25 UNL     1      74.577  56.859 105.491  0.00  0.00    +0.000 HD
ENDBRANCH  33  39
ENDBRANCH  26  27
ENDBRANCH   9  26
BRANCH  10  41
ATOM     41  C19 UNL     1      72.436  60.933 100.477  0.00  0.00    +0.000 C 
BRANCH  41  42
ATOM     42  C20 UNL     1      72.956  60.872  99.029  0.00  0.00    +0.000 C 
BRANCH  42  43
ATOM     43  N2  UNL     1      72.000  61.495  98.085  0.00  0.00    +0.000 NA
ATOM     44  C21 UNL     1      70.666  61.721  98.716  0.00  0.00    +0.000 C 
ATOM     45  C22 UNL     1      69.660  60.604  98.375  0.00  0.00    +0.000 C 
ATOM     46  C23 UNL     1      68.343  60.793  99.139  0.00  0.00    +0.000 C 
ATOM     47  C24 UNL     1      69.419  60.539  96.847  0.00  0.00    +0.000 C 
ATOM     48  C25 UNL     1      70.641  61.015  96.030  0.00  0.00    +0.000 C 
ATOM     49  C26 UNL     1      70.676  60.357  94.646  0.00  0.00    +0.000 C 
ATOM     50  C27 UNL     1      71.948  60.739  96.804  0.00  0.00    +0.000 C 
ENDBRANCH  42  43
ENDBRANCH  41  42
ENDBRANCH  10  41
BRANCH  20  51
ATOM     51  C37 UNL     1      75.422  65.327 109.180  0.00  0.00    +0.000 C 
BRANCH  51  52
ATOM     52  O9  UNL     1      74.557  66.019 110.045  0.00  0.00    +0.000 OA
BRANCH  52  53
ATOM     53  C38 UNL     1      74.313  65.289 111.235  0.00  0.00    +0.000 C 
ATOM     54  O10 UNL     1      75.117  65.808 112.289  0.00  0.00    +0.000 OA
ATOM     55  C39 UNL     1      74.430  66.762 113.073  0.00  0.00    +0.000 C 
ATOM     56  C40 UNL     1      75.434  67.464 113.988  0.00  0.00    +0.000 C 
ATOM     57  C41 UNL     1      73.330  66.056 113.899  0.00  0.00    +0.000 C 
ATOM     58  C42 UNL     1      72.498  65.084 113.013  0.00  0.00    +0.000 C 
ATOM     59  C44 UNL     1      72.785  65.292 111.513  0.00  0.00    +0.000 C 
BRANCH  57  60
ATOM     60  O11 UNL     1      72.495  67.026 114.490  0.00  0.00    +0.000 OA
ATOM     61  H69 UNL     1      72.153  66.621 115.328  0.00  0.00    +0.000 HD
ENDBRANCH  57  60
BRANCH  58  62
ATOM     62  O12 UNL     1      72.823  63.746 113.356  0.00  0.00    +0.000 OA
ATOM     63  C43 UNL     1      73.239  63.658 114.703  0.00  0.00    +0.000 C 
ENDBRANCH  58  62
BRANCH  59  64
ATOM     64  O13 UNL     1      72.185  64.259 110.745  0.00  0.00    +0.000 OA
ATOM     65  C45 UNL     1      71.258  64.790 109.818  0.00  0.00    +0.000 C 
ENDBRANCH  59  64
ENDBRANCH  52  53
ENDBRANCH  51  52
ENDBRANCH  20  51
TORSDOF 16
ENDMDL
MODEL 7
REMARK VINA RESULT:      -7.3      1.616      2.920
REMARK  Name = ./S4122.pdb
REMARK  28 active torsions:
REMARK  status: ('A' for Active; 'I' for Inactive)
REMARK    1  A    between atoms: C1_1  and  C2_2
REMARK    2  A    between atoms: C2_2  and  C3_3
REMARK    3  A    between atoms: C6_8  and  O3_9
REMARK    4  A    between atoms: C7_10  and  C8_11
REMARK    5  A    between atoms: C9_12  and  O4_13
REMARK    6  A    between atoms: O4_13  and  C10_14
REMARK    7  A    between atoms: C11_16  and  C12_17
REMARK    8  A    between atoms: C13_18  and  O6_19
REMARK    9  A    between atoms: C14_20  and  N1_23
REMARK   10  A    between atoms: C15_21  and  O7_22
REMARK   11  A    between atoms: N1_23  and  C16_24
REMARK   12  A    between atoms: N1_23  and  C17_25
REMARK   13  A    between atoms: C18_26  and  C19_27
REMARK   14  A    between atoms: C19_27  and  C20_28
REMARK   15  A    between atoms: C20_28  and  N2_29
REMARK   16  A    between atoms: C22_31  and  C23_32
REMARK   17  A    between atoms: C25_34  and  C26_35
REMARK   18  A    between atoms: C29_38  and  C30_39
REMARK   19  A    between atoms: C34_44  and  C46_61
REMARK   20  A    between atoms: C36_46  and  C37_47
REMARK   21  A    between atoms: C37_47  and  O9_48
REMARK   22  A    between atoms: O9_48  and  C38_49
REMARK   23  A    between atoms: C39_51  and  C40_52
REMARK   24  A    between atoms: C41_53  and  O11_54
REMARK   25  A    between atoms: C42_55  and  O12_56
REMARK   26  A    between atoms: O12_56  and  C43_57
REMARK   27  A    between atoms: C44_58  and  O13_59
REMARK   28  A    between atoms: O13_59  and  C45_60
REMARK                            x       y       z     vdW  Elec       q    Type
REMARK                         _______ _______ _______ _____ _____    ______ ____
ROOT
ATOM      1  C3  UNL     1      74.011  63.081 107.511  0.00  0.00    +0.000 C 
ATOM      2  O1  UNL     1      73.356  62.663 106.309  0.00  0.00    +0.000 OA
ATOM      3  C4  UNL     1      72.876  61.379 106.062  0.00  0.00    +0.000 C 
ATOM      4  O2  UNL     1      72.285  60.726 106.960  0.00  0.00    +0.000 OA
ATOM      5  C5  UNL     1      73.243  60.747 104.757  0.00  0.00    +0.000 C 
ATOM      6  C6  UNL     1      72.082  60.519 103.749  0.00  0.00    +0.000 C 
ATOM      7  C7  UNL     1      72.198  61.316 102.409  0.00  0.00    +0.000 C 
ATOM      8  C8  UNL     1      71.845  62.806 102.616  0.00  0.00    +0.000 C 
ATOM      9  C9  UNL     1      73.559  61.048 101.647  0.00  0.00    +0.000 C 
ATOM     10  C18 UNL     1      73.831  61.994 100.424  0.00  0.00    +0.000 C 
ATOM     11  C28 UNL     1      75.331  61.987  99.990  0.00  0.00    +0.000 C 
ATOM     12  C29 UNL     1      76.396  62.669 100.918  0.00  0.00    +0.000 C 
ATOM     13  C30 UNL     1      77.098  61.700 101.889  0.00  0.00    +0.000 C 
ATOM     14  C31 UNL     1      75.933  63.945 101.587  0.00  0.00    +0.000 C 
ATOM     15  O8  UNL     1      75.726  64.974 100.883  0.00  0.00    +0.000 OA
ATOM     16  C32 UNL     1      75.673  64.030 103.029  0.00  0.00    +0.000 C 
ATOM     17  C33 UNL     1      76.582  64.538 103.888  0.00  0.00    +0.000 C 
ATOM     18  C34 UNL     1      76.368  64.590 105.364  0.00  0.00    +0.000 C 
ATOM     19  C35 UNL     1      75.115  64.754 105.867  0.00  0.00    +0.000 C 
ATOM     20  C36 UNL     1      74.567  64.524 107.276  0.00  0.00    +0.000 C 
ATOM     21  C46 UNL     1      77.603  64.543 106.218  0.00  0.00    +0.000 C 
ENDROOT
BRANCH   1  23
ATOM     22  C1  UNL     1      74.872  61.566 109.460  0.00  0.00    +0.000 C 
ATOM     23  C2  UNL     1      75.041  62.023 108.000  0.00  0.00    +0.000 C 
ENDBRANCH   1  23
BRANCH   6  24
ATOM     24  O3  UNL     1      70.827  60.750 104.346  0.00  0.00    +0.000 OA
ATOM     25  H10 UNL     1      70.383  61.467 103.819  0.00  0.00    +0.000 HD
ENDBRANCH   6  24
BRANCH   9  26
ATOM     26  O4  UNL     1      73.570  59.685 101.223  0.00  0.00    +0.000 OA
BRANCH  26  27
ATOM     27  C10 UNL     1      74.463  58.845 101.951  0.00  0.00    +0.000 C 
ATOM     28  O5  UNL     1      75.754  58.863 101.333  0.00  0.00    +0.000 OA
ATOM     29  C11 UNL     1      75.947  57.899 100.298  0.00  0.00    +0.000 C 
ATOM     30  C12 UNL     1      75.126  58.216  99.039  0.00  0.00    +0.000 C 
ATOM     31  C13 UNL     1      75.774  56.430 100.781  0.00  0.00    +0.000 C 
ATOM     32  C14 UNL     1      74.999  56.373 102.124  0.00  0.00    +0.000 C 
ATOM     33  C15 UNL     1      73.864  57.407 102.096  0.00  0.00    +0.000 C 
BRANCH  32  34
ATOM     34  N1  UNL     1      74.473  55.030 102.503  0.00  0.00    +0.000 NA
ATOM     35  C16 UNL     1      75.285  54.360 103.532  0.00  0.00    +0.000 C 
ATOM     36  C17 UNL     1      74.182  54.113 101.381  0.00  0.00    +0.000 C 
ENDBRANCH  32  34
BRANCH  31  37
ATOM     37  O6  UNL     1      77.034  55.832 100.960  0.00  0.00    +0.000 OA
ATOM     38  H22 UNL     1      77.680  56.358 100.423  0.00  0.00    +0.000 HD
ENDBRANCH  31  37
BRANCH  33  39
ATOM     39  O7  UNL     1      73.072  57.286 103.252  0.00  0.00    +0.000 OA
ATOM     40  H25 UNL     1      72.426  56.548 103.105  0.00  0.00    +0.000 HD
ENDBRANCH  33  39
ENDBRANCH  26  27
ENDBRANCH   9  26
BRANCH  10  41
ATOM     41  C19 UNL     1      72.893  61.603  99.235  0.00  0.00    +0.000 C 
BRANCH  41  42
ATOM     42  C20 UNL     1      71.412  61.987  99.404  0.00  0.00    +0.000 C 
BRANCH  42  43
ATOM     43  N2  UNL     1      70.523  60.821  99.189  0.00  0.00    +0.000 NA
ATOM     44  C21 UNL     1      70.378  60.495  97.739  0.00  0.00    +0.000 C 
ATOM     45  C22 UNL     1      69.090  61.084  97.132  0.00  0.00    +0.000 C 
ATOM     46  C23 UNL     1      69.033  60.844  95.618  0.00  0.00    +0.000 C 
ATOM     47  C24 UNL     1      67.842  60.504  97.840  0.00  0.00    +0.000 C 
ATOM     48  C25 UNL     1      68.120  60.109  99.308  0.00  0.00    +0.000 C 
ATOM     49  C26 UNL     1      66.844  60.182 100.156  0.00  0.00    +0.000 C 
ATOM     50  C27 UNL     1      69.231  60.998  99.906  0.00  0.00    +0.000 C 
ENDBRANCH  42  43
ENDBRANCH  41  42
ENDBRANCH  10  41
BRANCH  20  51
ATOM     51  C37 UNL     1      75.269  65.210 108.471  0.00  0.00    +0.000 C 
BRANCH  51  52
ATOM     52  O9  UNL     1      74.918  66.565 108.595  0.00  0.00    +0.000 OA
BRANCH  52  53
ATOM     53  C38 UNL     1      74.143  66.801 109.758  0.00  0.00    +0.000 C 
ATOM     54  O10 UNL     1      72.809  67.130 109.387  0.00  0.00    +0.000 OA
ATOM     55  C39 UNL     1      71.953  66.005 109.394  0.00  0.00    +0.000 C 
ATOM     56  C40 UNL     1      70.633  66.384 108.723  0.00  0.00    +0.000 C 
ATOM     57  C41 UNL     1      71.720  65.543 110.852  0.00  0.00    +0.000 C 
ATOM     58  C42 UNL     1      73.060  65.463 111.637  0.00  0.00    +0.000 C 
ATOM     59  C44 UNL     1      74.280  65.575 110.701  0.00  0.00    +0.000 C 
BRANCH  57  60
ATOM     60  O11 UNL     1      71.072  64.290 110.846  0.00  0.00    +0.000 OA
ATOM     61  H69 UNL     1      71.202  63.918 109.936  0.00  0.00    +0.000 HD
ENDBRANCH  57  60
BRANCH  58  62
ATOM     62  O12 UNL     1      73.113  66.523 112.580  0.00  0.00    +0.000 OA
ATOM     63  C43 UNL     1      73.023  66.028 113.900  0.00  0.00    +0.000 C 
ENDBRANCH  58  62
BRANCH  59  64
ATOM     64  O13 UNL     1      75.474  65.716 111.456  0.00  0.00    +0.000 OA
ATOM     65  C45 UNL     1      75.882  64.475 111.996  0.00  0.00    +0.000 C 
ENDBRANCH  59  64
ENDBRANCH  52  53
ENDBRANCH  51  52
ENDBRANCH  20  51
TORSDOF 16
ENDMDL
MODEL 8
REMARK VINA RESULT:      -7.2      3.890     11.286
REMARK  Name = ./S4122.pdb
REMARK  28 active torsions:
REMARK  status: ('A' for Active; 'I' for Inactive)
REMARK    1  A    between atoms: C1_1  and  C2_2
REMARK    2  A    between atoms: C2_2  and  C3_3
REMARK    3  A    between atoms: C6_8  and  O3_9
REMARK    4  A    between atoms: C7_10  and  C8_11
REMARK    5  A    between atoms: C9_12  and  O4_13
REMARK    6  A    between atoms: O4_13  and  C10_14
REMARK    7  A    between atoms: C11_16  and  C12_17
REMARK    8  A    between atoms: C13_18  and  O6_19
REMARK    9  A    between atoms: C14_20  and  N1_23
REMARK   10  A    between atoms: C15_21  and  O7_22
REMARK   11  A    between atoms: N1_23  and  C16_24
REMARK   12  A    between atoms: N1_23  and  C17_25
REMARK   13  A    between atoms: C18_26  and  C19_27
REMARK   14  A    between atoms: C19_27  and  C20_28
REMARK   15  A    between atoms: C20_28  and  N2_29
REMARK   16  A    between atoms: C22_31  and  C23_32
REMARK   17  A    between atoms: C25_34  and  C26_35
REMARK   18  A    between atoms: C29_38  and  C30_39
REMARK   19  A    between atoms: C34_44  and  C46_61
REMARK   20  A    between atoms: C36_46  and  C37_47
REMARK   21  A    between atoms: C37_47  and  O9_48
REMARK   22  A    between atoms: O9_48  and  C38_49
REMARK   23  A    between atoms: C39_51  and  C40_52
REMARK   24  A    between atoms: C41_53  and  O11_54
REMARK   25  A    between atoms: C42_55  and  O12_56
REMARK   26  A    between atoms: O12_56  and  C43_57
REMARK   27  A    between atoms: C44_58  and  O13_59
REMARK   28  A    between atoms: O13_59  and  C45_60
REMARK                            x       y       z     vdW  Elec       q    Type
REMARK                         _______ _______ _______ _____ _____    ______ ____
ROOT
ATOM      1  C3  UNL     1      73.558  61.856 104.564  0.00  0.00    +0.000 C 
ATOM      2  O1  UNL     1      74.350  62.800 105.292  0.00  0.00    +0.000 OA
ATOM      3  C4  UNL     1      75.422  62.476 106.123  0.00  0.00    +0.000 C 
ATOM      4  O2  UNL     1      76.250  61.589 105.793  0.00  0.00    +0.000 OA
ATOM      5  C5  UNL     1      75.446  63.092 107.485  0.00  0.00    +0.000 C 
ATOM      6  C6  UNL     1      76.576  64.126 107.756  0.00  0.00    +0.000 C 
ATOM      7  C7  UNL     1      76.088  65.582 108.051  0.00  0.00    +0.000 C 
ATOM      8  C8  UNL     1      75.630  66.288 106.755  0.00  0.00    +0.000 C 
ATOM      9  C9  UNL     1      75.064  65.659 109.255  0.00  0.00    +0.000 C 
ATOM     10  C18 UNL     1      74.366  67.052 109.443  0.00  0.00    +0.000 C 
ATOM     11  C28 UNL     1      73.084  66.959 110.330  0.00  0.00    +0.000 C 
ATOM     12  C29 UNL     1      71.808  66.253 109.755  0.00  0.00    +0.000 C 
ATOM     13  C30 UNL     1      71.684  64.766 110.138  0.00  0.00    +0.000 C 
ATOM     14  C31 UNL     1      71.547  66.509 108.286  0.00  0.00    +0.000 C 
ATOM     15  O8  UNL     1      71.212  67.667 107.909  0.00  0.00    +0.000 OA
ATOM     16  C32 UNL     1      71.708  65.468 107.264  0.00  0.00    +0.000 C 
ATOM     17  C33 UNL     1      70.654  64.773 106.783  0.00  0.00    +0.000 C 
ATOM     18  C34 UNL     1      70.791  63.675 105.782  0.00  0.00    +0.000 C 
ATOM     19  C35 UNL     1      71.778  63.721 104.849  0.00  0.00    +0.000 C 
ATOM     20  C36 UNL     1      72.348  62.629 103.942  0.00  0.00    +0.000 C 
ATOM     21  C46 UNL     1      69.741  62.602 105.824  0.00  0.00    +0.000 C 
ENDROOT
BRANCH   1  23
ATOM     22  C1  UNL     1      73.582  59.256 104.821  0.00  0.00    +0.000 C 
ATOM     23  C2  UNL     1      73.203  60.616 105.432  0.00  0.00    +0.000 C 
ENDBRANCH   1  23
BRANCH   6  24
ATOM     24  O3  UNL     1      77.529  64.131 106.719  0.00  0.00    +0.000 OA
ATOM     25  H10 UNL     1      77.035  64.306 105.873  0.00  0.00    +0.000 HD
ENDBRANCH   6  24
BRANCH   9  26
ATOM     26  O4  UNL     1      75.755  65.293 110.450  0.00  0.00    +0.000 OA
BRANCH  26  27
ATOM     27  C10 UNL     1      75.309  64.075 111.042  0.00  0.00    +0.000 C 
ATOM     28  O5  UNL     1      74.173  64.330 111.873  0.00  0.00    +0.000 OA
ATOM     29  C11 UNL     1      74.473  64.689 113.222  0.00  0.00    +0.000 C 
ATOM     30  C12 UNL     1      75.109  66.082 113.332  0.00  0.00    +0.000 C 
ATOM     31  C13 UNL     1      75.271  63.595 113.990  0.00  0.00    +0.000 C 
ATOM     32  C14 UNL     1      75.939  62.599 113.006  0.00  0.00    +0.000 C 
ATOM     33  C15 UNL     1      76.487  63.373 111.797  0.00  0.00    +0.000 C 
BRANCH  32  34
ATOM     34  N1  UNL     1      76.999  61.731 113.595  0.00  0.00    +0.000 NA
ATOM     35  C16 UNL     1      76.460  60.545 114.280  0.00  0.00    +0.000 C 
ATOM     36  C17 UNL     1      77.998  62.418 114.438  0.00  0.00    +0.000 C 
ENDBRANCH  32  34
BRANCH  31  37
ATOM     37  O6  UNL     1      74.409  62.882 114.842  0.00  0.00    +0.000 OA
ATOM     38  H22 UNL     1      73.604  63.445 114.974  0.00  0.00    +0.000 HD
ENDBRANCH  31  37
BRANCH  33  39
ATOM     39  O7  UNL     1      77.204  62.506 110.955  0.00  0.00    +0.000 OA
ATOM     40  H25 UNL     1      77.005  61.575 111.231  0.00  0.00    +0.000 HD
ENDBRANCH  33  39
ENDBRANCH  26  27
ENDBRANCH   9  26
BRANCH  10  41
ATOM     41  C19 UNL     1      75.389  68.081 110.026  0.00  0.00    +0.000 C 
BRANCH  41  42
ATOM     42  C20 UNL     1      74.882  69.530 110.139  0.00  0.00    +0.000 C 
BRANCH  42  43
ATOM     43  N2  UNL     1      75.343  70.355 108.999  0.00  0.00    +0.000 NA
ATOM     44  C21 UNL     1      74.223  70.695 108.071  0.00  0.00    +0.000 C 
ATOM     45  C22 UNL     1      74.167  69.753 106.852  0.00  0.00    +0.000 C 
ATOM     46  C23 UNL     1      72.934  70.043 105.987  0.00  0.00    +0.000 C 
ATOM     47  C24 UNL     1      75.471  69.860 106.025  0.00  0.00    +0.000 C 
ATOM     48  C25 UNL     1      76.694  70.244 106.887  0.00  0.00    +0.000 C 
ATOM     49  C26 UNL     1      77.997  69.716 106.273  0.00  0.00    +0.000 C 
ATOM     50  C27 UNL     1      76.519  69.731 108.332  0.00  0.00    +0.000 C 
ENDBRANCH  42  43
ENDBRANCH  41  42
ENDBRANCH  10  41
BRANCH  20  51
ATOM     51  C37 UNL     1      71.378  61.816 103.054  0.00  0.00    +0.000 C 
BRANCH  51  52
ATOM     52  O9  UNL     1      70.446  62.632 102.388  0.00  0.00    +0.000 OA
BRANCH  52  53
ATOM     53  C38 UNL     1      70.555  62.511 100.981  0.00  0.00    +0.000 C 
ATOM     54  O10 UNL     1      71.901  62.745 100.582  0.00  0.00    +0.000 OA
ATOM     55  C39 UNL     1      72.643  61.549 100.454  0.00  0.00    +0.000 C 
ATOM     56  C40 UNL     1      74.123  61.900 100.303  0.00  0.00    +0.000 C 
ATOM     57  C41 UNL     1      72.135  60.754  99.229  0.00  0.00    +0.000 C 
ATOM     58  C42 UNL     1      70.581  60.671  99.218  0.00  0.00    +0.000 C 
ATOM     59  C44 UNL     1      69.974  61.134 100.556  0.00  0.00    +0.000 C 
BRANCH  57  60
ATOM     60  O11 UNL     1      72.702  59.463  99.242  0.00  0.00    +0.000 OA
ATOM     61  H69 UNL     1      72.401  59.040 100.087  0.00  0.00    +0.000 HD
ENDBRANCH  57  60
BRANCH  58  62
ATOM     62  O12 UNL     1      70.076  61.497  98.180  0.00  0.00    +0.000 OA
ATOM     63  C43 UNL     1      71.000  61.589  97.115  0.00  0.00    +0.000 C 
ENDBRANCH  58  62
BRANCH  59  64
ATOM     64  O13 UNL     1      68.563  61.254 100.447  0.00  0.00    +0.000 OA
ATOM     65  C45 UNL     1      67.958  59.985 100.301  0.00  0.00    +0.000 C 
ENDBRANCH  59  64
ENDBRANCH  52  53
ENDBRANCH  51  52
ENDBRANCH  20  51
TORSDOF 16
ENDMDL
MODEL 9
REMARK VINA RESULT:      -7.2      4.320     11.948
REMARK  Name = ./S4122.pdb
REMARK  28 active torsions:
REMARK  status: ('A' for Active; 'I' for Inactive)
REMARK    1  A    between atoms: C1_1  and  C2_2
REMARK    2  A    between atoms: C2_2  and  C3_3
REMARK    3  A    between atoms: C6_8  and  O3_9
REMARK    4  A    between atoms: C7_10  and  C8_11
REMARK    5  A    between atoms: C9_12  and  O4_13
REMARK    6  A    between atoms: O4_13  and  C10_14
REMARK    7  A    between atoms: C11_16  and  C12_17
REMARK    8  A    between atoms: C13_18  and  O6_19
REMARK    9  A    between atoms: C14_20  and  N1_23
REMARK   10  A    between atoms: C15_21  and  O7_22
REMARK   11  A    between atoms: N1_23  and  C16_24
REMARK   12  A    between atoms: N1_23  and  C17_25
REMARK   13  A    between atoms: C18_26  and  C19_27
REMARK   14  A    between atoms: C19_27  and  C20_28
REMARK   15  A    between atoms: C20_28  and  N2_29
REMARK   16  A    between atoms: C22_31  and  C23_32
REMARK   17  A    between atoms: C25_34  and  C26_35
REMARK   18  A    between atoms: C29_38  and  C30_39
REMARK   19  A    between atoms: C34_44  and  C46_61
REMARK   20  A    between atoms: C36_46  and  C37_47
REMARK   21  A    between atoms: C37_47  and  O9_48
REMARK   22  A    between atoms: O9_48  and  C38_49
REMARK   23  A    between atoms: C39_51  and  C40_52
REMARK   24  A    between atoms: C41_53  and  O11_54
REMARK   25  A    between atoms: C42_55  and  O12_56
REMARK   26  A    between atoms: O12_56  and  C43_57
REMARK   27  A    between atoms: C44_58  and  O13_59
REMARK   28  A    between atoms: O13_59  and  C45_60
REMARK                            x       y       z     vdW  Elec       q    Type
REMARK                         _______ _______ _______ _____ _____    ______ ____
ROOT
ATOM      1  C3  UNL     1      72.641  62.053 105.294  0.00  0.00    +0.000 C 
ATOM      2  O1  UNL     1      72.530  62.915 106.430  0.00  0.00    +0.000 OA
ATOM      3  C4  UNL     1      71.453  63.759 106.694  0.00  0.00    +0.000 C 
ATOM      4  O2  UNL     1      70.270  63.379 106.498  0.00  0.00    +0.000 OA
ATOM      5  C5  UNL     1      71.762  65.179 107.048  0.00  0.00    +0.000 C 
ATOM      6  C6  UNL     1      71.439  65.615 108.505  0.00  0.00    +0.000 C 
ATOM      7  C7  UNL     1      72.676  66.039 109.362  0.00  0.00    +0.000 C 
ATOM      8  C8  UNL     1      73.487  64.804 109.816  0.00  0.00    +0.000 C 
ATOM      9  C9  UNL     1      73.528  67.191 108.690  0.00  0.00    +0.000 C 
ATOM     10  C18 UNL     1      74.902  67.492 109.387  0.00  0.00    +0.000 C 
ATOM     11  C28 UNL     1      75.871  68.299 108.466  0.00  0.00    +0.000 C 
ATOM     12  C29 UNL     1      76.510  67.589 107.223  0.00  0.00    +0.000 C 
ATOM     13  C30 UNL     1      75.738  67.804 105.907  0.00  0.00    +0.000 C 
ATOM     14  C31 UNL     1      76.903  66.145 107.448  0.00  0.00    +0.000 C 
ATOM     15  O8  UNL     1      77.857  65.877 108.231  0.00  0.00    +0.000 OA
ATOM     16  C32 UNL     1      76.189  65.026 106.820  0.00  0.00    +0.000 C 
ATOM     17  C33 UNL     1      76.651  64.422 105.705  0.00  0.00    +0.000 C 
ATOM     18  C34 UNL     1      75.923  63.318 105.014  0.00  0.00    +0.000 C 
ATOM     19  C35 UNL     1      75.167  62.445 105.733  0.00  0.00    +0.000 C 
ATOM     20  C36 UNL     1      74.088  61.456 105.287  0.00  0.00    +0.000 C 
ATOM     21  C46 UNL     1      76.152  63.192 103.536  0.00  0.00    +0.000 C 
ENDROOT
BRANCH   1  23
ATOM     22  C1  UNL     1      71.011  62.102 103.252  0.00  0.00    +0.000 C 
ATOM     23  C2  UNL     1      72.190  62.764 103.988  0.00  0.00    +0.000 C 
ENDBRANCH   1  23
BRANCH   6  24
ATOM     24  O3  UNL     1      70.689  64.634 109.182  0.00  0.00    +0.000 OA
ATOM     25  H10 UNL     1      70.257  64.068 108.486  0.00  0.00    +0.000 HD
ENDBRANCH   6  24
BRANCH   9  26
ATOM     26  O4  UNL     1      72.727  68.373 108.658  0.00  0.00    +0.000 OA
BRANCH  26  27
ATOM     27  C10 UNL     1      72.271  68.744 107.359  0.00  0.00    +0.000 C 
ATOM     28  O5  UNL     1      73.225  69.614 106.742  0.00  0.00    +0.000 OA
ATOM     29  C11 UNL     1      73.053  71.003 107.023  0.00  0.00    +0.000 C 
ATOM     30  C12 UNL     1      73.386  71.354 108.480  0.00  0.00    +0.000 C 
ATOM     31  C13 UNL     1      71.674  71.561 106.564  0.00  0.00    +0.000 C 
ATOM     32  C14 UNL     1      70.657  70.412 106.338  0.00  0.00    +0.000 C 
ATOM     33  C15 UNL     1      70.833  69.356 107.439  0.00  0.00    +0.000 C 
BRANCH  32  34
ATOM     34  N1  UNL     1      69.228  70.831 106.240  0.00  0.00    +0.000 NA
ATOM     35  C16 UNL     1      68.717  70.826 104.860  0.00  0.00    +0.000 C 
ATOM     36  C17 UNL     1      68.881  72.093 106.926  0.00  0.00    +0.000 C 
ENDBRANCH  32  34
BRANCH  31  37
ATOM     37  O6  UNL     1      71.822  72.279 105.365  0.00  0.00    +0.000 OA
ATOM     38  H22 UNL     1      71.152  71.919 104.729  0.00  0.00    +0.000 HD
ENDBRANCH  31  37
BRANCH  33  39
ATOM     39  O7  UNL     1      69.839  68.369 107.325  0.00  0.00    +0.000 OA
ATOM     40  H25 UNL     1      69.237  68.624 106.580  0.00  0.00    +0.000 HD
ENDBRANCH  33  39
ENDBRANCH  26  27
ENDBRANCH   9  26
BRANCH  10  41
ATOM     41  C19 UNL     1      74.656  68.232 110.742  0.00  0.00    +0.000 C 
BRANCH  41  42
ATOM     42  C20 UNL     1      75.451  67.694 111.946  0.00  0.00    +0.000 C 
BRANCH  42  43
ATOM     43  N2  UNL     1      74.680  66.669 112.688  0.00  0.00    +0.000 NA
ATOM     44  C21 UNL     1      74.284  67.149 114.046  0.00  0.00    +0.000 C 
ATOM     45  C22 UNL     1      75.242  66.652 115.146  0.00  0.00    +0.000 C 
ATOM     46  C23 UNL     1      74.886  67.265 116.507  0.00  0.00    +0.000 C 
ATOM     47  C24 UNL     1      75.239  65.105 115.209  0.00  0.00    +0.000 C 
ATOM     48  C25 UNL     1      74.922  64.454 113.844  0.00  0.00    +0.000 C 
ATOM     49  C26 UNL     1      75.548  63.059 113.733  0.00  0.00    +0.000 C 
ATOM     50  C27 UNL     1      75.394  65.363 112.689  0.00  0.00    +0.000 C 
ENDBRANCH  42  43
ENDBRANCH  41  42
ENDBRANCH  10  41
BRANCH  20  51
ATOM     51  C37 UNL     1      74.423  60.439 104.172  0.00  0.00    +0.000 C 
BRANCH  51  52
ATOM     52  O9  UNL     1      73.477  59.403 104.087  0.00  0.00    +0.000 OA
BRANCH  52  53
ATOM     53  C38 UNL     1      74.097  58.131 104.028  0.00  0.00    +0.000 C 
ATOM     54  O10 UNL     1      74.989  58.083 102.920  0.00  0.00    +0.000 OA
ATOM     55  C39 UNL     1      76.319  58.396 103.283  0.00  0.00    +0.000 C 
ATOM     56  C40 UNL     1      77.144  58.598 102.011  0.00  0.00    +0.000 C 
ATOM     57  C41 UNL     1      76.902  57.252 104.144  0.00  0.00    +0.000 C 
ATOM     58  C42 UNL     1      75.907  56.828 105.262  0.00  0.00    +0.000 C 
ATOM     59  C44 UNL     1      74.747  57.832 105.407  0.00  0.00    +0.000 C 
BRANCH  57  60
ATOM     60  O11 UNL     1      78.129  57.668 104.703  0.00  0.00    +0.000 OA
ATOM     61  H69 UNL     1      78.763  56.919 104.562  0.00  0.00    +0.000 HD
ENDBRANCH  57  60
BRANCH  58  62
ATOM     62  O12 UNL     1      75.368  55.553 104.947  0.00  0.00    +0.000 OA
ATOM     63  C43 UNL     1      76.344  54.727 104.348  0.00  0.00    +0.000 C 
ENDBRANCH  58  62
BRANCH  59  64
ATOM     64  O13 UNL     1      73.748  57.315 106.274  0.00  0.00    +0.000 OA
ATOM     65  C45 UNL     1      73.562  58.159 107.393  0.00  0.00    +0.000 C 
ENDBRANCH  59  64
ENDBRANCH  52  53
ENDBRANCH  51  52
ENDBRANCH  20  51
TORSDOF 16
ENDMDL
MODEL 10
REMARK VINA RESULT:      -7.1      1.417      2.142
REMARK  Name = ./S4122.pdb
REMARK  28 active torsions:
REMARK  status: ('A' for Active; 'I' for Inactive)
REMARK    1  A    between atoms: C1_1  and  C2_2
REMARK    2  A    between atoms: C2_2  and  C3_3
REMARK    3  A    between atoms: C6_8  and  O3_9
REMARK    4  A    between atoms: C7_10  and  C8_11
REMARK    5  A    between atoms: C9_12  and  O4_13
REMARK    6  A    between atoms: O4_13  and  C10_14
REMARK    7  A    between atoms: C11_16  and  C12_17
REMARK    8  A    between atoms: C13_18  and  O6_19
REMARK    9  A    between atoms: C14_20  and  N1_23
REMARK   10  A    between atoms: C15_21  and  O7_22
REMARK   11  A    between atoms: N1_23  and  C16_24
REMARK   12  A    between atoms: N1_23  and  C17_25
REMARK   13  A    between atoms: C18_26  and  C19_27
REMARK   14  A    between atoms: C19_27  and  C20_28
REMARK   15  A    between atoms: C20_28  and  N2_29
REMARK   16  A    between atoms: C22_31  and  C23_32
REMARK   17  A    between atoms: C25_34  and  C26_35
REMARK   18  A    between atoms: C29_38  and  C30_39
REMARK   19  A    between atoms: C34_44  and  C46_61
REMARK   20  A    between atoms: C36_46  and  C37_47
REMARK   21  A    between atoms: C37_47  and  O9_48
REMARK   22  A    between atoms: O9_48  and  C38_49
REMARK   23  A    between atoms: C39_51  and  C40_52
REMARK   24  A    between atoms: C41_53  and  O11_54
REMARK   25  A    between atoms: C42_55  and  O12_56
REMARK   26  A    between atoms: O12_56  and  C43_57
REMARK   27  A    between atoms: C44_58  and  O13_59
REMARK   28  A    between atoms: O13_59  and  C45_60
REMARK                            x       y       z     vdW  Elec       q    Type
REMARK                         _______ _______ _______ _____ _____    ______ ____
ROOT
ATOM      1  C3  UNL     1      73.923  63.419 107.769  0.00  0.00    +0.000 C 
ATOM      2  O1  UNL     1      73.307  62.902 106.586  0.00  0.00    +0.000 OA
ATOM      3  C4  UNL     1      72.908  61.580 106.401  0.00  0.00    +0.000 C 
ATOM      4  O2  UNL     1      72.350  60.937 107.327  0.00  0.00    +0.000 OA
ATOM      5  C5  UNL     1      73.325  60.907 105.132  0.00  0.00    +0.000 C 
ATOM      6  C6  UNL     1      72.190  60.557 104.129  0.00  0.00    +0.000 C 
ATOM      7  C7  UNL     1      72.271  61.292 102.751  0.00  0.00    +0.000 C 
ATOM      8  C8  UNL     1      71.825  62.766 102.880  0.00  0.00    +0.000 C 
ATOM      9  C9  UNL     1      73.653  61.070 102.013  0.00  0.00    +0.000 C 
ATOM     10  C18 UNL     1      73.878  61.968 100.745  0.00  0.00    +0.000 C 
ATOM     11  C28 UNL     1      75.380  62.032 100.322  0.00  0.00    +0.000 C 
ATOM     12  C29 UNL     1      76.392  62.824 101.221  0.00  0.00    +0.000 C 
ATOM     13  C30 UNL     1      77.142  61.951 102.244  0.00  0.00    +0.000 C 
ATOM     14  C31 UNL     1      75.845  64.101 101.821  0.00  0.00    +0.000 C 
ATOM     15  O8  UNL     1      75.582  65.078 101.064  0.00  0.00    +0.000 OA
ATOM     16  C32 UNL     1      75.566  64.242 103.255  0.00  0.00    +0.000 C 
ATOM     17  C33 UNL     1      76.434  64.848 104.093  0.00  0.00    +0.000 C 
ATOM     18  C34 UNL     1      76.204  64.961 105.563  0.00  0.00    +0.000 C 
ATOM     19  C35 UNL     1      74.939  65.073 106.049  0.00  0.00    +0.000 C 
ATOM     20  C36 UNL     1      74.392  64.880 107.465  0.00  0.00    +0.000 C 
ATOM     21  C46 UNL     1      77.431  65.033 106.426  0.00  0.00    +0.000 C 
ENDROOT
BRANCH   1  23
ATOM     22  C1  UNL     1      74.733  61.875 109.716  0.00  0.00    +0.000 C 
ATOM     23  C2  UNL     1      75.011  62.453 108.317  0.00  0.00    +0.000 C 
ENDBRANCH   1  23
BRANCH   6  24
ATOM     24  O3  UNL     1      70.919  60.740 104.706  0.00  0.00    +0.000 OA
ATOM     25  H10 UNL     1      70.926  61.633 105.145  0.00  0.00    +0.000 HD
ENDBRANCH   6  24
BRANCH   9  26
ATOM     26  O4  UNL     1      73.751  59.690 101.658  0.00  0.00    +0.000 OA
BRANCH  26  27
ATOM     27  C10 UNL     1      74.930  59.041 102.129  0.00  0.00    +0.000 C 
ATOM     28  O5  UNL     1      75.887  58.951 101.068  0.00  0.00    +0.000 OA
ATOM     29  C11 UNL     1      75.772  57.792 100.242  0.00  0.00    +0.000 C 
ATOM     30  C12 UNL     1      74.513  57.820  99.363  0.00  0.00    +0.000 C 
ATOM     31  C13 UNL     1      75.938  56.456 101.022  0.00  0.00    +0.000 C 
ATOM     32  C14 UNL     1      75.732  56.672 102.544  0.00  0.00    +0.000 C 
ATOM     33  C15 UNL     1      74.573  57.656 102.764  0.00  0.00    +0.000 C 
BRANCH  32  34
ATOM     34  N1  UNL     1      75.521  55.430 103.344  0.00  0.00    +0.000 NA
ATOM     35  C16 UNL     1      74.130  54.951 103.314  0.00  0.00    +0.000 C 
ATOM     36  C17 UNL     1      76.037  55.462 104.728  0.00  0.00    +0.000 C 
ENDBRANCH  32  34
BRANCH  31  37
ATOM     37  O6  UNL     1      77.226  55.933 100.808  0.00  0.00    +0.000 OA
ATOM     38  H22 UNL     1      77.264  55.640  99.863  0.00  0.00    +0.000 HD
ENDBRANCH  31  37
BRANCH  33  39
ATOM     39  O7  UNL     1      74.288  57.768 104.135  0.00  0.00    +0.000 OA
ATOM     40  H25 UNL     1      74.108  56.859 104.487  0.00  0.00    +0.000 HD
ENDBRANCH  33  39
ENDBRANCH  26  27
ENDBRANCH   9  26
BRANCH  10  41
ATOM     41  C19 UNL     1      72.977  61.461  99.572  0.00  0.00    +0.000 C 
BRANCH  41  42
ATOM     42  C20 UNL     1      71.503  61.901  99.628  0.00  0.00    +0.000 C 
BRANCH  42  43
ATOM     43  N2  UNL     1      70.590  60.773  99.329  0.00  0.00    +0.000 NA
ATOM     44  C21 UNL     1      70.487  60.518  97.861  0.00  0.00    +0.000 C 
ATOM     45  C22 UNL     1      69.238  61.173  97.238  0.00  0.00    +0.000 C 
ATOM     46  C23 UNL     1      69.228  61.004  95.714  0.00  0.00    +0.000 C 
ATOM     47  C24 UNL     1      67.950  60.598  97.876  0.00  0.00    +0.000 C 
ATOM     48  C25 UNL     1      68.165  60.128  99.332  0.00  0.00    +0.000 C 
ATOM     49  C26 UNL     1      66.862  60.201 100.139  0.00  0.00    +0.000 C 
ATOM     50  C27 UNL     1      69.278  60.955 100.009  0.00  0.00    +0.000 C 
ENDBRANCH  42  43
ENDBRANCH  41  42
ENDBRANCH  10  41
BRANCH  20  51
ATOM     51  C37 UNL     1      75.039  65.667 108.627  0.00  0.00    +0.000 C 
BRANCH  51  52
ATOM     52  O9  UNL     1      74.087  66.172 109.531  0.00  0.00    +0.000 OA
BRANCH  52  53
ATOM     53  C38 UNL     1      74.019  65.391 110.711  0.00  0.00    +0.000 C 
ATOM     54  O10 UNL     1      74.915  65.916 111.685  0.00  0.00    +0.000 OA
ATOM     55  C39 UNL     1      74.278  66.805 112.580  0.00  0.00    +0.000 C 
ATOM     56  C40 UNL     1      75.347  67.528 113.401  0.00  0.00    +0.000 C 
ATOM     57  C41 UNL     1      73.318  66.014 113.498  0.00  0.00    +0.000 C 
ATOM     58  C42 UNL     1      72.437  65.031 112.675  0.00  0.00    +0.000 C 
ATOM     59  C44 UNL     1      72.536  65.303 111.162  0.00  0.00    +0.000 C 
BRANCH  57  60
ATOM     60  O11 UNL     1      72.512  66.919 114.220  0.00  0.00    +0.000 OA
ATOM     61  H69 UNL     1      72.950  67.034 115.101  0.00  0.00    +0.000 HD
ENDBRANCH  57  60
BRANCH  58  62
ATOM     62  O12 UNL     1      72.864  63.700 112.926  0.00  0.00    +0.000 OA
ATOM     63  C43 UNL     1      73.353  63.568 114.245  0.00  0.00    +0.000 C 
ENDBRANCH  58  62
BRANCH  59  64
ATOM     64  O13 UNL     1      71.901  64.266 110.428  0.00  0.00    +0.000 OA
ATOM     65  C45 UNL     1      71.019  64.799 109.460  0.00  0.00    +0.000 C 
ENDBRANCH  59  64
ENDBRANCH  52  53
ENDBRANCH  51  52
ENDBRANCH  20  51
TORSDOF 16
ENDMDL
MODEL 11
REMARK VINA RESULT:      -7.1      3.987     12.311
REMARK  Name = ./S4122.pdb
REMARK  28 active torsions:
REMARK  status: ('A' for Active; 'I' for Inactive)
REMARK    1  A    between atoms: C1_1  and  C2_2
REMARK    2  A    between atoms: C2_2  and  C3_3
REMARK    3  A    between atoms: C6_8  and  O3_9
REMARK    4  A    between atoms: C7_10  and  C8_11
REMARK    5  A    between atoms: C9_12  and  O4_13
REMARK    6  A    between atoms: O4_13  and  C10_14
REMARK    7  A    between atoms: C11_16  and  C12_17
REMARK    8  A    between atoms: C13_18  and  O6_19
REMARK    9  A    between atoms: C14_20  and  N1_23
REMARK   10  A    between atoms: C15_21  and  O7_22
REMARK   11  A    between atoms: N1_23  and  C16_24
REMARK   12  A    between atoms: N1_23  and  C17_25
REMARK   13  A    between atoms: C18_26  and  C19_27
REMARK   14  A    between atoms: C19_27  and  C20_28
REMARK   15  A    between atoms: C20_28  and  N2_29
REMARK   16  A    between atoms: C22_31  and  C23_32
REMARK   17  A    between atoms: C25_34  and  C26_35
REMARK   18  A    between atoms: C29_38  and  C30_39
REMARK   19  A    between atoms: C34_44  and  C46_61
REMARK   20  A    between atoms: C36_46  and  C37_47
REMARK   21  A    between atoms: C37_47  and  O9_48
REMARK   22  A    between atoms: O9_48  and  C38_49
REMARK   23  A    between atoms: C39_51  and  C40_52
REMARK   24  A    between atoms: C41_53  and  O11_54
REMARK   25  A    between atoms: C42_55  and  O12_56
REMARK   26  A    between atoms: O12_56  and  C43_57
REMARK   27  A    between atoms: C44_58  and  O13_59
REMARK   28  A    between atoms: O13_59  and  C45_60
REMARK                            x       y       z     vdW  Elec       q    Type
REMARK                         _______ _______ _______ _____ _____    ______ ____
ROOT
ATOM      1  C3  UNL     1      71.589  61.244 102.476  0.00  0.00    +0.000 C 
ATOM      2  O1  UNL     1      71.831  61.786 103.778  0.00  0.00    +0.000 OA
ATOM      3  C4  UNL     1      70.977  62.653 104.457  0.00  0.00    +0.000 C 
ATOM      4  O2  UNL     1      69.731  62.481 104.438  0.00  0.00    +0.000 OA
ATOM      5  C5  UNL     1      71.580  63.884 105.055  0.00  0.00    +0.000 C 
ATOM      6  C6  UNL     1      71.602  63.959 106.608  0.00  0.00    +0.000 C 
ATOM      7  C7  UNL     1      73.026  63.994 107.252  0.00  0.00    +0.000 C 
ATOM      8  C8  UNL     1      73.685  62.596 107.221  0.00  0.00    +0.000 C 
ATOM      9  C9  UNL     1      73.926  65.173 106.699  0.00  0.00    +0.000 C 
ATOM     10  C18 UNL     1      75.433  65.115 107.133  0.00  0.00    +0.000 C 
ATOM     11  C28 UNL     1      76.343  66.015 106.237  0.00  0.00    +0.000 C 
ATOM     12  C29 UNL     1      76.620  65.583 104.755  0.00  0.00    +0.000 C 
ATOM     13  C30 UNL     1      75.671  66.225 103.725  0.00  0.00    +0.000 C 
ATOM     14  C31 UNL     1      76.797  64.095 104.549  0.00  0.00    +0.000 C 
ATOM     15  O8  UNL     1      77.817  63.520 105.023  0.00  0.00    +0.000 OA
ATOM     16  C32 UNL     1      75.803  63.272 103.848  0.00  0.00    +0.000 C 
ATOM     17  C33 UNL     1      75.949  62.930 102.550  0.00  0.00    +0.000 C 
ATOM     18  C34 UNL     1      74.933  62.140 101.796  0.00  0.00    +0.000 C 
ATOM     19  C35 UNL     1      74.182  61.206 102.438  0.00  0.00    +0.000 C 
ATOM     20  C36 UNL     1      72.889  60.503 102.018  0.00  0.00    +0.000 C 
ATOM     21  C46 UNL     1      74.868  62.379 100.315  0.00  0.00    +0.000 C 
ENDROOT
BRANCH   1  23
ATOM     22  C1  UNL     1      69.589  62.101 101.028  0.00  0.00    +0.000 C 
ATOM     23  C2  UNL     1      71.037  62.321 101.500  0.00  0.00    +0.000 C 
ENDBRANCH   1  23
BRANCH   6  24
ATOM     24  O3  UNL     1      70.831  62.931 107.184  0.00  0.00    +0.000 OA
ATOM     25  H10 UNL     1      69.887  63.090 106.913  0.00  0.00    +0.000 HD
ENDBRANCH   6  24
BRANCH   9  26
ATOM     26  O4  UNL     1      73.344  66.408 107.116  0.00  0.00    +0.000 OA
BRANCH  26  27
ATOM     27  C10 UNL     1      72.467  67.001 106.161  0.00  0.00    +0.000 C 
ATOM     28  O5  UNL     1      73.231  67.682 105.161  0.00  0.00    +0.000 OA
ATOM     29  C11 UNL     1      73.559  69.038 105.463  0.00  0.00    +0.000 C 
ATOM     30  C12 UNL     1      74.583  69.155 106.602  0.00  0.00    +0.000 C 
ATOM     31  C13 UNL     1      72.312  69.944 105.673  0.00  0.00    +0.000 C 
ATOM     32  C14 UNL     1      71.047  69.092 105.957  0.00  0.00    +0.000 C 
ATOM     33  C15 UNL     1      71.422  67.921 106.877  0.00  0.00    +0.000 C 
BRANCH  32  34
ATOM     34  N1  UNL     1      69.882  69.841 106.513  0.00  0.00    +0.000 NA
ATOM     35  C16 UNL     1      68.890  70.210 105.490  0.00  0.00    +0.000 C 
ATOM     36  C17 UNL     1      70.212  70.998 107.370  0.00  0.00    +0.000 C 
ENDBRANCH  32  34
BRANCH  31  37
ATOM     37  O6  UNL     1      72.086  70.723 104.524  0.00  0.00    +0.000 OA
ATOM     38  H22 UNL     1      71.226  70.421 104.136  0.00  0.00    +0.000 HD
ENDBRANCH  31  37
BRANCH  33  39
ATOM     39  O7  UNL     1      70.268  67.209 107.247  0.00  0.00    +0.000 OA
ATOM     40  H25 UNL     1      70.495  66.244 107.265  0.00  0.00    +0.000 HD
ENDBRANCH  33  39
ENDBRANCH  26  27
ENDBRANCH   9  26
BRANCH  10  41
ATOM     41  C19 UNL     1      75.563  65.498 108.643  0.00  0.00    +0.000 C 
BRANCH  41  42
ATOM     42  C20 UNL     1      76.003  64.360 109.582  0.00  0.00    +0.000 C 
BRANCH  42  43
ATOM     43  N2  UNL     1      75.315  64.442 110.891  0.00  0.00    +0.000 NA
ATOM     44  C21 UNL     1      73.864  64.110 110.776  0.00  0.00    +0.000 C 
ATOM     45  C22 UNL     1      72.980  65.369 110.681  0.00  0.00    +0.000 C 
ATOM     46  C23 UNL     1      71.513  64.998 110.434  0.00  0.00    +0.000 C 
ATOM     47  C24 UNL     1      73.133  66.236 111.955  0.00  0.00    +0.000 C 
ATOM     48  C25 UNL     1      74.521  66.082 112.617  0.00  0.00    +0.000 C 
ATOM     49  C26 UNL     1      74.907  67.342 113.402  0.00  0.00    +0.000 C 
ATOM     50  C27 UNL     1      75.591  65.744 111.557  0.00  0.00    +0.000 C 
ENDBRANCH  42  43
ENDBRANCH  41  42
ENDBRANCH  10  41
BRANCH  20  51
ATOM     51  C37 UNL     1      72.842  59.781 100.652  0.00  0.00    +0.000 C 
BRANCH  51  52
ATOM     52  O9  UNL     1      71.667  59.027 100.483  0.00  0.00    +0.000 OA
BRANCH  52  53
ATOM     53  C38 UNL     1      71.524  58.573  99.149  0.00  0.00    +0.000 C 
ATOM     54  O10 UNL     1      70.417  59.226  98.537  0.00  0.00    +0.000 OA
ATOM     55  C39 UNL     1      70.803  60.371  97.802  0.00  0.00    +0.000 C 
ATOM     56  C40 UNL     1      69.550  61.159  97.421  0.00  0.00    +0.000 C 
ATOM     57  C41 UNL     1      71.587  59.935  96.542  0.00  0.00    +0.000 C 
ATOM     58  C42 UNL     1      72.671  58.876  96.893  0.00  0.00    +0.000 C 
ATOM     59  C44 UNL     1      72.881  58.754  98.415  0.00  0.00    +0.000 C 
BRANCH  57  60
ATOM     60  O11 UNL     1      72.175  61.069  95.944  0.00  0.00    +0.000 OA
ATOM     61  H69 UNL     1      71.795  61.855  96.414  0.00  0.00    +0.000 HD
ENDBRANCH  57  60
BRANCH  58  62
ATOM     62  O12 UNL     1      72.269  57.612  96.388  0.00  0.00    +0.000 OA
ATOM     63  C43 UNL     1      71.267  57.758  95.403  0.00  0.00    +0.000 C 
ENDBRANCH  58  62
BRANCH  59  64
ATOM     64  O13 UNL     1      73.709  57.640  98.715  0.00  0.00    +0.000 OA
ATOM     65  C45 UNL     1      75.059  57.914  98.400  0.00  0.00    +0.000 C 
ENDBRANCH  59  64
ENDBRANCH  52  53
ENDBRANCH  51  52
ENDBRANCH  20  51
TORSDOF 16
ENDMDL
MODEL 12
REMARK VINA RESULT:      -7.1      3.798     12.590
REMARK  Name = ./S4122.pdb
REMARK  28 active torsions:
REMARK  status: ('A' for Active; 'I' for Inactive)
REMARK    1  A    between atoms: C1_1  and  C2_2
REMARK    2  A    between atoms: C2_2  and  C3_3
REMARK    3  A    between atoms: C6_8  and  O3_9
REMARK    4  A    between atoms: C7_10  and  C8_11
REMARK    5  A    between atoms: C9_12  and  O4_13
REMARK    6  A    between atoms: O4_13  and  C10_14
REMARK    7  A    between atoms: C11_16  and  C12_17
REMARK    8  A    between atoms: C13_18  and  O6_19
REMARK    9  A    between atoms: C14_20  and  N1_23
REMARK   10  A    between atoms: C15_21  and  O7_22
REMARK   11  A    between atoms: N1_23  and  C16_24
REMARK   12  A    between atoms: N1_23  and  C17_25
REMARK   13  A    between atoms: C18_26  and  C19_27
REMARK   14  A    between atoms: C19_27  and  C20_28
REMARK   15  A    between atoms: C20_28  and  N2_29
REMARK   16  A    between atoms: C22_31  and  C23_32
REMARK   17  A    between atoms: C25_34  and  C26_35
REMARK   18  A    between atoms: C29_38  and  C30_39
REMARK   19  A    between atoms: C34_44  and  C46_61
REMARK   20  A    between atoms: C36_46  and  C37_47
REMARK   21  A    between atoms: C37_47  and  O9_48
REMARK   22  A    between atoms: O9_48  and  C38_49
REMARK   23  A    between atoms: C39_51  and  C40_52
REMARK   24  A    between atoms: C41_53  and  O11_54
REMARK   25  A    between atoms: C42_55  and  O12_56
REMARK   26  A    between atoms: O12_56  and  C43_57
REMARK   27  A    between atoms: C44_58  and  O13_59
REMARK   28  A    between atoms: O13_59  and  C45_60
REMARK                            x       y       z     vdW  Elec       q    Type
REMARK                         _______ _______ _______ _____ _____    ______ ____
ROOT
ATOM      1  C3  UNL     1      70.779  60.924 100.810  0.00  0.00    +0.000 C 
ATOM      2  O1  UNL     1      70.769  61.066 102.234  0.00  0.00    +0.000 OA
ATOM      3  C4  UNL     1      70.229  62.146 102.929  0.00  0.00    +0.000 C 
ATOM      4  O2  UNL     1      69.137  62.661 102.576  0.00  0.00    +0.000 OA
ATOM      5  C5  UNL     1      71.075  62.773 103.991  0.00  0.00    +0.000 C 
ATOM      6  C6  UNL     1      70.584  62.604 105.456  0.00  0.00    +0.000 C 
ATOM      7  C7  UNL     1      71.540  61.790 106.387  0.00  0.00    +0.000 C 
ATOM      8  C8  UNL     1      71.453  60.276 106.089  0.00  0.00    +0.000 C 
ATOM      9  C9  UNL     1      73.008  62.381 106.435  0.00  0.00    +0.000 C 
ATOM     10  C18 UNL     1      74.063  61.476 107.163  0.00  0.00    +0.000 C 
ATOM     11  C28 UNL     1      75.531  61.876 106.811  0.00  0.00    +0.000 C 
ATOM     12  C29 UNL     1      76.079  61.579 105.372  0.00  0.00    +0.000 C 
ATOM     13  C30 UNL     1      75.956  62.764 104.395  0.00  0.00    +0.000 C 
ATOM     14  C31 UNL     1      75.616  60.268 104.774  0.00  0.00    +0.000 C 
ATOM     15  O8  UNL     1      76.023  59.181 105.273  0.00  0.00    +0.000 OA
ATOM     16  C32 UNL     1      74.673  60.203 103.651  0.00  0.00    +0.000 C 
ATOM     17  C33 UNL     1      75.090  60.024 102.379  0.00  0.00    +0.000 C 
ATOM     18  C34 UNL     1      74.162  60.006 101.212  0.00  0.00    +0.000 C 
ATOM     19  C35 UNL     1      72.896  59.529 101.354  0.00  0.00    +0.000 C 
ATOM     20  C36 UNL     1      71.665  59.682 100.460  0.00  0.00    +0.000 C 
ATOM     21  C46 UNL     1      74.736  60.451  99.897  0.00  0.00    +0.000 C 
ENDROOT
BRANCH   1  23
ATOM     22  C1  UNL     1      71.740  62.106  98.687  0.00  0.00    +0.000 C 
ATOM     23  C2  UNL     1      71.160  62.255 100.105  0.00  0.00    +0.000 C 
ENDBRANCH   1  23
BRANCH   6  24
ATOM     24  O3  UNL     1      69.283  62.068 105.505  0.00  0.00    +0.000 OA
ATOM     25  H10 UNL     1      68.687  62.785 105.854  0.00  0.00    +0.000 HD
ENDBRANCH   6  24
BRANCH   9  26
ATOM     26  O4  UNL     1      72.950  63.664 107.060  0.00  0.00    +0.000 OA
BRANCH  26  27
ATOM     27  C10 UNL     1      72.789  64.755 106.157  0.00  0.00    +0.000 C 
ATOM     28  O5  UNL     1      74.058  65.111 105.599  0.00  0.00    +0.000 OA
ATOM     29  C11 UNL     1      74.812  66.057 106.356  0.00  0.00    +0.000 C 
ATOM     30  C12 UNL     1      75.339  65.470 107.674  0.00  0.00    +0.000 C 
ATOM     31  C13 UNL     1      74.083  67.419 106.547  0.00  0.00    +0.000 C 
ATOM     32  C14 UNL     1      72.562  67.278 106.279  0.00  0.00    +0.000 C 
ATOM     33  C15 UNL     1      72.066  65.948 106.866  0.00  0.00    +0.000 C 
BRANCH  32  34
ATOM     34  N1  UNL     1      71.719  68.409 106.762  0.00  0.00    +0.000 NA
ATOM     35  C16 UNL     1      71.293  69.316 105.683  0.00  0.00    +0.000 C 
ATOM     36  C17 UNL     1      72.260  69.171 107.907  0.00  0.00    +0.000 C 
ENDBRANCH  32  34
BRANCH  31  37
ATOM     37  O6  UNL     1      74.614  68.375 105.662  0.00  0.00    +0.000 OA
ATOM     38  H22 UNL     1      75.593  68.393 105.812  0.00  0.00    +0.000 HD
ENDBRANCH  31  37
BRANCH  33  39
ATOM     39  O7  UNL     1      70.668  65.858 106.744  0.00  0.00    +0.000 OA
ATOM     40  H25 UNL     1      70.304  65.547 107.612  0.00  0.00    +0.000 HD
ENDBRANCH  33  39
ENDBRANCH  26  27
ENDBRANCH   9  26
BRANCH  10  41
ATOM     41  C19 UNL     1      73.817  61.514 108.706  0.00  0.00    +0.000 C 
BRANCH  41  42
ATOM     42  C20 UNL     1      74.993  62.032 109.554  0.00  0.00    +0.000 C 
BRANCH  42  43
ATOM     43  N2  UNL     1      74.539  62.486 110.889  0.00  0.00    +0.000 NA
ATOM     44  C21 UNL     1      74.276  63.955 110.916  0.00  0.00    +0.000 C 
ATOM     45  C22 UNL     1      75.464  64.753 111.489  0.00  0.00    +0.000 C 
ATOM     46  C23 UNL     1      75.218  66.263 111.384  0.00  0.00    +0.000 C 
ATOM     47  C24 UNL     1      75.744  64.330 112.952  0.00  0.00    +0.000 C 
ATOM     48  C25 UNL     1      75.342  62.865 113.237  0.00  0.00    +0.000 C 
ATOM     49  C26 UNL     1      76.180  62.268 114.373  0.00  0.00    +0.000 C 
ATOM     50  C27 UNL     1      75.464  62.013 111.955  0.00  0.00    +0.000 C 
ENDBRANCH  42  43
ENDBRANCH  41  42
ENDBRANCH  10  41
BRANCH  20  51
ATOM     51  C37 UNL     1      71.774  59.296  98.967  0.00  0.00    +0.000 C 
BRANCH  51  52
ATOM     52  O9  UNL     1      70.985  58.179  98.641  0.00  0.00    +0.000 OA
BRANCH  52  53
ATOM     53  C38 UNL     1      70.475  58.265  97.322  0.00  0.00    +0.000 C 
ATOM     54  O10 UNL     1      69.232  58.959  97.333  0.00  0.00    +0.000 OA
ATOM     55  C39 UNL     1      69.380  60.337  97.058  0.00  0.00    +0.000 C 
ATOM     56  C40 UNL     1      68.061  61.047  97.364  0.00  0.00    +0.000 C 
ATOM     57  C41 UNL     1      69.780  60.528  95.576  0.00  0.00    +0.000 C 
ATOM     58  C42 UNL     1      70.932  59.562  95.177  0.00  0.00    +0.000 C 
ATOM     59  C44 UNL     1      71.566  58.886  96.408  0.00  0.00    +0.000 C 
BRANCH  57  60
ATOM     60  O11 UNL     1      70.161  61.869  95.365  0.00  0.00    +0.000 OA
ATOM     61  H69 UNL     1      69.558  62.218  94.660  0.00  0.00    +0.000 HD
ENDBRANCH  57  60
BRANCH  58  62
ATOM     62  O12 UNL     1      70.419  58.553  94.320  0.00  0.00    +0.000 OA
ATOM     63  C43 UNL     1      70.162  59.070  93.031  0.00  0.00    +0.000 C 
ENDBRANCH  58  62
BRANCH  59  64
ATOM     64  O13 UNL     1      72.458  57.857  96.007  0.00  0.00    +0.000 OA
ATOM     65  C45 UNL     1      73.782  58.152  96.404  0.00  0.00    +0.000 C 
ENDBRANCH  59  64
ENDBRANCH  52  53
ENDBRANCH  51  52
ENDBRANCH  20  51
TORSDOF 16
ENDMDL
MODEL 13
REMARK VINA RESULT:      -7.1      4.317     11.863
REMARK  Name = ./S4122.pdb
REMARK  28 active torsions:
REMARK  status: ('A' for Active; 'I' for Inactive)
REMARK    1  A    between atoms: C1_1  and  C2_2
REMARK    2  A    between atoms: C2_2  and  C3_3
REMARK    3  A    between atoms: C6_8  and  O3_9
REMARK    4  A    between atoms: C7_10  and  C8_11
REMARK    5  A    between atoms: C9_12  and  O4_13
REMARK    6  A    between atoms: O4_13  and  C10_14
REMARK    7  A    between atoms: C11_16  and  C12_17
REMARK    8  A    between atoms: C13_18  and  O6_19
REMARK    9  A    between atoms: C14_20  and  N1_23
REMARK   10  A    between atoms: C15_21  and  O7_22
REMARK   11  A    between atoms: N1_23  and  C16_24
REMARK   12  A    between atoms: N1_23  and  C17_25
REMARK   13  A    between atoms: C18_26  and  C19_27
REMARK   14  A    between atoms: C19_27  and  C20_28
REMARK   15  A    between atoms: C20_28  and  N2_29
REMARK   16  A    between atoms: C22_31  and  C23_32
REMARK   17  A    between atoms: C25_34  and  C26_35
REMARK   18  A    between atoms: C29_38  and  C30_39
REMARK   19  A    between atoms: C34_44  and  C46_61
REMARK   20  A    between atoms: C36_46  and  C37_47
REMARK   21  A    between atoms: C37_47  and  O9_48
REMARK   22  A    between atoms: O9_48  and  C38_49
REMARK   23  A    between atoms: C39_51  and  C40_52
REMARK   24  A    between atoms: C41_53  and  O11_54
REMARK   25  A    between atoms: C42_55  and  O12_56
REMARK   26  A    between atoms: O12_56  and  C43_57
REMARK   27  A    between atoms: C44_58  and  O13_59
REMARK   28  A    between atoms: O13_59  and  C45_60
REMARK                            x       y       z     vdW  Elec       q    Type
REMARK                         _______ _______ _______ _____ _____    ______ ____
ROOT
ATOM      1  C3  UNL     1      72.627  62.110 105.266  0.00  0.00    +0.000 C 
ATOM      2  O1  UNL     1      72.520  62.965 106.408  0.00  0.00    +0.000 OA
ATOM      3  C4  UNL     1      71.440  63.801 106.687  0.00  0.00    +0.000 C 
ATOM      4  O2  UNL     1      70.258  63.414 106.498  0.00  0.00    +0.000 OA
ATOM      5  C5  UNL     1      71.744  65.220 107.046  0.00  0.00    +0.000 C 
ATOM      6  C6  UNL     1      71.430  65.645 108.508  0.00  0.00    +0.000 C 
ATOM      7  C7  UNL     1      72.672  66.071 109.358  0.00  0.00    +0.000 C 
ATOM      8  C8  UNL     1      73.494  64.839 109.798  0.00  0.00    +0.000 C 
ATOM      9  C9  UNL     1      73.511  67.233 108.687  0.00  0.00    +0.000 C 
ATOM     10  C18 UNL     1      74.888  67.538 109.373  0.00  0.00    +0.000 C 
ATOM     11  C28 UNL     1      75.845  68.357 108.449  0.00  0.00    +0.000 C 
ATOM     12  C29 UNL     1      76.478  67.658 107.197  0.00  0.00    +0.000 C 
ATOM     13  C30 UNL     1      75.693  67.877 105.889  0.00  0.00    +0.000 C 
ATOM     14  C31 UNL     1      76.881  66.215 107.410  0.00  0.00    +0.000 C 
ATOM     15  O8  UNL     1      77.844  65.948 108.183  0.00  0.00    +0.000 OA
ATOM     16  C32 UNL     1      76.169  65.096 106.781  0.00  0.00    +0.000 C 
ATOM     17  C33 UNL     1      76.626  64.502 105.658  0.00  0.00    +0.000 C 
ATOM     18  C34 UNL     1      75.899  63.398 104.967  0.00  0.00    +0.000 C 
ATOM     19  C35 UNL     1      75.154  62.516 105.686  0.00  0.00    +0.000 C 
ATOM     20  C36 UNL     1      74.077  61.523 105.243  0.00  0.00    +0.000 C 
ATOM     21  C46 UNL     1      76.116  63.282 103.485  0.00  0.00    +0.000 C 
ENDROOT
BRANCH   1  23
ATOM     22  C1  UNL     1      70.956  62.183 103.258  0.00  0.00    +0.000 C 
ATOM     23  C2  UNL     1      72.160  62.827 103.968  0.00  0.00    +0.000 C 
ENDBRANCH   1  23
BRANCH   6  24
ATOM     24  O3  UNL     1      70.692  64.655 109.186  0.00  0.00    +0.000 OA
ATOM     25  H10 UNL     1      70.576  64.971 110.122  0.00  0.00    +0.000 HD
ENDBRANCH   6  24
BRANCH   9  26
ATOM     26  O4  UNL     1      72.703  68.411 108.668  0.00  0.00    +0.000 OA
BRANCH  26  27
ATOM     27  C10 UNL     1      72.253  68.800 107.372  0.00  0.00    +0.000 C 
ATOM     28  O5  UNL     1      73.208  69.683 106.775  0.00  0.00    +0.000 OA
ATOM     29  C11 UNL     1      73.028  71.067 107.077  0.00  0.00    +0.000 C 
ATOM     30  C12 UNL     1      73.351  71.396 108.542  0.00  0.00    +0.000 C 
ATOM     31  C13 UNL     1      71.650  71.627 106.619  0.00  0.00    +0.000 C 
ATOM     32  C14 UNL     1      70.639  70.478 106.368  0.00  0.00    +0.000 C 
ATOM     33  C15 UNL     1      70.812  69.405 107.453  0.00  0.00    +0.000 C 
BRANCH  32  34
ATOM     34  N1  UNL     1      69.210  70.893 106.268  0.00  0.00    +0.000 NA
ATOM     35  C16 UNL     1      68.693  70.860 104.890  0.00  0.00    +0.000 C 
ATOM     36  C17 UNL     1      68.863  72.168 106.930  0.00  0.00    +0.000 C 
ENDBRANCH  32  34
BRANCH  31  37
ATOM     37  O6  UNL     1      71.803  72.364 105.432  0.00  0.00    +0.000 OA
ATOM     38  H22 UNL     1      70.986  72.914 105.327  0.00  0.00    +0.000 HD
ENDBRANCH  31  37
BRANCH  33  39
ATOM     39  O7  UNL     1      69.822  68.416 107.318  0.00  0.00    +0.000 OA
ATOM     40  H25 UNL     1      70.192  67.687 106.756  0.00  0.00    +0.000 HD
ENDBRANCH  33  39
ENDBRANCH  26  27
ENDBRANCH   9  26
BRANCH  10  41
ATOM     41  C19 UNL     1      74.650  68.268 110.736  0.00  0.00    +0.000 C 
BRANCH  41  42
ATOM     42  C20 UNL     1      75.445  67.716 111.933  0.00  0.00    +0.000 C 
BRANCH  42  43
ATOM     43  N2  UNL     1      74.673  66.686 112.666  0.00  0.00    +0.000 NA
ATOM     44  C21 UNL     1      74.286  67.151 114.031  0.00  0.00    +0.000 C 
ATOM     45  C22 UNL     1      75.247  66.634 115.120  0.00  0.00    +0.000 C 
ATOM     46  C23 UNL     1      74.902  67.231 116.491  0.00  0.00    +0.000 C 
ATOM     47  C24 UNL     1      75.236  65.087 115.163  0.00  0.00    +0.000 C 
ATOM     48  C25 UNL     1      74.908  64.455 113.791  0.00  0.00    +0.000 C 
ATOM     49  C26 UNL     1      75.526  63.058 113.659  0.00  0.00    +0.000 C 
ATOM     50  C27 UNL     1      75.380  65.376 112.646  0.00  0.00    +0.000 C 
ENDBRANCH  42  43
ENDBRANCH  41  42
ENDBRANCH  10  41
BRANCH  20  51
ATOM     51  C37 UNL     1      74.409  60.515 104.119  0.00  0.00    +0.000 C 
BRANCH  51  52
ATOM     52  O9  UNL     1      75.506  59.695 104.438  0.00  0.00    +0.000 OA
BRANCH  52  53
ATOM     53  C38 UNL     1      75.109  58.355 104.666  0.00  0.00    +0.000 C 
ATOM     54  O10 UNL     1      74.820  58.169 106.048  0.00  0.00    +0.000 OA
ATOM     55  C39 UNL     1      73.446  58.323 106.338  0.00  0.00    +0.000 C 
ATOM     56  C40 UNL     1      73.265  58.388 107.855  0.00  0.00    +0.000 C 
ATOM     57  C41 UNL     1      72.655  57.138 105.738  0.00  0.00    +0.000 C 
ATOM     58  C42 UNL     1      73.078  56.868 104.266  0.00  0.00    +0.000 C 
ATOM     59  C44 UNL     1      73.943  58.012 103.700  0.00  0.00    +0.000 C 
BRANCH  57  60
ATOM     60  O11 UNL     1      71.274  57.412 105.816  0.00  0.00    +0.000 OA
ATOM     61  H69 UNL     1      70.891  57.143 104.942  0.00  0.00    +0.000 HD
ENDBRANCH  57  60
BRANCH  58  62
ATOM     62  O12 UNL     1      73.826  55.663 104.208  0.00  0.00    +0.000 OA
ATOM     63  C43 UNL     1      73.124  54.668 103.492  0.00  0.00    +0.000 C 
ENDBRANCH  58  62
BRANCH  59  64
ATOM     64  O13 UNL     1      74.491  57.646 102.442  0.00  0.00    +0.000 OA
ATOM     65  C45 UNL     1      73.710  58.157 101.381  0.00  0.00    +0.000 C 
ENDBRANCH  59  64
ENDBRANCH  52  53
ENDBRANCH  51  52
ENDBRANCH  20  51
TORSDOF 16
ENDMDL
MODEL 14
REMARK VINA RESULT:      -7.0      6.724     11.489
REMARK  Name = ./S4122.pdb
REMARK  28 active torsions:
REMARK  status: ('A' for Active; 'I' for Inactive)
REMARK    1  A    between atoms: C1_1  and  C2_2
REMARK    2  A    between atoms: C2_2  and  C3_3
REMARK    3  A    between atoms: C6_8  and  O3_9
REMARK    4  A    between atoms: C7_10  and  C8_11
REMARK    5  A    between atoms: C9_12  and  O4_13
REMARK    6  A    between atoms: O4_13  and  C10_14
REMARK    7  A    between atoms: C11_16  and  C12_17
REMARK    8  A    between atoms: C13_18  and  O6_19
REMARK    9  A    between atoms: C14_20  and  N1_23
REMARK   10  A    between atoms: C15_21  and  O7_22
REMARK   11  A    between atoms: N1_23  and  C16_24
REMARK   12  A    between atoms: N1_23  and  C17_25
REMARK   13  A    between atoms: C18_26  and  C19_27
REMARK   14  A    between atoms: C19_27  and  C20_28
REMARK   15  A    between atoms: C20_28  and  N2_29
REMARK   16  A    between atoms: C22_31  and  C23_32
REMARK   17  A    between atoms: C25_34  and  C26_35
REMARK   18  A    between atoms: C29_38  and  C30_39
REMARK   19  A    between atoms: C34_44  and  C46_61
REMARK   20  A    between atoms: C36_46  and  C37_47
REMARK   21  A    between atoms: C37_47  and  O9_48
REMARK   22  A    between atoms: O9_48  and  C38_49
REMARK   23  A    between atoms: C39_51  and  C40_52
REMARK   24  A    between atoms: C41_53  and  O11_54
REMARK   25  A    between atoms: C42_55  and  O12_56
REMARK   26  A    between atoms: O12_56  and  C43_57
REMARK   27  A    between atoms: C44_58  and  O13_59
REMARK   28  A    between atoms: O13_59  and  C45_60
REMARK                            x       y       z     vdW  Elec       q    Type
REMARK                         _______ _______ _______ _____ _____    ______ ____
ROOT
ATOM      1  C3  UNL     1      73.166  71.749 107.120  0.00  0.00    +0.000 C 
ATOM      2  O1  UNL     1      73.870  70.891 108.023  0.00  0.00    +0.000 OA
ATOM      3  C4  UNL     1      75.205  70.511 107.893  0.00  0.00    +0.000 C 
ATOM      4  O2  UNL     1      76.080  71.339 107.533  0.00  0.00    +0.000 OA
ATOM      5  C5  UNL     1      75.522  69.056 108.026  0.00  0.00    +0.000 C 
ATOM      6  C6  UNL     1      76.350  68.640 109.275  0.00  0.00    +0.000 C 
ATOM      7  C7  UNL     1      75.615  67.686 110.272  0.00  0.00    +0.000 C 
ATOM      8  C8  UNL     1      74.570  68.456 111.110  0.00  0.00    +0.000 C 
ATOM      9  C9  UNL     1      75.081  66.365 109.584  0.00  0.00    +0.000 C 
ATOM     10  C18 UNL     1      74.138  65.486 110.479  0.00  0.00    +0.000 C 
ATOM     11  C28 UNL     1      73.311  64.460 109.641  0.00  0.00    +0.000 C 
ATOM     12  C29 UNL     1      72.159  64.983 108.715  0.00  0.00    +0.000 C 
ATOM     13  C30 UNL     1      72.582  65.215 107.252  0.00  0.00    +0.000 C 
ATOM     14  C31 UNL     1      71.355  66.131 109.288  0.00  0.00    +0.000 C 
ATOM     15  O8  UNL     1      70.609  65.928 110.288  0.00  0.00    +0.000 OA
ATOM     16  C32 UNL     1      71.435  67.495 108.751  0.00  0.00    +0.000 C 
ATOM     17  C33 UNL     1      70.513  67.977 107.891  0.00  0.00    +0.000 C 
ATOM     18  C34 UNL     1      70.594  69.339 107.288  0.00  0.00    +0.000 C 
ATOM     19  C35 UNL     1      71.153  70.363 107.987  0.00  0.00    +0.000 C 
ATOM     20  C36 UNL     1      71.655  71.732 107.525  0.00  0.00    +0.000 C 
ATOM     21  C46 UNL     1      69.955  69.510 105.940  0.00  0.00    +0.000 C 
ENDROOT
BRANCH   1  23
ATOM     22  C1  UNL     1      74.053  72.556 104.797  0.00  0.00    +0.000 C 
ATOM     23  C2  UNL     1      73.480  71.401 105.637  0.00  0.00    +0.000 C 
ENDBRANCH   1  23
BRANCH   6  24
ATOM     24  O3  UNL     1      76.854  69.764 109.957  0.00  0.00    +0.000 OA
ATOM     25  H10 UNL     1      77.754  69.515 110.301  0.00  0.00    +0.000 HD
ENDBRANCH   6  24
BRANCH   9  26
ATOM     26  O4  UNL     1      76.209  65.597 109.163  0.00  0.00    +0.000 OA
BRANCH  26  27
ATOM     27  C10 UNL     1      76.477  65.658 107.764  0.00  0.00    +0.000 C 
ATOM     28  O5  UNL     1      75.631  64.737 107.069  0.00  0.00    +0.000 OA
ATOM     29  C11 UNL     1      76.146  63.411 106.947  0.00  0.00    +0.000 C 
ATOM     30  C12 UNL     1      76.179  62.667 108.290  0.00  0.00    +0.000 C 
ATOM     31  C13 UNL     1      77.498  63.340 106.180  0.00  0.00    +0.000 C 
ATOM     32  C14 UNL     1      78.185  64.730 106.135  0.00  0.00    +0.000 C 
ATOM     33  C15 UNL     1      78.001  65.430 107.490  0.00  0.00    +0.000 C 
BRANCH  32  34
ATOM     34  N1  UNL     1      79.624  64.721 105.743  0.00  0.00    +0.000 NA
ATOM     35  C16 UNL     1      79.835  64.978 104.309  0.00  0.00    +0.000 C 
ATOM     36  C17 UNL     1      80.404  63.547 106.187  0.00  0.00    +0.000 C 
ENDBRANCH  32  34
BRANCH  31  37
ATOM     37  O6  UNL     1      77.280  62.898 104.863  0.00  0.00    +0.000 OA
ATOM     38  H22 UNL     1      77.347  63.695 104.278  0.00  0.00    +0.000 HD
ENDBRANCH  31  37
BRANCH  33  39
ATOM     39  O7  UNL     1      78.722  66.636 107.512  0.00  0.00    +0.000 OA
ATOM     40  H25 UNL     1      78.804  66.927 108.456  0.00  0.00    +0.000 HD
ENDBRANCH  33  39
ENDBRANCH  26  27
ENDBRANCH   9  26
BRANCH  10  41
ATOM     41  C19 UNL     1      74.976  64.771 111.588  0.00  0.00    +0.000 C 
BRANCH  41  42
ATOM     42  C20 UNL     1      74.173  63.892 112.565  0.00  0.00    +0.000 C 
BRANCH  42  43
ATOM     43  N2  UNL     1      74.934  62.682 112.953  0.00  0.00    +0.000 NA
ATOM     44  C21 UNL     1      75.300  62.697 114.400  0.00  0.00    +0.000 C 
ATOM     45  C22 UNL     1      76.741  63.192 114.635  0.00  0.00    +0.000 C 
ATOM     46  C23 UNL     1      77.044  63.320 116.133  0.00  0.00    +0.000 C 
ATOM     47  C24 UNL     1      77.756  62.256 113.935  0.00  0.00    +0.000 C 
ATOM     48  C25 UNL     1      77.167  61.569 112.682  0.00  0.00    +0.000 C 
ATOM     49  C26 UNL     1      78.265  61.220 111.670  0.00  0.00    +0.000 C 
ATOM     50  C27 UNL     1      76.085  62.460 112.036  0.00  0.00    +0.000 C 
ENDBRANCH  42  43
ENDBRANCH  41  42
ENDBRANCH  10  41
BRANCH  20  51
ATOM     51  C37 UNL     1      70.701  72.642 106.717  0.00  0.00    +0.000 C 
BRANCH  51  52
ATOM     52  O9  UNL     1      69.438  72.768 107.322  0.00  0.00    +0.000 OA
BRANCH  52  53
ATOM     53  C38 UNL     1      68.408  72.908 106.359  0.00  0.00    +0.000 C 
ATOM     54  O10 UNL     1      67.251  72.200 106.789  0.00  0.00    +0.000 OA
ATOM     55  C39 UNL     1      66.332  73.029 107.471  0.00  0.00    +0.000 C 
ATOM     56  C40 UNL     1      65.271  72.151 108.135  0.00  0.00    +0.000 C 
ATOM     57  C41 UNL     1      65.686  74.016 106.471  0.00  0.00    +0.000 C 
ATOM     58  C42 UNL     1      66.761  74.683 105.566  0.00  0.00    +0.000 C 
ATOM     59  C44 UNL     1      68.188  74.421 106.085  0.00  0.00    +0.000 C 
BRANCH  57  60
ATOM     60  O11 UNL     1      64.959  74.993 107.183  0.00  0.00    +0.000 OA
ATOM     61  H69 UNL     1      65.037  74.749 108.141  0.00  0.00    +0.000 HD
ENDBRANCH  57  60
BRANCH  58  62
ATOM     62  O12 UNL     1      66.653  74.163 104.250  0.00  0.00    +0.000 OA
ATOM     63  C43 UNL     1      65.619  74.809 103.536  0.00  0.00    +0.000 C 
ENDBRANCH  58  62
BRANCH  59  64
ATOM     64  O13 UNL     1      69.150  74.852 105.133  0.00  0.00    +0.000 OA
ATOM     65  C45 UNL     1      69.655  76.129 105.466  0.00  0.00    +0.000 C 
ENDBRANCH  59  64
ENDBRANCH  52  53
ENDBRANCH  51  52
ENDBRANCH  20  51
TORSDOF 16
ENDMDL
MODEL 15
REMARK VINA RESULT:      -7.0      5.557      9.563
REMARK  Name = ./S4122.pdb
REMARK  28 active torsions:
REMARK  status: ('A' for Active; 'I' for Inactive)
REMARK    1  A    between atoms: C1_1  and  C2_2
REMARK    2  A    between atoms: C2_2  and  C3_3
REMARK    3  A    between atoms: C6_8  and  O3_9
REMARK    4  A    between atoms: C7_10  and  C8_11
REMARK    5  A    between atoms: C9_12  and  O4_13
REMARK    6  A    between atoms: O4_13  and  C10_14
REMARK    7  A    between atoms: C11_16  and  C12_17
REMARK    8  A    between atoms: C13_18  and  O6_19
REMARK    9  A    between atoms: C14_20  and  N1_23
REMARK   10  A    between atoms: C15_21  and  O7_22
REMARK   11  A    between atoms: N1_23  and  C16_24
REMARK   12  A    between atoms: N1_23  and  C17_25
REMARK   13  A    between atoms: C18_26  and  C19_27
REMARK   14  A    between atoms: C19_27  and  C20_28
REMARK   15  A    between atoms: C20_28  and  N2_29
REMARK   16  A    between atoms: C22_31  and  C23_32
REMARK   17  A    between atoms: C25_34  and  C26_35
REMARK   18  A    between atoms: C29_38  and  C30_39
REMARK   19  A    between atoms: C34_44  and  C46_61
REMARK   20  A    between atoms: C36_46  and  C37_47
REMARK   21  A    between atoms: C37_47  and  O9_48
REMARK   22  A    between atoms: O9_48  and  C38_49
REMARK   23  A    between atoms: C39_51  and  C40_52
REMARK   24  A    between atoms: C41_53  and  O11_54
REMARK   25  A    between atoms: C42_55  and  O12_56
REMARK   26  A    between atoms: O12_56  and  C43_57
REMARK   27  A    between atoms: C44_58  and  O13_59
REMARK   28  A    between atoms: O13_59  and  C45_60
REMARK                            x       y       z     vdW  Elec       q    Type
REMARK                         _______ _______ _______ _____ _____    ______ ____
ROOT
ATOM      1  C3  UNL     1      71.956  69.746 105.666  0.00  0.00    +0.000 C 
ATOM      2  O1  UNL     1      71.580  68.435 106.100  0.00  0.00    +0.000 OA
ATOM      3  C4  UNL     1      71.093  68.119 107.367  0.00  0.00    +0.000 C 
ATOM      4  O2  UNL     1      70.266  68.868 107.947  0.00  0.00    +0.000 OA
ATOM      5  C5  UNL     1      71.719  66.960 108.075  0.00  0.00    +0.000 C 
ATOM      6  C6  UNL     1      70.818  65.710 108.286  0.00  0.00    +0.000 C 
ATOM      7  C7  UNL     1      71.299  64.414 107.556  0.00  0.00    +0.000 C 
ATOM      8  C8  UNL     1      71.001  64.484 106.042  0.00  0.00    +0.000 C 
ATOM      9  C9  UNL     1      72.783  64.009 107.930  0.00  0.00    +0.000 C 
ATOM     10  C18 UNL     1      73.396  62.858 107.056  0.00  0.00    +0.000 C 
ATOM     11  C28 UNL     1      74.953  62.797 107.162  0.00  0.00    +0.000 C 
ATOM     12  C29 UNL     1      75.807  63.931 106.498  0.00  0.00    +0.000 C 
ATOM     13  C30 UNL     1      76.196  65.072 107.458  0.00  0.00    +0.000 C 
ATOM     14  C31 UNL     1      75.279  64.430 105.170  0.00  0.00    +0.000 C 
ATOM     15  O8  UNL     1      75.310  63.667 104.164  0.00  0.00    +0.000 OA
ATOM     16  C32 UNL     1      74.690  65.765 105.008  0.00  0.00    +0.000 C 
ATOM     17  C33 UNL     1      75.399  66.801 104.511  0.00  0.00    +0.000 C 
ATOM     18  C34 UNL     1      74.845  68.181 104.381  0.00  0.00    +0.000 C 
ATOM     19  C35 UNL     1      73.521  68.363 104.128  0.00  0.00    +0.000 C 
ATOM     20  C36 UNL     1      72.641  69.607 104.266  0.00  0.00    +0.000 C 
ATOM     21  C46 UNL     1      75.836  69.306 104.457  0.00  0.00    +0.000 C 
ENDROOT
BRANCH   1  23
ATOM     22  C1  UNL     1      72.162  71.828 107.231  0.00  0.00    +0.000 C 
ATOM     23  C2  UNL     1      72.772  70.499 106.753  0.00  0.00    +0.000 C 
ENDBRANCH   1  23
BRANCH   6  24
ATOM     24  O3  UNL     1      69.475  65.983 107.962  0.00  0.00    +0.000 OA
ATOM     25  H10 UNL     1      69.225  65.365 107.223  0.00  0.00    +0.000 HD
ENDBRANCH   6  24
BRANCH   9  26
ATOM     26  O4  UNL     1      72.809  63.641 109.310  0.00  0.00    +0.000 OA
BRANCH  26  27
ATOM     27  C10 UNL     1      73.413  64.606 110.168  0.00  0.00    +0.000 C 
ATOM     28  O5  UNL     1      74.825  64.378 110.232  0.00  0.00    +0.000 OA
ATOM     29  C11 UNL     1      75.247  63.455 111.236  0.00  0.00    +0.000 C 
ATOM     30  C12 UNL     1      74.833  62.011 110.920  0.00  0.00    +0.000 C 
ATOM     31  C13 UNL     1      74.865  63.894 112.680  0.00  0.00    +0.000 C 
ATOM     32  C14 UNL     1      73.742  64.963 112.657  0.00  0.00    +0.000 C 
ATOM     33  C15 UNL     1      72.719  64.600 111.571  0.00  0.00    +0.000 C 
BRANCH  32  34
ATOM     34  N1  UNL     1      73.057  65.201 113.961  0.00  0.00    +0.000 NA
ATOM     35  C16 UNL     1      73.521  66.420 114.644  0.00  0.00    +0.000 C 
ATOM     36  C17 UNL     1      73.030  64.053 114.891  0.00  0.00    +0.000 C 
ENDBRANCH  32  34
BRANCH  31  37
ATOM     37  O6  UNL     1      75.990  64.431 113.331  0.00  0.00    +0.000 OA
ATOM     38  H22 UNL     1      76.342  63.723 113.928  0.00  0.00    +0.000 HD
ENDBRANCH  31  37
BRANCH  33  39
ATOM     39  O7  UNL     1      71.629  65.486 111.617  0.00  0.00    +0.000 OA
ATOM     40  H25 UNL     1      70.802  64.965 111.454  0.00  0.00    +0.000 HD
ENDBRANCH  33  39
ENDBRANCH  26  27
ENDBRANCH   9  26
BRANCH  10  41
ATOM     41  C19 UNL     1      72.745  61.492 107.449  0.00  0.00    +0.000 C 
BRANCH  41  42
ATOM     42  C20 UNL     1      73.284  60.259 106.700  0.00  0.00    +0.000 C 
BRANCH  42  43
ATOM     43  N2  UNL     1      72.519  60.003 105.458  0.00  0.00    +0.000 NA
ATOM     44  C21 UNL     1      73.417  59.667 104.313  0.00  0.00    +0.000 C 
ATOM     45  C22 UNL     1      73.702  60.886 103.414  0.00  0.00    +0.000 C 
ATOM     46  C23 UNL     1      74.726  60.542 102.326  0.00  0.00    +0.000 C 
ATOM     47  C24 UNL     1      72.387  61.423 102.798  0.00  0.00    +0.000 C 
ATOM     48  C25 UNL     1      71.156  61.155 103.693  0.00  0.00    +0.000 C 
ATOM     49  C26 UNL     1      70.058  62.199 103.458  0.00  0.00    +0.000 C 
ATOM     50  C27 UNL     1      71.568  61.114 105.180  0.00  0.00    +0.000 C 
ENDBRANCH  42  43
ENDBRANCH  41  42
ENDBRANCH  10  41
BRANCH  20  51
ATOM     51  C37 UNL     1      73.081  70.913 103.566  0.00  0.00    +0.000 C 
BRANCH  51  52
ATOM     52  O9  UNL     1      72.417  71.119 102.344  0.00  0.00    +0.000 OA
BRANCH  52  53
ATOM     53  C38 UNL     1      71.483  72.181 102.427  0.00  0.00    +0.000 C 
ATOM     54  O10 UNL     1      70.160  71.665 102.326  0.00  0.00    +0.000 OA
ATOM     55  C39 UNL     1      69.573  71.431 103.590  0.00  0.00    +0.000 C 
ATOM     56  C40 UNL     1      68.287  70.628 103.397  0.00  0.00    +0.000 C 
ATOM     57  C41 UNL     1      69.281  72.783 104.282  0.00  0.00    +0.000 C 
ATOM     58  C42 UNL     1      70.509  73.735 104.197  0.00  0.00    +0.000 C 
ATOM     59  C44 UNL     1      71.773  72.995 103.717  0.00  0.00    +0.000 C 
BRANCH  57  60
ATOM     60  O11 UNL     1      68.924  72.552 105.627  0.00  0.00    +0.000 OA
ATOM     61  H69 UNL     1      68.123  71.968 105.601  0.00  0.00    +0.000 HD
ENDBRANCH  57  60
BRANCH  58  62
ATOM     62  O12 UNL     1      70.223  74.785 103.285  0.00  0.00    +0.000 OA
ATOM     63  C43 UNL     1      69.886  75.971 103.973  0.00  0.00    +0.000 C 
ENDBRANCH  58  62
BRANCH  59  64
ATOM     64  O13 UNL     1      72.815  73.920 103.442  0.00  0.00    +0.000 OA
ATOM     65  C45 UNL     1      73.395  74.399 104.639  0.00  0.00    +0.000 C 
ENDBRANCH  59  64
ENDBRANCH  52  53
ENDBRANCH  51  52
ENDBRANCH  20  51
TORSDOF 16
ENDMDL
MODEL 16
REMARK VINA RESULT:      -7.0      6.094     10.986
REMARK  Name = ./S4122.pdb
REMARK  28 active torsions:
REMARK  status: ('A' for Active; 'I' for Inactive)
REMARK    1  A    between atoms: C1_1  and  C2_2
REMARK    2  A    between atoms: C2_2  and  C3_3
REMARK    3  A    between atoms: C6_8  and  O3_9
REMARK    4  A    between atoms: C7_10  and  C8_11
REMARK    5  A    between atoms: C9_12  and  O4_13
REMARK    6  A    between atoms: O4_13  and  C10_14
REMARK    7  A    between atoms: C11_16  and  C12_17
REMARK    8  A    between atoms: C13_18  and  O6_19
REMARK    9  A    between atoms: C14_20  and  N1_23
REMARK   10  A    between atoms: C15_21  and  O7_22
REMARK   11  A    between atoms: N1_23  and  C16_24
REMARK   12  A    between atoms: N1_23  and  C17_25
REMARK   13  A    between atoms: C18_26  and  C19_27
REMARK   14  A    between atoms: C19_27  and  C20_28
REMARK   15  A    between atoms: C20_28  and  N2_29
REMARK   16  A    between atoms: C22_31  and  C23_32
REMARK   17  A    between atoms: C25_34  and  C26_35
REMARK   18  A    between atoms: C29_38  and  C30_39
REMARK   19  A    between atoms: C34_44  and  C46_61
REMARK   20  A    between atoms: C36_46  and  C37_47
REMARK   21  A    between atoms: C37_47  and  O9_48
REMARK   22  A    between atoms: O9_48  and  C38_49
REMARK   23  A    between atoms: C39_51  and  C40_52
REMARK   24  A    between atoms: C41_53  and  O11_54
REMARK   25  A    between atoms: C42_55  and  O12_56
REMARK   26  A    between atoms: O12_56  and  C43_57
REMARK   27  A    between atoms: C44_58  and  O13_59
REMARK   28  A    between atoms: O13_59  and  C45_60
REMARK                            x       y       z     vdW  Elec       q    Type
REMARK                         _______ _______ _______ _____ _____    ______ ____
ROOT
ATOM      1  C3  UNL     1      73.381  71.581 107.476  0.00  0.00    +0.000 C 
ATOM      2  O1  UNL     1      74.040  70.628 108.315  0.00  0.00    +0.000 OA
ATOM      3  C4  UNL     1      75.354  70.191 108.156  0.00  0.00    +0.000 C 
ATOM      4  O2  UNL     1      76.270  70.996 107.851  0.00  0.00    +0.000 OA
ATOM      5  C5  UNL     1      75.596  68.716 108.187  0.00  0.00    +0.000 C 
ATOM      6  C6  UNL     1      76.401  68.172 109.401  0.00  0.00    +0.000 C 
ATOM      7  C7  UNL     1      75.618  67.191 110.332  0.00  0.00    +0.000 C 
ATOM      8  C8  UNL     1      74.613  67.954 111.225  0.00  0.00    +0.000 C 
ATOM      9  C9  UNL     1      75.017  65.949 109.557  0.00  0.00    +0.000 C 
ATOM     10  C18 UNL     1      74.030  65.060 110.392  0.00  0.00    +0.000 C 
ATOM     11  C28 UNL     1      73.152  64.138 109.488  0.00  0.00    +0.000 C 
ATOM     12  C29 UNL     1      72.028  64.782 108.604  0.00  0.00    +0.000 C 
ATOM     13  C30 UNL     1      72.463  65.093 107.159  0.00  0.00    +0.000 C 
ATOM     14  C31 UNL     1      71.284  65.927 109.257  0.00  0.00    +0.000 C 
ATOM     15  O8  UNL     1      70.529  65.694 110.243  0.00  0.00    +0.000 OA
ATOM     16  C32 UNL     1      71.434  67.319 108.815  0.00  0.00    +0.000 C 
ATOM     17  C33 UNL     1      70.538  67.906 107.994  0.00  0.00    +0.000 C 
ATOM     18  C34 UNL     1      70.689  69.301 107.486  0.00  0.00    +0.000 C 
ATOM     19  C35 UNL     1      71.300  70.243 108.252  0.00  0.00    +0.000 C 
ATOM     20  C36 UNL     1      71.871  71.614 107.884  0.00  0.00    +0.000 C 
ATOM     21  C46 UNL     1      70.060  69.597 106.155  0.00  0.00    +0.000 C 
ENDROOT
BRANCH   1  23
ATOM     22  C1  UNL     1      74.311  72.500 105.213  0.00  0.00    +0.000 C 
ATOM     23  C2  UNL     1      73.677  71.321 105.972  0.00  0.00    +0.000 C 
ENDBRANCH   1  23
BRANCH   6  24
ATOM     24  O3  UNL     1      76.962  69.220 110.157  0.00  0.00    +0.000 OA
ATOM     25  H10 UNL     1      76.259  69.918 110.250  0.00  0.00    +0.000 HD
ENDBRANCH   6  24
BRANCH   9  26
ATOM     26  O4  UNL     1      76.105  65.156 109.080  0.00  0.00    +0.000 OA
BRANCH  26  27
ATOM     27  C10 UNL     1      76.443  65.376 107.712  0.00  0.00    +0.000 C 
ATOM     28  O5  UNL     1      75.549  64.642 106.869  0.00  0.00    +0.000 OA
ATOM     29  C11 UNL     1      75.945  63.300 106.585  0.00  0.00    +0.000 C 
ATOM     30  C12 UNL     1      75.847  62.385 107.814  0.00  0.00    +0.000 C 
ATOM     31  C13 UNL     1      77.320  63.201 105.862  0.00  0.00    +0.000 C 
ATOM     32  C14 UNL     1      78.133  64.511 106.031  0.00  0.00    +0.000 C 
ATOM     33  C15 UNL     1      77.950  65.039 107.462  0.00  0.00    +0.000 C 
BRANCH  32  34
ATOM     34  N1  UNL     1      79.582  64.414 105.690  0.00  0.00    +0.000 NA
ATOM     35  C16 UNL     1      79.888  64.879 104.328  0.00  0.00    +0.000 C 
ATOM     36  C17 UNL     1      80.219  63.108 105.958  0.00  0.00    +0.000 C 
ENDBRANCH  32  34
BRANCH  31  37
ATOM     37  O6  UNL     1      77.124  62.962 104.490  0.00  0.00    +0.000 OA
ATOM     38  H22 UNL     1      76.193  62.642 104.384  0.00  0.00    +0.000 HD
ENDBRANCH  31  37
BRANCH  33  39
ATOM     39  O7  UNL     1      78.777  66.156 107.673  0.00  0.00    +0.000 OA
ATOM     40  H25 UNL     1      78.608  66.806 106.943  0.00  0.00    +0.000 HD
ENDBRANCH  33  39
ENDBRANCH  26  27
ENDBRANCH   9  26
BRANCH  10  41
ATOM     41  C19 UNL     1      74.830  64.229 111.446  0.00  0.00    +0.000 C 
BRANCH  41  42
ATOM     42  C20 UNL     1      74.089  63.936 112.764  0.00  0.00    +0.000 C 
BRANCH  42  43
ATOM     43  N2  UNL     1      74.869  64.393 113.937  0.00  0.00    +0.000 NA
ATOM     44  C21 UNL     1      74.338  63.826 115.212  0.00  0.00    +0.000 C 
ATOM     45  C22 UNL     1      73.408  64.809 115.948  0.00  0.00    +0.000 C 
ATOM     46  C23 UNL     1      72.777  64.153 117.183  0.00  0.00    +0.000 C 
ATOM     47  C24 UNL     1      74.175  66.099 116.328  0.00  0.00    +0.000 C 
ATOM     48  C25 UNL     1      75.328  66.416 115.350  0.00  0.00    +0.000 C 
ATOM     49  C26 UNL     1      75.623  67.920 115.305  0.00  0.00    +0.000 C 
ATOM     50  C27 UNL     1      75.006  65.876 113.940  0.00  0.00    +0.000 C 
ENDBRANCH  42  43
ENDBRANCH  41  42
ENDBRANCH  10  41
BRANCH  20  51
ATOM     51  C37 UNL     1      70.965  72.625 107.144  0.00  0.00    +0.000 C 
BRANCH  51  52
ATOM     52  O9  UNL     1      71.111  73.935 107.633  0.00  0.00    +0.000 OA
BRANCH  52  53
ATOM     53  C38 UNL     1      71.120  73.967 109.050  0.00  0.00    +0.000 C 
ATOM     54  O10 UNL     1      72.356  74.503 109.510  0.00  0.00    +0.000 OA
ATOM     55  C39 UNL     1      72.281  75.891 109.765  0.00  0.00    +0.000 C 
ATOM     56  C40 UNL     1      73.695  76.431 109.978  0.00  0.00    +0.000 C 
ATOM     57  C41 UNL     1      71.401  76.140 111.012  0.00  0.00    +0.000 C 
ATOM     58  C42 UNL     1      70.078  75.325 110.937  0.00  0.00    +0.000 C 
ATOM     59  C44 UNL     1      69.854  74.724 109.536  0.00  0.00    +0.000 C 
BRANCH  57  60
ATOM     60  O11 UNL     1      71.129  77.520 111.123  0.00  0.00    +0.000 OA
ATOM     61  H69 UNL     1      71.912  77.986 110.732  0.00  0.00    +0.000 HD
ENDBRANCH  57  60
BRANCH  58  62
ATOM     62  O12 UNL     1      70.127  74.268 111.883  0.00  0.00    +0.000 OA
ATOM     63  C43 UNL     1      70.910  74.628 113.002  0.00  0.00    +0.000 C 
ENDBRANCH  58  62
BRANCH  59  64
ATOM     64  O13 UNL     1      68.763  73.815 109.554  0.00  0.00    +0.000 OA
ATOM     65  C45 UNL     1      67.723  74.256 108.704  0.00  0.00    +0.000 C 
ENDBRANCH  59  64
ENDBRANCH  52  53
ENDBRANCH  51  52
ENDBRANCH  20  51
TORSDOF 16
ENDMDL
MODEL 17
REMARK VINA RESULT:      -6.9      2.487      3.782
REMARK  Name = ./S4122.pdb
REMARK  28 active torsions:
REMARK  status: ('A' for Active; 'I' for Inactive)
REMARK    1  A    between atoms: C1_1  and  C2_2
REMARK    2  A    between atoms: C2_2  and  C3_3
REMARK    3  A    between atoms: C6_8  and  O3_9
REMARK    4  A    between atoms: C7_10  and  C8_11
REMARK    5  A    between atoms: C9_12  and  O4_13
REMARK    6  A    between atoms: O4_13  and  C10_14
REMARK    7  A    between atoms: C11_16  and  C12_17
REMARK    8  A    between atoms: C13_18  and  O6_19
REMARK    9  A    between atoms: C14_20  and  N1_23
REMARK   10  A    between atoms: C15_21  and  O7_22
REMARK   11  A    between atoms: N1_23  and  C16_24
REMARK   12  A    between atoms: N1_23  and  C17_25
REMARK   13  A    between atoms: C18_26  and  C19_27
REMARK   14  A    between atoms: C19_27  and  C20_28
REMARK   15  A    between atoms: C20_28  and  N2_29
REMARK   16  A    between atoms: C22_31  and  C23_32
REMARK   17  A    between atoms: C25_34  and  C26_35
REMARK   18  A    between atoms: C29_38  and  C30_39
REMARK   19  A    between atoms: C34_44  and  C46_61
REMARK   20  A    between atoms: C36_46  and  C37_47
REMARK   21  A    between atoms: C37_47  and  O9_48
REMARK   22  A    between atoms: O9_48  and  C38_49
REMARK   23  A    between atoms: C39_51  and  C40_52
REMARK   24  A    between atoms: C41_53  and  O11_54
REMARK   25  A    between atoms: C42_55  and  O12_56
REMARK   26  A    between atoms: O12_56  and  C43_57
REMARK   27  A    between atoms: C44_58  and  O13_59
REMARK   28  A    between atoms: O13_59  and  C45_60
REMARK                            x       y       z     vdW  Elec       q    Type
REMARK                         _______ _______ _______ _____ _____    ______ ____
ROOT
ATOM      1  C3  UNL     1      74.652  62.920 107.307  0.00  0.00    +0.000 C 
ATOM      2  O1  UNL     1      74.100  62.336 106.124  0.00  0.00    +0.000 OA
ATOM      3  C4  UNL     1      73.635  61.026 106.017  0.00  0.00    +0.000 C 
ATOM      4  O2  UNL     1      72.967  60.500 106.943  0.00  0.00    +0.000 OA
ATOM      5  C5  UNL     1      74.108  60.222 104.848  0.00  0.00    +0.000 C 
ATOM      6  C6  UNL     1      73.036  59.848 103.787  0.00  0.00    +0.000 C 
ATOM      7  C7  UNL     1      73.269  60.453 102.364  0.00  0.00    +0.000 C 
ATOM      8  C8  UNL     1      72.908  61.955 102.331  0.00  0.00    +0.000 C 
ATOM      9  C9  UNL     1      74.689  60.091 101.764  0.00  0.00    +0.000 C 
ATOM     10  C18 UNL     1      75.068  60.860 100.450  0.00  0.00    +0.000 C 
ATOM     11  C28 UNL     1      76.599  60.803 100.149  0.00  0.00    +0.000 C 
ATOM     12  C29 UNL     1      77.585  61.614 101.060  0.00  0.00    +0.000 C 
ATOM     13  C30 UNL     1      78.197  60.794 102.213  0.00  0.00    +0.000 C 
ATOM     14  C31 UNL     1      77.073  62.967 101.504  0.00  0.00    +0.000 C 
ATOM     15  O8  UNL     1      76.932  63.887 100.649  0.00  0.00    +0.000 OA
ATOM     16  C32 UNL     1      76.692  63.250 102.893  0.00  0.00    +0.000 C 
ATOM     17  C33 UNL     1      77.528  63.879 103.747  0.00  0.00    +0.000 C 
ATOM     18  C34 UNL     1      77.190  64.133 105.178  0.00  0.00    +0.000 C 
ATOM     19  C35 UNL     1      75.900  64.357 105.546  0.00  0.00    +0.000 C 
ATOM     20  C36 UNL     1      75.233  64.321 106.922  0.00  0.00    +0.000 C 
ATOM     21  C46 UNL     1      78.348  64.213 106.132  0.00  0.00    +0.000 C 
ENDROOT
BRANCH   1  23
ATOM     22  C1  UNL     1      75.282  61.621 109.486  0.00  0.00    +0.000 C 
ATOM     23  C2  UNL     1      75.631  61.948 108.023  0.00  0.00    +0.000 C 
ENDBRANCH   1  23
BRANCH   6  24
ATOM     24  O3  UNL     1      71.736  60.151 104.238  0.00  0.00    +0.000 OA
ATOM     25  H10 UNL     1      71.760  61.085 104.582  0.00  0.00    +0.000 HD
ENDBRANCH   6  24
BRANCH   9  26
ATOM     26  O4  UNL     1      74.728  58.682 101.536  0.00  0.00    +0.000 OA
BRANCH  26  27
ATOM     27  C10 UNL     1      75.662  57.976 102.350  0.00  0.00    +0.000 C 
ATOM     28  O5  UNL     1      76.898  57.823 101.645  0.00  0.00    +0.000 OA
ATOM     29  C11 UNL     1      76.986  56.663 100.818  0.00  0.00    +0.000 C 
ATOM     30  C12 UNL     1      76.072  56.747  99.587  0.00  0.00    +0.000 C 
ATOM     31  C13 UNL     1      76.826  55.329 101.604  0.00  0.00    +0.000 C 
ATOM     32  C14 UNL     1      76.162  55.573 102.984  0.00  0.00    +0.000 C 
ATOM     33  C15 UNL     1      75.049  56.620 102.833  0.00  0.00    +0.000 C 
BRANCH  32  34
ATOM     34  N1  UNL     1      75.644  54.354 103.670  0.00  0.00    +0.000 NA
ATOM     35  C16 UNL     1      76.552  53.844 104.710  0.00  0.00    +0.000 C 
ATOM     36  C17 UNL     1      75.191  53.262 102.784  0.00  0.00    +0.000 C 
ENDBRANCH  32  34
BRANCH  31  37
ATOM     37  O6  UNL     1      78.085  54.736 101.804  0.00  0.00    +0.000 OA
ATOM     38  H22 UNL     1      78.452  54.530 100.907  0.00  0.00    +0.000 HD
ENDBRANCH  31  37
BRANCH  33  39
ATOM     39  O7  UNL     1      74.353  56.763 104.045  0.00  0.00    +0.000 OA
ATOM     40  H25 UNL     1      75.020  56.846 104.774  0.00  0.00    +0.000 HD
ENDBRANCH  33  39
ENDBRANCH  26  27
ENDBRANCH   9  26
BRANCH  10  41
ATOM     41  C19 UNL     1      74.232  60.301  99.252  0.00  0.00    +0.000 C 
BRANCH  41  42
ATOM     42  C20 UNL     1      73.061  61.188  98.788  0.00  0.00    +0.000 C 
BRANCH  42  43
ATOM     43  N2  UNL     1      71.808  60.407  98.664  0.00  0.00    +0.000 NA
ATOM     44  C21 UNL     1      71.387  60.257  97.240  0.00  0.00    +0.000 C 
ATOM     45  C22 UNL     1      70.316  61.289  96.834  0.00  0.00    +0.000 C 
ATOM     46  C23 UNL     1      69.998  61.196  95.336  0.00  0.00    +0.000 C 
ATOM     47  C24 UNL     1      69.039  61.109  97.692  0.00  0.00    +0.000 C 
ATOM     48  C25 UNL     1      69.339  60.535  99.094  0.00  0.00    +0.000 C 
ATOM     49  C26 UNL     1      68.278  60.969 100.113  0.00  0.00    +0.000 C 
ATOM     50  C27 UNL     1      70.751  60.953  99.558  0.00  0.00    +0.000 C 
ENDBRANCH  42  43
ENDBRANCH  41  42
ENDBRANCH  10  41
BRANCH  20  51
ATOM     51  C37 UNL     1      75.835  65.170 108.065  0.00  0.00    +0.000 C 
BRANCH  51  52
ATOM     52  O9  UNL     1      74.870  65.964 108.710  0.00  0.00    +0.000 OA
BRANCH  52  53
ATOM     53  C38 UNL     1      73.580  65.770 108.159  0.00  0.00    +0.000 C 
ATOM     54  O10 UNL     1      72.789  64.992 109.052  0.00  0.00    +0.000 OA
ATOM     55  C39 UNL     1      71.992  65.791 109.903  0.00  0.00    +0.000 C 
ATOM     56  C40 UNL     1      71.400  64.905 111.000  0.00  0.00    +0.000 C 
ATOM     57  C41 UNL     1      70.874  66.469 109.078  0.00  0.00    +0.000 C 
ATOM     58  C42 UNL     1      71.444  67.107 107.779  0.00  0.00    +0.000 C 
ATOM     59  C44 UNL     1      72.984  67.157 107.793  0.00  0.00    +0.000 C 
BRANCH  57  60
ATOM     60  O11 UNL     1      70.235  67.444 109.871  0.00  0.00    +0.000 OA
ATOM     61  H69 UNL     1      70.761  68.277 109.760  0.00  0.00    +0.000 HD
ENDBRANCH  57  60
BRANCH  58  62
ATOM     62  O12 UNL     1      71.024  66.341 106.660  0.00  0.00    +0.000 OA
ATOM     63  C43 UNL     1      70.158  65.300 107.058  0.00  0.00    +0.000 C 
ENDBRANCH  58  62
BRANCH  59  64
ATOM     64  O13 UNL     1      73.481  67.540 106.519  0.00  0.00    +0.000 OA
ATOM     65  C45 UNL     1      74.020  68.846 106.557  0.00  0.00    +0.000 C 
ENDBRANCH  59  64
ENDBRANCH  52  53
ENDBRANCH  51  52
ENDBRANCH  20  51
TORSDOF 16
ENDMDL
MODEL 18
REMARK VINA RESULT:      -6.9      5.677      9.701
REMARK  Name = ./S4122.pdb
REMARK  28 active torsions:
REMARK  status: ('A' for Active; 'I' for Inactive)
REMARK    1  A    between atoms: C1_1  and  C2_2
REMARK    2  A    between atoms: C2_2  and  C3_3
REMARK    3  A    between atoms: C6_8  and  O3_9
REMARK    4  A    between atoms: C7_10  and  C8_11
REMARK    5  A    between atoms: C9_12  and  O4_13
REMARK    6  A    between atoms: O4_13  and  C10_14
REMARK    7  A    between atoms: C11_16  and  C12_17
REMARK    8  A    between atoms: C13_18  and  O6_19
REMARK    9  A    between atoms: C14_20  and  N1_23
REMARK   10  A    between atoms: C15_21  and  O7_22
REMARK   11  A    between atoms: N1_23  and  C16_24
REMARK   12  A    between atoms: N1_23  and  C17_25
REMARK   13  A    between atoms: C18_26  and  C19_27
REMARK   14  A    between atoms: C19_27  and  C20_28
REMARK   15  A    between atoms: C20_28  and  N2_29
REMARK   16  A    between atoms: C22_31  and  C23_32
REMARK   17  A    between atoms: C25_34  and  C26_35
REMARK   18  A    between atoms: C29_38  and  C30_39
REMARK   19  A    between atoms: C34_44  and  C46_61
REMARK   20  A    between atoms: C36_46  and  C37_47
REMARK   21  A    between atoms: C37_47  and  O9_48
REMARK   22  A    between atoms: O9_48  and  C38_49
REMARK   23  A    between atoms: C39_51  and  C40_52
REMARK   24  A    between atoms: C41_53  and  O11_54
REMARK   25  A    between atoms: C42_55  and  O12_56
REMARK   26  A    between atoms: O12_56  and  C43_57
REMARK   27  A    between atoms: C44_58  and  O13_59
REMARK   28  A    between atoms: O13_59  and  C45_60
REMARK                            x       y       z     vdW  Elec       q    Type
REMARK                         _______ _______ _______ _____ _____    ______ ____
ROOT
ATOM      1  C3  UNL     1      71.806  69.588 105.659  0.00  0.00    +0.000 C 
ATOM      2  O1  UNL     1      71.912  68.171 105.826  0.00  0.00    +0.000 OA
ATOM      3  C4  UNL     1      71.349  67.442 106.872  0.00  0.00    +0.000 C 
ATOM      4  O2  UNL     1      70.191  67.701 107.291  0.00  0.00    +0.000 OA
ATOM      5  C5  UNL     1      72.232  66.469 107.586  0.00  0.00    +0.000 C 
ATOM      6  C6  UNL     1      71.890  64.963 107.405  0.00  0.00    +0.000 C 
ATOM      7  C7  UNL     1      72.990  64.113 106.689  0.00  0.00    +0.000 C 
ATOM      8  C8  UNL     1      73.001  64.385 105.168  0.00  0.00    +0.000 C 
ATOM      9  C9  UNL     1      74.402  64.206 107.398  0.00  0.00    +0.000 C 
ATOM     10  C18 UNL     1      75.589  63.567 106.596  0.00  0.00    +0.000 C 
ATOM     11  C28 UNL     1      76.982  64.054 107.107  0.00  0.00    +0.000 C 
ATOM     12  C29 UNL     1      77.421  65.534 106.829  0.00  0.00    +0.000 C 
ATOM     13  C30 UNL     1      77.114  66.510 107.980  0.00  0.00    +0.000 C 
ATOM     14  C31 UNL     1      77.017  66.072 105.473  0.00  0.00    +0.000 C 
ATOM     15  O8  UNL     1      77.555  65.600 104.432  0.00  0.00    +0.000 OA
ATOM     16  C32 UNL     1      75.985  67.104 105.311  0.00  0.00    +0.000 C 
ATOM     17  C33 UNL     1      76.300  68.406 105.142  0.00  0.00    +0.000 C 
ATOM     18  C34 UNL     1      75.275  69.485 105.026  0.00  0.00    +0.000 C 
ATOM     19  C35 UNL     1      74.071  69.222 104.451  0.00  0.00    +0.000 C 
ATOM     20  C36 UNL     1      72.756  70.003 104.487  0.00  0.00    +0.000 C 
ATOM     21  C46 UNL     1      75.690  70.851 105.491  0.00  0.00    +0.000 C 
ENDROOT
BRANCH   1  23
ATOM     22  C1  UNL     1      70.789  71.127 107.510  0.00  0.00    +0.000 C 
ATOM     23  C2  UNL     1      72.011  70.340 107.004  0.00  0.00    +0.000 C 
ENDBRANCH   1  23
BRANCH   6  24
ATOM     24  O3  UNL     1      70.647  64.790 106.766  0.00  0.00    +0.000 OA
ATOM     25  H10 UNL     1      70.682  63.914 106.296  0.00  0.00    +0.000 HD
ENDBRANCH   6  24
BRANCH   9  26
ATOM     26  O4  UNL     1      74.294  63.593 108.684  0.00  0.00    +0.000 OA
BRANCH  26  27
ATOM     27  C10 UNL     1      74.632  64.446 109.776  0.00  0.00    +0.000 C 
ATOM     28  O5  UNL     1      75.964  64.163 110.215  0.00  0.00    +0.000 OA
ATOM     29  C11 UNL     1      76.075  63.131 111.195  0.00  0.00    +0.000 C 
ATOM     30  C12 UNL     1      75.762  61.740 110.623  0.00  0.00    +0.000 C 
ATOM     31  C13 UNL     1      75.297  63.437 112.507  0.00  0.00    +0.000 C 
ATOM     32  C14 UNL     1      74.233  64.542 112.278  0.00  0.00    +0.000 C 
ATOM     33  C15 UNL     1      73.564  64.325 110.913  0.00  0.00    +0.000 C 
BRANCH  32  34
ATOM     34  N1  UNL     1      73.203  64.673 113.350  0.00  0.00    +0.000 NA
ATOM     35  C16 UNL     1      73.360  65.893 114.157  0.00  0.00    +0.000 C 
ATOM     36  C17 UNL     1      73.023  63.489 114.215  0.00  0.00    +0.000 C 
ENDBRANCH  32  34
BRANCH  31  37
ATOM     37  O6  UNL     1      76.189  63.866 113.506  0.00  0.00    +0.000 OA
ATOM     38  H22 UNL     1      77.104  63.678 113.174  0.00  0.00    +0.000 HD
ENDBRANCH  31  37
BRANCH  33  39
ATOM     39  O7  UNL     1      72.511  65.240 110.740  0.00  0.00    +0.000 OA
ATOM     40  H25 UNL     1      71.761  64.765 110.298  0.00  0.00    +0.000 HD
ENDBRANCH  33  39
ENDBRANCH  26  27
ENDBRANCH   9  26
BRANCH  10  41
ATOM     41  C19 UNL     1      75.480  62.008 106.643  0.00  0.00    +0.000 C 
BRANCH  41  42
ATOM     42  C20 UNL     1      75.122  61.326 105.309  0.00  0.00    +0.000 C 
BRANCH  42  43
ATOM     43  N2  UNL     1      74.207  60.180 105.516  0.00  0.00    +0.000 NA
ATOM     44  C21 UNL     1      72.853  60.441 104.945  0.00  0.00    +0.000 C 
ATOM     45  C22 UNL     1      71.849  60.922 106.012  0.00  0.00    +0.000 C 
ATOM     46  C23 UNL     1      70.507  61.305 105.375  0.00  0.00    +0.000 C 
ATOM     47  C24 UNL     1      71.664  59.842 107.106  0.00  0.00    +0.000 C 
ATOM     48  C25 UNL     1      72.920  58.963 107.294  0.00  0.00    +0.000 C 
ATOM     49  C26 UNL     1      73.000  58.402 108.719  0.00  0.00    +0.000 C 
ATOM     50  C27 UNL     1      74.196  59.760 106.944  0.00  0.00    +0.000 C 
ENDBRANCH  42  43
ENDBRANCH  41  42
ENDBRANCH  10  41
BRANCH  20  51
ATOM     51  C37 UNL     1      72.763  71.495 104.083  0.00  0.00    +0.000 C 
BRANCH  51  52
ATOM     52  O9  UNL     1      72.184  71.713 102.820  0.00  0.00    +0.000 OA
BRANCH  52  53
ATOM     53  C38 UNL     1      71.050  72.558 102.903  0.00  0.00    +0.000 C 
ATOM     54  O10 UNL     1      69.886  71.838 102.511  0.00  0.00    +0.000 OA
ATOM     55  C39 UNL     1      69.197  71.285 103.614  0.00  0.00    +0.000 C 
ATOM     56  C40 UNL     1      68.140  70.309 103.097  0.00  0.00    +0.000 C 
ATOM     57  C41 UNL     1      68.545  72.420 104.437  0.00  0.00    +0.000 C 
ATOM     58  C42 UNL     1      69.552  73.577 104.695  0.00  0.00    +0.000 C 
ATOM     59  C44 UNL     1      70.993  73.174 104.327  0.00  0.00    +0.000 C 
BRANCH  57  60
ATOM     60  O11 UNL     1      68.067  71.897 105.657  0.00  0.00    +0.000 OA
ATOM     61  H69 UNL     1      67.370  72.527 105.972  0.00  0.00    +0.000 HD
ENDBRANCH  57  60
BRANCH  58  62
ATOM     62  O12 UNL     1      69.182  74.702 103.911  0.00  0.00    +0.000 OA
ATOM     63  C43 UNL     1      68.302  75.545 104.624  0.00  0.00    +0.000 C 
ENDBRANCH  58  62
BRANCH  59  64
ATOM     64  O13 UNL     1      71.851  74.305 104.365  0.00  0.00    +0.000 OA
ATOM     65  C45 UNL     1      72.099  74.708 105.697  0.00  0.00    +0.000 C 
ENDBRANCH  59  64
ENDBRANCH  52  53
ENDBRANCH  51  52
ENDBRANCH  20  51
TORSDOF 16
ENDMDL
MODEL 19
REMARK VINA RESULT:      -6.8      3.767     12.635
REMARK  Name = ./S4122.pdb
REMARK  28 active torsions:
REMARK  status: ('A' for Active; 'I' for Inactive)
REMARK    1  A    between atoms: C1_1  and  C2_2
REMARK    2  A    between atoms: C2_2  and  C3_3
REMARK    3  A    between atoms: C6_8  and  O3_9
REMARK    4  A    between atoms: C7_10  and  C8_11
REMARK    5  A    between atoms: C9_12  and  O4_13
REMARK    6  A    between atoms: O4_13  and  C10_14
REMARK    7  A    between atoms: C11_16  and  C12_17
REMARK    8  A    between atoms: C13_18  and  O6_19
REMARK    9  A    between atoms: C14_20  and  N1_23
REMARK   10  A    between atoms: C15_21  and  O7_22
REMARK   11  A    between atoms: N1_23  and  C16_24
REMARK   12  A    between atoms: N1_23  and  C17_25
REMARK   13  A    between atoms: C18_26  and  C19_27
REMARK   14  A    between atoms: C19_27  and  C20_28
REMARK   15  A    between atoms: C20_28  and  N2_29
REMARK   16  A    between atoms: C22_31  and  C23_32
REMARK   17  A    between atoms: C25_34  and  C26_35
REMARK   18  A    between atoms: C29_38  and  C30_39
REMARK   19  A    between atoms: C34_44  and  C46_61
REMARK   20  A    between atoms: C36_46  and  C37_47
REMARK   21  A    between atoms: C37_47  and  O9_48
REMARK   22  A    between atoms: O9_48  and  C38_49
REMARK   23  A    between atoms: C39_51  and  C40_52
REMARK   24  A    between atoms: C41_53  and  O11_54
REMARK   25  A    between atoms: C42_55  and  O12_56
REMARK   26  A    between atoms: O12_56  and  C43_57
REMARK   27  A    between atoms: C44_58  and  O13_59
REMARK   28  A    between atoms: O13_59  and  C45_60
REMARK                            x       y       z     vdW  Elec       q    Type
REMARK                         _______ _______ _______ _____ _____    ______ ____
ROOT
ATOM      1  C3  UNL     1      72.117  60.731 101.732  0.00  0.00    +0.000 C 
ATOM      2  O1  UNL     1      72.337  60.844 103.141  0.00  0.00    +0.000 OA
ATOM      3  C4  UNL     1      71.498  61.509 104.033  0.00  0.00    +0.000 C 
ATOM      4  O2  UNL     1      70.247  61.414 103.938  0.00  0.00    +0.000 OA
ATOM      5  C5  UNL     1      72.132  62.471 104.987  0.00  0.00    +0.000 C 
ATOM      6  C6  UNL     1      72.103  62.074 106.490  0.00  0.00    +0.000 C 
ATOM      7  C7  UNL     1      73.505  61.841 107.142  0.00  0.00    +0.000 C 
ATOM      8  C8  UNL     1      74.104  60.486 106.704  0.00  0.00    +0.000 C 
ATOM      9  C9  UNL     1      74.472  63.084 106.990  0.00  0.00    +0.000 C 
ATOM     10  C18 UNL     1      75.960  62.822 107.415  0.00  0.00    +0.000 C 
ATOM     11  C28 UNL     1      76.938  63.901 106.852  0.00  0.00    +0.000 C 
ATOM     12  C29 UNL     1      77.247  63.922 105.315  0.00  0.00    +0.000 C 
ATOM     13  C30 UNL     1      76.363  64.892 104.507  0.00  0.00    +0.000 C 
ATOM     14  C31 UNL     1      77.367  62.557 104.672  0.00  0.00    +0.000 C 
ATOM     15  O8  UNL     1      78.345  61.815 104.971  0.00  0.00    +0.000 OA
ATOM     16  C32 UNL     1      76.364  62.035 103.736  0.00  0.00    +0.000 C 
ATOM     17  C33 UNL     1      76.540  62.092 102.398  0.00  0.00    +0.000 C 
ATOM     18  C34 UNL     1      75.518  61.618 101.421  0.00  0.00    +0.000 C 
ATOM     19  C35 UNL     1      74.706  60.574 101.735  0.00  0.00    +0.000 C 
ATOM     20  C36 UNL     1      73.399  60.097 101.098  0.00  0.00    +0.000 C 
ATOM     21  C46 UNL     1      75.514  62.294 100.080  0.00  0.00    +0.000 C 
ENDROOT
BRANCH   1  23
ATOM     22  C1  UNL     1      70.206  62.084 100.570  0.00  0.00    +0.000 C 
ATOM     23  C2  UNL     1      71.645  62.078 101.116  0.00  0.00    +0.000 C 
ENDBRANCH   1  23
BRANCH   6  24
ATOM     24  O3  UNL     1      71.270  60.961 106.713  0.00  0.00    +0.000 OA
ATOM     25  H10 UNL     1      70.337  61.257 106.533  0.00  0.00    +0.000 HD
ENDBRANCH   6  24
BRANCH   9  26
ATOM     26  O4  UNL     1      73.930  64.165 107.748  0.00  0.00    +0.000 OA
BRANCH  26  27
ATOM     27  C10 UNL     1      73.645  65.337 106.988  0.00  0.00    +0.000 C 
ATOM     28  O5  UNL     1      74.688  66.300 107.177  0.00  0.00    +0.000 OA
ATOM     29  C11 UNL     1      74.512  67.175 108.292  0.00  0.00    +0.000 C 
ATOM     30  C12 UNL     1      74.671  66.451 109.637  0.00  0.00    +0.000 C 
ATOM     31  C13 UNL     1      73.214  68.028 108.211  0.00  0.00    +0.000 C 
ATOM     32  C14 UNL     1      72.207  67.414 107.203  0.00  0.00    +0.000 C 
ATOM     33  C15 UNL     1      72.222  65.885 107.340  0.00  0.00    +0.000 C 
BRANCH  32  34
ATOM     34  N1  UNL     1      70.811  67.933 107.296  0.00  0.00    +0.000 NA
ATOM     35  C16 UNL     1      70.552  69.063 106.389  0.00  0.00    +0.000 C 
ATOM     36  C17 UNL     1      70.325  68.230 108.659  0.00  0.00    +0.000 C 
ENDBRANCH  32  34
BRANCH  31  37
ATOM     37  O6  UNL     1      73.524  69.337 107.802  0.00  0.00    +0.000 OA
ATOM     38  H22 UNL     1      73.508  69.341 106.811  0.00  0.00    +0.000 HD
ENDBRANCH  31  37
BRANCH  33  39
ATOM     39  O7  UNL     1      71.228  65.317 106.525  0.00  0.00    +0.000 OA
ATOM     40  H25 UNL     1      71.453  65.519 105.581  0.00  0.00    +0.000 HD
ENDBRANCH  33  39
ENDBRANCH  26  27
ENDBRANCH   9  26
BRANCH  10  41
ATOM     41  C19 UNL     1      76.054  62.726 108.973  0.00  0.00    +0.000 C 
BRANCH  41  42
ATOM     42  C20 UNL     1      77.402  63.152 109.584  0.00  0.00    +0.000 C 
BRANCH  42  43
ATOM     43  N2  UNL     1      77.244  63.588 110.991  0.00  0.00    +0.000 NA
ATOM     44  C21 UNL     1      78.080  62.772 111.922  0.00  0.00    +0.000 C 
ATOM     45  C22 UNL     1      77.274  61.646 112.598  0.00  0.00    +0.000 C 
ATOM     46  C23 UNL     1      78.183  60.747 113.445  0.00  0.00    +0.000 C 
ATOM     47  C24 UNL     1      76.122  62.238 113.446  0.00  0.00    +0.000 C 
ATOM     48  C25 UNL     1      75.612  63.590 112.898  0.00  0.00    +0.000 C 
ATOM     49  C26 UNL     1      74.145  63.827 113.275  0.00  0.00    +0.000 C 
ATOM     50  C27 UNL     1      75.806  63.660 111.368  0.00  0.00    +0.000 C 
ENDBRANCH  42  43
ENDBRANCH  41  42
ENDBRANCH  10  41
BRANCH  20  51
ATOM     51  C37 UNL     1      73.368  59.822  99.576  0.00  0.00    +0.000 C 
BRANCH  51  52
ATOM     52  O9  UNL     1      72.075  59.528  99.109  0.00  0.00    +0.000 OA
BRANCH  52  53
ATOM     53  C38 UNL     1      72.021  59.510  97.694  0.00  0.00    +0.000 C 
ATOM     54  O10 UNL     1      72.775  58.409  97.199  0.00  0.00    +0.000 OA
ATOM     55  C39 UNL     1      71.972  57.271  96.957  0.00  0.00    +0.000 C 
ATOM     56  C40 UNL     1      72.883  56.069  96.703  0.00  0.00    +0.000 C 
ATOM     57  C41 UNL     1      71.054  57.535  95.741  0.00  0.00    +0.000 C 
ATOM     58  C42 UNL     1      70.361  58.923  95.852  0.00  0.00    +0.000 C 
ATOM     59  C44 UNL     1      70.532  59.538  97.255  0.00  0.00    +0.000 C 
BRANCH  57  60
ATOM     60  O11 UNL     1      70.094  56.506  95.650  0.00  0.00    +0.000 OA
ATOM     61  H69 UNL     1      69.796  56.492  94.705  0.00  0.00    +0.000 HD
ENDBRANCH  57  60
BRANCH  58  62
ATOM     62  O12 UNL     1      70.930  59.806  94.897  0.00  0.00    +0.000 OA
ATOM     63  C43 UNL     1      70.259  59.708  93.658  0.00  0.00    +0.000 C 
ENDBRANCH  58  62
BRANCH  59  64
ATOM     64  O13 UNL     1      70.083  60.885  97.265  0.00  0.00    +0.000 OA
ATOM     65  C45 UNL     1      68.675  60.948  97.371  0.00  0.00    +0.000 C 
ENDBRANCH  59  64
ENDBRANCH  52  53
ENDBRANCH  51  52
ENDBRANCH  20  51
TORSDOF 16
ENDMDL
MODEL 20
REMARK VINA RESULT:      -6.8      2.961      6.290
REMARK  Name = ./S4122.pdb
REMARK  28 active torsions:
REMARK  status: ('A' for Active; 'I' for Inactive)
REMARK    1  A    between atoms: C1_1  and  C2_2
REMARK    2  A    between atoms: C2_2  and  C3_3
REMARK    3  A    between atoms: C6_8  and  O3_9
REMARK    4  A    between atoms: C7_10  and  C8_11
REMARK    5  A    between atoms: C9_12  and  O4_13
REMARK    6  A    between atoms: O4_13  and  C10_14
REMARK    7  A    between atoms: C11_16  and  C12_17
REMARK    8  A    between atoms: C13_18  and  O6_19
REMARK    9  A    between atoms: C14_20  and  N1_23
REMARK   10  A    between atoms: C15_21  and  O7_22
REMARK   11  A    between atoms: N1_23  and  C16_24
REMARK   12  A    between atoms: N1_23  and  C17_25
REMARK   13  A    between atoms: C18_26  and  C19_27
REMARK   14  A    between atoms: C19_27  and  C20_28
REMARK   15  A    between atoms: C20_28  and  N2_29
REMARK   16  A    between atoms: C22_31  and  C23_32
REMARK   17  A    between atoms: C25_34  and  C26_35
REMARK   18  A    between atoms: C29_38  and  C30_39
REMARK   19  A    between atoms: C34_44  and  C46_61
REMARK   20  A    between atoms: C36_46  and  C37_47
REMARK   21  A    between atoms: C37_47  and  O9_48
REMARK   22  A    between atoms: O9_48  and  C38_49
REMARK   23  A    between atoms: C39_51  and  C40_52
REMARK   24  A    between atoms: C41_53  and  O11_54
REMARK   25  A    between atoms: C42_55  and  O12_56
REMARK   26  A    between atoms: O12_56  and  C43_57
REMARK   27  A    between atoms: C44_58  and  O13_59
REMARK   28  A    between atoms: O13_59  and  C45_60
REMARK                            x       y       z     vdW  Elec       q    Type
REMARK                         _______ _______ _______ _____ _____    ______ ____
ROOT
ATOM      1  C3  UNL     1      72.763  62.983 105.753  0.00  0.00    +0.000 C 
ATOM      2  O1  UNL     1      73.397  62.554 104.544  0.00  0.00    +0.000 OA
ATOM      3  C4  UNL     1      72.806  62.561 103.282  0.00  0.00    +0.000 C 
ATOM      4  O2  UNL     1      72.086  63.523 102.911  0.00  0.00    +0.000 OA
ATOM      5  C5  UNL     1      72.914  61.313 102.466  0.00  0.00    +0.000 C 
ATOM      6  C6  UNL     1      73.789  61.399 101.184  0.00  0.00    +0.000 C 
ATOM      7  C7  UNL     1      75.054  60.480 101.179  0.00  0.00    +0.000 C 
ATOM      8  C8  UNL     1      76.165  61.058 102.085  0.00  0.00    +0.000 C 
ATOM      9  C9  UNL     1      74.711  58.955 101.428  0.00  0.00    +0.000 C 
ATOM     10  C18 UNL     1      75.954  58.027 101.667  0.00  0.00    +0.000 C 
ATOM     11  C28 UNL     1      75.561  56.666 102.323  0.00  0.00    +0.000 C 
ATOM     12  C29 UNL     1      75.098  56.647 103.821  0.00  0.00    +0.000 C 
ATOM     13  C30 UNL     1      73.571  56.711 104.009  0.00  0.00    +0.000 C 
ATOM     14  C31 UNL     1      75.846  57.599 104.729  0.00  0.00    +0.000 C 
ATOM     15  O8  UNL     1      77.064  57.382 104.988  0.00  0.00    +0.000 OA
ATOM     16  C32 UNL     1      75.222  58.800 105.298  0.00  0.00    +0.000 C 
ATOM     17  C33 UNL     1      74.737  58.822 106.558  0.00  0.00    +0.000 C 
ATOM     18  C34 UNL     1      74.052  60.009 107.147  0.00  0.00    +0.000 C 
ATOM     19  C35 UNL     1      74.417  61.264 106.771  0.00  0.00    +0.000 C 
ATOM     20  C36 UNL     1      73.704  62.606 106.946  0.00  0.00    +0.000 C 
ATOM     21  C46 UNL     1      73.031  59.729 108.213  0.00  0.00    +0.000 C 
ENDROOT
BRANCH   1  23
ATOM     22  C1  UNL     1      70.237  63.548 106.113  0.00  0.00    +0.000 C 
ATOM     23  C2  UNL     1      71.300  62.467 105.848  0.00  0.00    +0.000 C 
ENDBRANCH   1  23
BRANCH   6  24
ATOM     24  O3  UNL     1      74.151  62.729 100.896  0.00  0.00    +0.000 OA
ATOM     25  H10 UNL     1      74.779  62.698 100.125  0.00  0.00    +0.000 HD
ENDBRANCH   6  24
BRANCH   9  26
ATOM     26  O4  UNL     1      73.955  58.483 100.313  0.00  0.00    +0.000 OA
BRANCH  26  27
ATOM     27  C10 UNL     1      72.544  58.465 100.519  0.00  0.00    +0.000 C 
ATOM     28  O5  UNL     1      72.174  57.272 101.218  0.00  0.00    +0.000 OA
ATOM     29  C11 UNL     1      71.905  56.141 100.390  0.00  0.00    +0.000 C 
ATOM     30  C12 UNL     1      73.172  55.587  99.722  0.00  0.00    +0.000 C 
ATOM     31  C13 UNL     1      70.740  56.372  99.384  0.00  0.00    +0.000 C 
ATOM     32  C14 UNL     1      70.459  57.886  99.199  0.00  0.00    +0.000 C 
ATOM     33  C15 UNL     1      71.791  58.648  99.160  0.00  0.00    +0.000 C 
BRANCH  32  34
ATOM     34  N1  UNL     1      69.619  58.241  98.018  0.00  0.00    +0.000 NA
ATOM     35  C16 UNL     1      68.199  58.433  98.354  0.00  0.00    +0.000 C 
ATOM     36  C17 UNL     1      69.767  57.365  96.837  0.00  0.00    +0.000 C 
ENDBRANCH  32  34
BRANCH  31  37
ATOM     37  O6  UNL     1      69.571  55.746  99.852  0.00  0.00    +0.000 OA
ATOM     38  H22 UNL     1      69.420  56.073 100.775  0.00  0.00    +0.000 HD
ENDBRANCH  31  37
BRANCH  33  39
ATOM     39  O7  UNL     1      71.564  60.004  98.867  0.00  0.00    +0.000 OA
ATOM     40  H25 UNL     1      71.245  60.447  99.695  0.00  0.00    +0.000 HD
ENDBRANCH  33  39
ENDBRANCH  26  27
ENDBRANCH   9  26
BRANCH  10  41
ATOM     41  C19 UNL     1      76.718  57.810 100.319  0.00  0.00    +0.000 C 
BRANCH  41  42
ATOM     42  C20 UNL     1      76.991  56.343  99.940  0.00  0.00    +0.000 C 
BRANCH  42  43
ATOM     43  N2  UNL     1      77.103  56.177  98.472  0.00  0.00    +0.000 NA
ATOM     44  C21 UNL     1      76.467  57.309  97.735  0.00  0.00    +0.000 C 
ATOM     45  C22 UNL     1      75.038  56.971  97.264  0.00  0.00    +0.000 C 
ATOM     46  C23 UNL     1      74.364  58.192  96.626  0.00  0.00    +0.000 C 
ATOM     47  C24 UNL     1      75.060  55.768  96.289  0.00  0.00    +0.000 C 
ATOM     48  C25 UNL     1      76.237  54.804  96.558  0.00  0.00    +0.000 C 
ATOM     49  C26 UNL     1      75.904  53.378  96.104  0.00  0.00    +0.000 C 
ATOM     50  C27 UNL     1      76.627  54.831  98.051  0.00  0.00    +0.000 C 
ENDBRANCH  42  43
ENDBRANCH  41  42
ENDBRANCH  10  41
BRANCH  20  51
ATOM     51  C37 UNL     1      73.248  63.030 108.361  0.00  0.00    +0.000 C 
BRANCH  51  52
ATOM     52  O9  UNL     1      72.806  64.364 108.406  0.00  0.00    +0.000 OA
BRANCH  52  53
ATOM     53  C38 UNL     1      73.400  65.077 109.476  0.00  0.00    +0.000 C 
ATOM     54  O10 UNL     1      74.809  64.870 109.467  0.00  0.00    +0.000 OA
ATOM     55  C39 UNL     1      75.500  65.893 108.779  0.00  0.00    +0.000 C 
ATOM     56  C40 UNL     1      76.951  65.456 108.574  0.00  0.00    +0.000 C 
ATOM     57  C41 UNL     1      75.428  67.204 109.596  0.00  0.00    +0.000 C 
ATOM     58  C42 UNL     1      73.977  67.484 110.082  0.00  0.00    +0.000 C 
ATOM     59  C44 UNL     1      72.954  66.562 109.390  0.00  0.00    +0.000 C 
BRANCH  57  60
ATOM     60  O11 UNL     1      75.903  68.272 108.807  0.00  0.00    +0.000 OA
ATOM     61  H69 UNL     1      76.535  68.777 109.380  0.00  0.00    +0.000 HD
ENDBRANCH  57  60
BRANCH  58  62
ATOM     62  O12 UNL     1      73.905  67.272 111.483  0.00  0.00    +0.000 OA
ATOM     63  C43 UNL     1      75.112  67.648 112.113  0.00  0.00    +0.000 C 
ENDBRANCH  58  62
BRANCH  59  64
ATOM     64  O13 UNL     1      71.679  66.687 110.002  0.00  0.00    +0.000 OA
ATOM     65  C45 UNL     1      70.745  67.266 109.113  0.00  0.00    +0.000 C 
ENDBRANCH  59  64
ENDBRANCH  52  53
ENDBRANCH  51  52
ENDBRANCH  20  51
TORSDOF 16
ENDMDL
