MODEL 1
REMARK VINA RESULT:      -7.2      0.000      0.000
REMARK  Name = ./S4147.pdb
REMARK  26 active torsions:
REMARK  status: ('A' for Active; 'I' for Inactive)
REMARK    1  A    between atoms: C1_1  and  C2_2
REMARK    2  A    between atoms: C2_2  and  C3_3
REMARK    3  A    between atoms: C5_7  and  C6_8
REMARK    4  A    between atoms: C7_9  and  O3_10
REMARK    5  A    between atoms: O3_10  and  C8_11
REMARK    6  A    between atoms: C10_13  and  C11_14
REMARK    7  A    between atoms: C10_13  and  O4_15
REMARK    8  A    between atoms: O4_15  and  C12_16
REMARK    9  A    between atoms: C13_17  and  O5_18
REMARK   10  A    between atoms: C14_19  and  C15_20
REMARK   11  A    between atoms: C16_22  and  C17_23
REMARK   12  A    between atoms: C18_24  and  O7_25
REMARK   13  A    between atoms: O7_25  and  C19_26
REMARK   14  A    between atoms: C20_28  and  C21_29
REMARK   15  A    between atoms: C23_31  and  N1_34
REMARK   16  A    between atoms: C24_32  and  O9_33
REMARK   17  A    between atoms: N1_34  and  C25_35
REMARK   18  A    between atoms: N1_34  and  C26_36
REMARK   19  A    between atoms: C27_37  and  C28_38
REMARK   20  A    between atoms: C27_37  and  O10_39
REMARK   21  A    between atoms: C30_41  and  C31_42
REMARK   22  A    between atoms: N2_44  and  C33_45
REMARK   23  A    between atoms: C34_46  and  C35_47
REMARK   24  A    between atoms: C36_48  and  O11_49
REMARK   25  A    between atoms: C37_50  and  C38_51
REMARK   26  A    between atoms: C37_50  and  O12_52
REMARK                            x       y       z     vdW  Elec       q    Type
REMARK                         _______ _______ _______ _____ _____    ______ ____
ROOT
ATOM      1  C3  UNL     1      73.228  65.411 112.044  0.00  0.00    +0.000 C 
ATOM      2  O1  UNL     1      72.932  66.538 111.196  0.00  0.00    +0.000 OA
ATOM      3  C4  UNL     1      72.243  66.458 109.971  0.00  0.00    +0.000 C 
ATOM      4  O2  UNL     1      71.038  66.097 109.959  0.00  0.00    +0.000 OA
ATOM      5  C5  UNL     1      72.980  66.838 108.692  0.00  0.00    +0.000 C 
ATOM      6  C6  UNL     1      73.530  68.265 108.865  0.00  0.00    +0.000 C 
ATOM      7  C7  UNL     1      72.195  66.747 107.335  0.00  0.00    +0.000 C 
ATOM      8  C16 UNL     1      72.047  65.327 106.673  0.00  0.00    +0.000 C 
ATOM      9  C17 UNL     1      71.381  64.271 107.570  0.00  0.00    +0.000 C 
ATOM     10  C18 UNL     1      73.222  64.818 105.730  0.00  0.00    +0.000 C 
ATOM     11  C27 UNL     1      74.703  64.719 106.273  0.00  0.00    +0.000 C 
ATOM     12  C28 UNL     1      75.644  64.317 105.106  0.00  0.00    +0.000 C 
ATOM     13  C29 UNL     1      74.834  63.742 107.502  0.00  0.00    +0.000 C 
ATOM     14  C30 UNL     1      75.605  62.390 107.416  0.00  0.00    +0.000 C 
ATOM     15  C31 UNL     1      74.804  61.300 106.673  0.00  0.00    +0.000 C 
ATOM     16  C32 UNL     1      76.115  61.924 108.829  0.00  0.00    +0.000 C 
ATOM     17  N2  UNL     1      75.087  61.943 109.919  0.00  0.00    +0.000 NA
ATOM     18  C33 UNL     1      74.198  60.763 109.836  0.00  0.00    +0.000 C 
ATOM     19  C34 UNL     1      75.573  62.117 111.340  0.00  0.00    +0.000 C 
ATOM     20  C35 UNL     1      77.104  62.281 111.518  0.00  0.00    +0.000 C 
ATOM     21  C36 UNL     1      74.704  63.183 112.131  0.00  0.00    +0.000 C 
ATOM     22  C37 UNL     1      74.323  64.510 111.353  0.00  0.00    +0.000 C 
ATOM     23  C38 UNL     1      75.578  65.356 111.021  0.00  0.00    +0.000 C 
ENDROOT
BRANCH   1  25
ATOM     24  C1  UNL     1      74.374  67.257 113.373  0.00  0.00    +0.000 C 
ATOM     25  C2  UNL     1      73.617  65.932 113.446  0.00  0.00    +0.000 C 
ENDBRANCH   1  25
BRANCH  11  26
ATOM     26  O10 UNL     1      75.125  65.998 106.697  0.00  0.00    +0.000 OA
ATOM     27  H51 UNL     1      74.468  66.361 107.347  0.00  0.00    +0.000 HD
ENDBRANCH  11  26
BRANCH  21  28
ATOM     28  O11 UNL     1      75.241  63.422 113.409  0.00  0.00    +0.000 OA
ATOM     29  H68 UNL     1      74.631  63.035 114.084  0.00  0.00    +0.000 HD
ENDBRANCH  21  28
BRANCH  22  30
ATOM     30  O12 UNL     1      73.754  64.120 110.141  0.00  0.00    +0.000 OA
ATOM     31  H72 UNL     1      73.040  63.455 110.337  0.00  0.00    +0.000 HD
ENDBRANCH  22  30
BRANCH   7  32
ATOM     32  O3  UNL     1      70.914  67.343 107.523  0.00  0.00    +0.000 OA
BRANCH  32  33
ATOM     33  C8  UNL     1      70.615  68.360 106.572  0.00  0.00    +0.000 C 
ATOM     34  C9  UNL     1      71.805  68.478 105.595  0.00  0.00    +0.000 C 
ATOM     35  C10 UNL     1      71.974  69.904 104.985  0.00  0.00    +0.000 C 
ATOM     36  C11 UNL     1      72.974  70.753 105.828  0.00  0.00    +0.000 C 
ATOM     37  C13 UNL     1      70.583  70.594 104.980  0.00  0.00    +0.000 C 
ATOM     38  C14 UNL     1      69.953  70.621 106.408  0.00  0.00    +0.000 C 
ATOM     39  C15 UNL     1      68.419  70.636 106.367  0.00  0.00    +0.000 C 
ATOM     40  O6  UNL     1      70.421  69.583 107.265  0.00  0.00    +0.000 OA
BRANCH  35  41
ATOM     41  O4  UNL     1      72.377  69.821 103.618  0.00  0.00    +0.000 OA
ATOM     42  C12 UNL     1      73.772  69.664 103.439  0.00  0.00    +0.000 C 
ENDBRANCH  35  41
BRANCH  37  43
ATOM     43  O5  UNL     1      70.694  71.898 104.465  0.00  0.00    +0.000 OA
ATOM     44  H22 UNL     1      71.250  71.839 103.645  0.00  0.00    +0.000 HD
ENDBRANCH  37  43
ENDBRANCH  32  33
ENDBRANCH   7  32
BRANCH  10  45
ATOM     45  O7  UNL     1      72.862  63.564 105.159  0.00  0.00    +0.000 OA
BRANCH  45  46
ATOM     46  C19 UNL     1      72.113  63.700 103.956  0.00  0.00    +0.000 C 
ATOM     47  O8  UNL     1      70.733  63.442 104.222  0.00  0.00    +0.000 OA
ATOM     48  C20 UNL     1      70.322  62.092 104.040  0.00  0.00    +0.000 C 
ATOM     49  C21 UNL     1      70.871  61.174 105.144  0.00  0.00    +0.000 C 
ATOM     50  C22 UNL     1      70.586  61.555 102.604  0.00  0.00    +0.000 C 
ATOM     51  C23 UNL     1      71.633  62.411 101.856  0.00  0.00    +0.000 C 
ATOM     52  C24 UNL     1      72.738  62.823 102.841  0.00  0.00    +0.000 C 
BRANCH  51  53
ATOM     53  N1  UNL     1      72.194  61.782 100.630  0.00  0.00    +0.000 NA
ATOM     54  C25 UNL     1      71.329  61.994  99.457  0.00  0.00    +0.000 C 
ATOM     55  C26 UNL     1      72.555  60.359 100.756  0.00  0.00    +0.000 C 
ENDBRANCH  51  53
BRANCH  52  56
ATOM     56  O9  UNL     1      73.787  63.503 102.192  0.00  0.00    +0.000 OA
ATOM     57  H41 UNL     1      74.267  64.047 102.873  0.00  0.00    +0.000 HD
ENDBRANCH  52  56
ENDBRANCH  45  46
ENDBRANCH  10  45
TORSDOF 12
ENDMDL
MODEL 2
REMARK VINA RESULT:      -6.8      3.312      8.060
REMARK  Name = ./S4147.pdb
REMARK  26 active torsions:
REMARK  status: ('A' for Active; 'I' for Inactive)
REMARK    1  A    between atoms: C1_1  and  C2_2
REMARK    2  A    between atoms: C2_2  and  C3_3
REMARK    3  A    between atoms: C5_7  and  C6_8
REMARK    4  A    between atoms: C7_9  and  O3_10
REMARK    5  A    between atoms: O3_10  and  C8_11
REMARK    6  A    between atoms: C10_13  and  C11_14
REMARK    7  A    between atoms: C10_13  and  O4_15
REMARK    8  A    between atoms: O4_15  and  C12_16
REMARK    9  A    between atoms: C13_17  and  O5_18
REMARK   10  A    between atoms: C14_19  and  C15_20
REMARK   11  A    between atoms: C16_22  and  C17_23
REMARK   12  A    between atoms: C18_24  and  O7_25
REMARK   13  A    between atoms: O7_25  and  C19_26
REMARK   14  A    between atoms: C20_28  and  C21_29
REMARK   15  A    between atoms: C23_31  and  N1_34
REMARK   16  A    between atoms: C24_32  and  O9_33
REMARK   17  A    between atoms: N1_34  and  C25_35
REMARK   18  A    between atoms: N1_34  and  C26_36
REMARK   19  A    between atoms: C27_37  and  C28_38
REMARK   20  A    between atoms: C27_37  and  O10_39
REMARK   21  A    between atoms: C30_41  and  C31_42
REMARK   22  A    between atoms: N2_44  and  C33_45
REMARK   23  A    between atoms: C34_46  and  C35_47
REMARK   24  A    between atoms: C36_48  and  O11_49
REMARK   25  A    between atoms: C37_50  and  C38_51
REMARK   26  A    between atoms: C37_50  and  O12_52
REMARK                            x       y       z     vdW  Elec       q    Type
REMARK                         _______ _______ _______ _____ _____    ______ ____
ROOT
ATOM      1  C3  UNL     1      72.492  60.295 107.115  0.00  0.00    +0.000 C 
ATOM      2  O1  UNL     1      73.145  60.774 108.307  0.00  0.00    +0.000 OA
ATOM      3  C4  UNL     1      73.414  62.128 108.584  0.00  0.00    +0.000 C 
ATOM      4  O2  UNL     1      72.458  62.929 108.751  0.00  0.00    +0.000 OA
ATOM      5  C5  UNL     1      74.866  62.576 108.694  0.00  0.00    +0.000 C 
ATOM      6  C6  UNL     1      75.555  61.702 109.757  0.00  0.00    +0.000 C 
ATOM      7  C7  UNL     1      75.148  64.090 109.007  0.00  0.00    +0.000 C 
ATOM      8  C16 UNL     1      75.062  65.108 107.812  0.00  0.00    +0.000 C 
ATOM      9  C17 UNL     1      73.711  65.117 107.076  0.00  0.00    +0.000 C 
ATOM     10  C18 UNL     1      76.358  65.318 106.915  0.00  0.00    +0.000 C 
ATOM     11  C27 UNL     1      77.040  64.093 106.188  0.00  0.00    +0.000 C 
ATOM     12  C28 UNL     1      78.343  64.575 105.497  0.00  0.00    +0.000 C 
ATOM     13  C29 UNL     1      76.069  63.370 105.179  0.00  0.00    +0.000 C 
ATOM     14  C30 UNL     1      76.289  63.407 103.636  0.00  0.00    +0.000 C 
ATOM     15  C31 UNL     1      75.882  64.759 103.013  0.00  0.00    +0.000 C 
ATOM     16  C32 UNL     1      75.616  62.174 102.927  0.00  0.00    +0.000 C 
ATOM     17  N2  UNL     1      74.190  61.916 103.309  0.00  0.00    +0.000 NA
ATOM     18  C33 UNL     1      73.273  62.839 102.605  0.00  0.00    +0.000 C 
ATOM     19  C34 UNL     1      73.677  60.498 103.191  0.00  0.00    +0.000 C 
ATOM     20  C35 UNL     1      74.704  59.445 102.701  0.00  0.00    +0.000 C 
ATOM     21  C36 UNL     1      72.855  60.063 104.476  0.00  0.00    +0.000 C 
ATOM     22  C37 UNL     1      73.459  60.475 105.882  0.00  0.00    +0.000 C 
ATOM     23  C38 UNL     1      74.808  59.765 106.153  0.00  0.00    +0.000 C 
ENDROOT
BRANCH   1  25
ATOM     24  C1  UNL     1      72.481  58.310 108.711  0.00  0.00    +0.000 C 
ATOM     25  C2  UNL     1      72.021  58.843 107.355  0.00  0.00    +0.000 C 
ENDBRANCH   1  25
BRANCH  11  26
ATOM     26  O10 UNL     1      77.434  63.143 107.155  0.00  0.00    +0.000 OA
ATOM     27  H51 UNL     1      78.009  63.585 107.833  0.00  0.00    +0.000 HD
ENDBRANCH  11  26
BRANCH  21  28
ATOM     28  O11 UNL     1      72.489  58.707 104.405  0.00  0.00    +0.000 OA
ATOM     29  H68 UNL     1      73.170  58.223 103.875  0.00  0.00    +0.000 HD
ENDBRANCH  21  28
BRANCH  22  30
ATOM     30  O12 UNL     1      73.717  61.845 105.826  0.00  0.00    +0.000 OA
ATOM     31  H72 UNL     1      74.447  62.047 106.471  0.00  0.00    +0.000 HD
ENDBRANCH  22  30
BRANCH   7  32
ATOM     32  O3  UNL     1      74.283  64.492 110.066  0.00  0.00    +0.000 OA
BRANCH  32  33
ATOM     33  C8  UNL     1      74.876  65.429 110.960  0.00  0.00    +0.000 C 
ATOM     34  C9  UNL     1      74.734  64.887 112.399  0.00  0.00    +0.000 C 
ATOM     35  C10 UNL     1      74.669  66.005 113.485  0.00  0.00    +0.000 C 
ATOM     36  C11 UNL     1      73.190  66.382 113.805  0.00  0.00    +0.000 C 
ATOM     37  C13 UNL     1      75.416  67.251 112.938  0.00  0.00    +0.000 C 
ATOM     38  C14 UNL     1      74.832  67.711 111.565  0.00  0.00    +0.000 C 
ATOM     39  C15 UNL     1      75.879  68.423 110.698  0.00  0.00    +0.000 C 
ATOM     40  O6  UNL     1      74.198  66.668 110.829  0.00  0.00    +0.000 OA
BRANCH  35  41
ATOM     41  O4  UNL     1      75.376  65.606 114.660  0.00  0.00    +0.000 OA
ATOM     42  C12 UNL     1      75.419  64.205 114.856  0.00  0.00    +0.000 C 
ENDBRANCH  35  41
BRANCH  37  43
ATOM     43  O5  UNL     1      75.356  68.299 113.875  0.00  0.00    +0.000 OA
ATOM     44  H22 UNL     1      74.763  67.995 114.611  0.00  0.00    +0.000 HD
ENDBRANCH  37  43
ENDBRANCH  32  33
ENDBRANCH   7  32
BRANCH  10  45
ATOM     45  O7  UNL     1      76.109  66.338 105.953  0.00  0.00    +0.000 OA
BRANCH  45  46
ATOM     46  C19 UNL     1      76.275  67.650 106.482  0.00  0.00    +0.000 C 
ATOM     47  O8  UNL     1      75.670  68.599 105.603  0.00  0.00    +0.000 OA
ATOM     48  C20 UNL     1      76.534  69.150 104.616  0.00  0.00    +0.000 C 
ATOM     49  C21 UNL     1      76.882  68.124 103.526  0.00  0.00    +0.000 C 
ATOM     50  C22 UNL     1      77.782  69.860 105.215  0.00  0.00    +0.000 C 
ATOM     51  C23 UNL     1      78.050  69.415 106.671  0.00  0.00    +0.000 C 
ATOM     52  C24 UNL     1      77.772  67.909 106.792  0.00  0.00    +0.000 C 
BRANCH  51  53
ATOM     53  N1  UNL     1      79.396  69.772 107.195  0.00  0.00    +0.000 NA
ATOM     54  C25 UNL     1      79.318  70.748 108.294  0.00  0.00    +0.000 C 
ATOM     55  C26 UNL     1      80.374  70.208 106.183  0.00  0.00    +0.000 C 
ENDBRANCH  51  53
BRANCH  52  56
ATOM     56  O9  UNL     1      78.116  67.417 108.067  0.00  0.00    +0.000 OA
ATOM     57  H41 UNL     1      77.759  66.492 108.144  0.00  0.00    +0.000 HD
ENDBRANCH  52  56
ENDBRANCH  45  46
ENDBRANCH  10  45
TORSDOF 12
ENDMDL
MODEL 3
REMARK VINA RESULT:      -6.8      3.360      8.981
REMARK  Name = ./S4147.pdb
REMARK  26 active torsions:
REMARK  status: ('A' for Active; 'I' for Inactive)
REMARK    1  A    between atoms: C1_1  and  C2_2
REMARK    2  A    between atoms: C2_2  and  C3_3
REMARK    3  A    between atoms: C5_7  and  C6_8
REMARK    4  A    between atoms: C7_9  and  O3_10
REMARK    5  A    between atoms: O3_10  and  C8_11
REMARK    6  A    between atoms: C10_13  and  C11_14
REMARK    7  A    between atoms: C10_13  and  O4_15
REMARK    8  A    between atoms: O4_15  and  C12_16
REMARK    9  A    between atoms: C13_17  and  O5_18
REMARK   10  A    between atoms: C14_19  and  C15_20
REMARK   11  A    between atoms: C16_22  and  C17_23
REMARK   12  A    between atoms: C18_24  and  O7_25
REMARK   13  A    between atoms: O7_25  and  C19_26
REMARK   14  A    between atoms: C20_28  and  C21_29
REMARK   15  A    between atoms: C23_31  and  N1_34
REMARK   16  A    between atoms: C24_32  and  O9_33
REMARK   17  A    between atoms: N1_34  and  C25_35
REMARK   18  A    between atoms: N1_34  and  C26_36
REMARK   19  A    between atoms: C27_37  and  C28_38
REMARK   20  A    between atoms: C27_37  and  O10_39
REMARK   21  A    between atoms: C30_41  and  C31_42
REMARK   22  A    between atoms: N2_44  and  C33_45
REMARK   23  A    between atoms: C34_46  and  C35_47
REMARK   24  A    between atoms: C36_48  and  O11_49
REMARK   25  A    between atoms: C37_50  and  C38_51
REMARK   26  A    between atoms: C37_50  and  O12_52
REMARK                            x       y       z     vdW  Elec       q    Type
REMARK                         _______ _______ _______ _____ _____    ______ ____
ROOT
ATOM      1  C3  UNL     1      72.590  61.558 107.297  0.00  0.00    +0.000 C 
ATOM      2  O1  UNL     1      73.177  61.614 108.612  0.00  0.00    +0.000 OA
ATOM      3  C4  UNL     1      73.448  62.801 109.318  0.00  0.00    +0.000 C 
ATOM      4  O2  UNL     1      72.497  63.539 109.680  0.00  0.00    +0.000 OA
ATOM      5  C5  UNL     1      74.898  63.143 109.641  0.00  0.00    +0.000 C 
ATOM      6  C6  UNL     1      75.510  61.956 110.406  0.00  0.00    +0.000 C 
ATOM      7  C7  UNL     1      75.182  64.470 110.432  0.00  0.00    +0.000 C 
ATOM      8  C16 UNL     1      75.183  65.817 109.619  0.00  0.00    +0.000 C 
ATOM      9  C17 UNL     1      73.879  66.102 108.855  0.00  0.00    +0.000 C 
ATOM     10  C18 UNL     1      76.534  66.257 108.905  0.00  0.00    +0.000 C 
ATOM     11  C27 UNL     1      77.240  65.303 107.863  0.00  0.00    +0.000 C 
ATOM     12  C28 UNL     1      78.589  65.936 107.430  0.00  0.00    +0.000 C 
ATOM     13  C29 UNL     1      76.321  64.968 106.627  0.00  0.00    +0.000 C 
ATOM     14  C30 UNL     1      76.633  65.484 105.190  0.00  0.00    +0.000 C 
ATOM     15  C31 UNL     1      76.285  66.976 105.009  0.00  0.00    +0.000 C 
ATOM     16  C32 UNL     1      75.987  64.561 104.092  0.00  0.00    +0.000 C 
ATOM     17  N2  UNL     1      74.537  64.243 104.296  0.00  0.00    +0.000 NA
ATOM     18  C33 UNL     1      73.677  65.371 103.875  0.00  0.00    +0.000 C 
ATOM     19  C34 UNL     1      74.012  62.953 103.708  0.00  0.00    +0.000 C 
ATOM     20  C35 UNL     1      75.050  62.075 102.963  0.00  0.00    +0.000 C 
ATOM     21  C36 UNL     1      73.108  62.161 104.743  0.00  0.00    +0.000 C 
ATOM     22  C37 UNL     1      73.632  62.087 106.237  0.00  0.00    +0.000 C 
ATOM     23  C38 UNL     1      74.952  61.283 106.339  0.00  0.00    +0.000 C 
ENDROOT
BRANCH   1  25
ATOM     24  C1  UNL     1      72.449  59.173 108.179  0.00  0.00    +0.000 C 
ATOM     25  C2  UNL     1      72.085  60.121 107.038  0.00  0.00    +0.000 C 
ENDBRANCH   1  25
BRANCH  11  26
ATOM     26  O10 UNL     1      77.562  64.084 108.498  0.00  0.00    +0.000 OA
ATOM     27  H51 UNL     1      77.217  64.097 109.429  0.00  0.00    +0.000 HD
ENDBRANCH  11  26
BRANCH  21  28
ATOM     28  O11 UNL     1      72.727  60.910 104.226  0.00  0.00    +0.000 OA
ATOM     29  H68 UNL     1      71.753  60.924 104.052  0.00  0.00    +0.000 HD
ENDBRANCH  21  28
BRANCH  22  30
ATOM     30  O12 UNL     1      73.913  63.395 106.632  0.00  0.00    +0.000 OA
ATOM     31  H72 UNL     1      73.272  63.642 107.353  0.00  0.00    +0.000 HD
ENDBRANCH  22  30
BRANCH   7  32
ATOM     32  O3  UNL     1      74.261  64.545 111.517  0.00  0.00    +0.000 OA
BRANCH  32  33
ATOM     33  C8  UNL     1      74.863  64.938 112.747  0.00  0.00    +0.000 C 
ATOM     34  C9  UNL     1      75.020  63.685 113.636  0.00  0.00    +0.000 C 
ATOM     35  C10 UNL     1      74.984  63.994 115.165  0.00  0.00    +0.000 C 
ATOM     36  C11 UNL     1      73.538  63.839 115.728  0.00  0.00    +0.000 C 
ATOM     37  C13 UNL     1      75.469  65.454 115.373  0.00  0.00    +0.000 C 
ATOM     38  C14 UNL     1      74.621  66.462 114.535  0.00  0.00    +0.000 C 
ATOM     39  C15 UNL     1      75.418  67.720 114.160  0.00  0.00    +0.000 C 
ATOM     40  O6  UNL     1      74.019  65.889 113.378  0.00  0.00    +0.000 OA
BRANCH  35  41
ATOM     41  O4  UNL     1      75.912  63.166 115.866  0.00  0.00    +0.000 OA
ATOM     42  C12 UNL     1      77.076  62.852 115.125  0.00  0.00    +0.000 C 
ENDBRANCH  35  41
BRANCH  37  43
ATOM     43  O5  UNL     1      75.423  65.786 116.739  0.00  0.00    +0.000 OA
ATOM     44  H22 UNL     1      75.429  66.777 116.796  0.00  0.00    +0.000 HD
ENDBRANCH  37  43
ENDBRANCH  32  33
ENDBRANCH   7  32
BRANCH  10  45
ATOM     45  O7  UNL     1      76.358  67.536 108.305  0.00  0.00    +0.000 OA
BRANCH  45  46
ATOM     46  C19 UNL     1      76.844  68.599 109.118  0.00  0.00    +0.000 C 
ATOM     47  O8  UNL     1      75.780  69.106 109.926  0.00  0.00    +0.000 OA
ATOM     48  C20 UNL     1      75.054  70.192 109.363  0.00  0.00    +0.000 C 
ATOM     49  C21 UNL     1      74.164  69.738 108.195  0.00  0.00    +0.000 C 
ATOM     50  C22 UNL     1      75.947  71.418 109.018  0.00  0.00    +0.000 C 
ATOM     51  C23 UNL     1      77.440  71.030 108.918  0.00  0.00    +0.000 C 
ATOM     52  C24 UNL     1      77.555  69.658 108.236  0.00  0.00    +0.000 C 
BRANCH  51  53
ATOM     53  N1  UNL     1      78.307  72.046 108.264  0.00  0.00    +0.000 NA
ATOM     54  C25 UNL     1      79.422  72.460 109.132  0.00  0.00    +0.000 C 
ATOM     55  C26 UNL     1      77.606  73.225 107.725  0.00  0.00    +0.000 C 
ENDBRANCH  51  53
BRANCH  52  56
ATOM     56  O9  UNL     1      78.898  69.302 108.005  0.00  0.00    +0.000 OA
ATOM     57  H41 UNL     1      79.464  69.803 108.652  0.00  0.00    +0.000 HD
ENDBRANCH  52  56
ENDBRANCH  45  46
ENDBRANCH  10  45
TORSDOF 12
ENDMDL
MODEL 4
REMARK VINA RESULT:      -6.7      2.745      8.510
REMARK  Name = ./S4147.pdb
REMARK  26 active torsions:
REMARK  status: ('A' for Active; 'I' for Inactive)
REMARK    1  A    between atoms: C1_1  and  C2_2
REMARK    2  A    between atoms: C2_2  and  C3_3
REMARK    3  A    between atoms: C5_7  and  C6_8
REMARK    4  A    between atoms: C7_9  and  O3_10
REMARK    5  A    between atoms: O3_10  and  C8_11
REMARK    6  A    between atoms: C10_13  and  C11_14
REMARK    7  A    between atoms: C10_13  and  O4_15
REMARK    8  A    between atoms: O4_15  and  C12_16
REMARK    9  A    between atoms: C13_17  and  O5_18
REMARK   10  A    between atoms: C14_19  and  C15_20
REMARK   11  A    between atoms: C16_22  and  C17_23
REMARK   12  A    between atoms: C18_24  and  O7_25
REMARK   13  A    between atoms: O7_25  and  C19_26
REMARK   14  A    between atoms: C20_28  and  C21_29
REMARK   15  A    between atoms: C23_31  and  N1_34
REMARK   16  A    between atoms: C24_32  and  O9_33
REMARK   17  A    between atoms: N1_34  and  C25_35
REMARK   18  A    between atoms: N1_34  and  C26_36
REMARK   19  A    between atoms: C27_37  and  C28_38
REMARK   20  A    between atoms: C27_37  and  O10_39
REMARK   21  A    between atoms: C30_41  and  C31_42
REMARK   22  A    between atoms: N2_44  and  C33_45
REMARK   23  A    between atoms: C34_46  and  C35_47
REMARK   24  A    between atoms: C36_48  and  O11_49
REMARK   25  A    between atoms: C37_50  and  C38_51
REMARK   26  A    between atoms: C37_50  and  O12_52
REMARK                            x       y       z     vdW  Elec       q    Type
REMARK                         _______ _______ _______ _____ _____    ______ ____
ROOT
ATOM      1  C3  UNL     1      72.547  70.350 105.279  0.00  0.00    +0.000 C 
ATOM      2  O1  UNL     1      72.323  68.993 104.849  0.00  0.00    +0.000 OA
ATOM      3  C4  UNL     1      71.966  67.931 105.702  0.00  0.00    +0.000 C 
ATOM      4  O2  UNL     1      70.856  67.957 106.293  0.00  0.00    +0.000 OA
ATOM      5  C5  UNL     1      72.935  66.767 105.863  0.00  0.00    +0.000 C 
ATOM      6  C6  UNL     1      73.241  66.203 104.464  0.00  0.00    +0.000 C 
ATOM      7  C7  UNL     1      72.519  65.589 106.816  0.00  0.00    +0.000 C 
ATOM      8  C16 UNL     1      72.718  65.798 108.362  0.00  0.00    +0.000 C 
ATOM      9  C17 UNL     1      71.996  67.027 108.938  0.00  0.00    +0.000 C 
ATOM     10  C18 UNL     1      74.141  65.456 108.984  0.00  0.00    +0.000 C 
ATOM     11  C27 UNL     1      75.447  66.157 108.438  0.00  0.00    +0.000 C 
ATOM     12  C28 UNL     1      76.685  65.540 109.141  0.00  0.00    +0.000 C 
ATOM     13  C29 UNL     1      75.402  67.725 108.590  0.00  0.00    +0.000 C 
ATOM     14  C30 UNL     1      76.336  68.497 109.570  0.00  0.00    +0.000 C 
ATOM     15  C31 UNL     1      75.885  68.371 111.040  0.00  0.00    +0.000 C 
ATOM     16  C32 UNL     1      76.546  69.988 109.115  0.00  0.00    +0.000 C 
ATOM     17  N2  UNL     1      75.291  70.740 108.789  0.00  0.00    +0.000 NA
ATOM     18  C33 UNL     1      74.607  71.197 110.019  0.00  0.00    +0.000 C 
ATOM     19  C34 UNL     1      75.393  71.885 107.807  0.00  0.00    +0.000 C 
ATOM     20  C35 UNL     1      76.803  72.148 107.217  0.00  0.00    +0.000 C 
ATOM     21  C36 UNL     1      74.231  71.839 106.729  0.00  0.00    +0.000 C 
ATOM     22  C37 UNL     1      73.883  70.419 106.117  0.00  0.00    +0.000 C 
ATOM     23  C38 UNL     1      75.062  69.851 105.288  0.00  0.00    +0.000 C 
ENDROOT
BRANCH   1  25
ATOM     24  C1  UNL     1      72.386  70.486 102.741  0.00  0.00    +0.000 C 
ATOM     25  C2  UNL     1      72.516  71.275 104.043  0.00  0.00    +0.000 C 
ENDBRANCH   1  25
BRANCH  11  26
ATOM     26  O10 UNL     1      75.587  65.866 107.064  0.00  0.00    +0.000 OA
ATOM     27  H51 UNL     1      76.443  65.384 106.916  0.00  0.00    +0.000 HD
ENDBRANCH  11  26
BRANCH  21  28
ATOM     28  O11 UNL     1      74.408  72.836 105.753  0.00  0.00    +0.000 OA
ATOM     29  H68 UNL     1      75.288  72.702 105.321  0.00  0.00    +0.000 HD
ENDBRANCH  21  28
BRANCH  22  30
ATOM     30  O12 UNL     1      73.677  69.554 107.191  0.00  0.00    +0.000 OA
ATOM     31  H72 UNL     1      74.089  68.678 106.963  0.00  0.00    +0.000 HD
ENDBRANCH  22  30
BRANCH   7  32
ATOM     32  O3  UNL     1      71.165  65.246 106.531  0.00  0.00    +0.000 OA
BRANCH  32  33
ATOM     33  C8  UNL     1      70.989  63.880 106.169  0.00  0.00    +0.000 C 
ATOM     34  C9  UNL     1      71.733  63.003 107.200  0.00  0.00    +0.000 C 
ATOM     35  C10 UNL     1      72.231  61.643 106.620  0.00  0.00    +0.000 C 
ATOM     36  C11 UNL     1      73.701  61.762 106.113  0.00  0.00    +0.000 C 
ATOM     37  C13 UNL     1      71.304  61.255 105.437  0.00  0.00    +0.000 C 
ATOM     38  C14 UNL     1      71.247  62.383 104.360  0.00  0.00    +0.000 C 
ATOM     39  C15 UNL     1      69.921  62.383 103.588  0.00  0.00    +0.000 C 
ATOM     40  O6  UNL     1      71.528  63.684 104.872  0.00  0.00    +0.000 OA
BRANCH  35  41
ATOM     41  O4  UNL     1      72.092  60.603 107.589  0.00  0.00    +0.000 OA
ATOM     42  C12 UNL     1      73.304  60.246 108.225  0.00  0.00    +0.000 C 
ENDBRANCH  35  41
BRANCH  37  43
ATOM     43  O5  UNL     1      71.737  60.046 104.863  0.00  0.00    +0.000 OA
ATOM     44  H22 UNL     1      72.673  60.185 104.565  0.00  0.00    +0.000 HD
ENDBRANCH  37  43
ENDBRANCH  32  33
ENDBRANCH   7  32
BRANCH  10  45
ATOM     45  O7  UNL     1      74.093  65.621 110.398  0.00  0.00    +0.000 OA
BRANCH  45  46
ATOM     46  C19 UNL     1      73.633  64.455 111.074  0.00  0.00    +0.000 C 
ATOM     47  O8  UNL     1      72.499  64.786 111.877  0.00  0.00    +0.000 OA
ATOM     48  C20 UNL     1      72.792  65.155 113.220  0.00  0.00    +0.000 C 
ATOM     49  C21 UNL     1      73.453  66.540 113.300  0.00  0.00    +0.000 C 
ATOM     50  C22 UNL     1      73.565  64.057 114.006  0.00  0.00    +0.000 C 
ATOM     51  C23 UNL     1      74.241  63.041 113.058  0.00  0.00    +0.000 C 
ATOM     52  C24 UNL     1      74.805  63.792 111.842  0.00  0.00    +0.000 C 
BRANCH  51  53
ATOM     53  N1  UNL     1      75.268  62.176 113.698  0.00  0.00    +0.000 NA
ATOM     54  C25 UNL     1      74.707  60.888 114.137  0.00  0.00    +0.000 C 
ATOM     55  C26 UNL     1      76.035  62.805 114.788  0.00  0.00    +0.000 C 
ENDBRANCH  51  53
BRANCH  52  56
ATOM     56  O9  UNL     1      75.542  62.937 110.998  0.00  0.00    +0.000 OA
ATOM     57  H41 UNL     1      75.956  63.493 110.285  0.00  0.00    +0.000 HD
ENDBRANCH  52  56
ENDBRANCH  45  46
ENDBRANCH  10  45
TORSDOF 12
ENDMDL
MODEL 5
REMARK VINA RESULT:      -6.7      3.356      7.207
REMARK  Name = ./S4147.pdb
REMARK  26 active torsions:
REMARK  status: ('A' for Active; 'I' for Inactive)
REMARK    1  A    between atoms: C1_1  and  C2_2
REMARK    2  A    between atoms: C2_2  and  C3_3
REMARK    3  A    between atoms: C5_7  and  C6_8
REMARK    4  A    between atoms: C7_9  and  O3_10
REMARK    5  A    between atoms: O3_10  and  C8_11
REMARK    6  A    between atoms: C10_13  and  C11_14
REMARK    7  A    between atoms: C10_13  and  O4_15
REMARK    8  A    between atoms: O4_15  and  C12_16
REMARK    9  A    between atoms: C13_17  and  O5_18
REMARK   10  A    between atoms: C14_19  and  C15_20
REMARK   11  A    between atoms: C16_22  and  C17_23
REMARK   12  A    between atoms: C18_24  and  O7_25
REMARK   13  A    between atoms: O7_25  and  C19_26
REMARK   14  A    between atoms: C20_28  and  C21_29
REMARK   15  A    between atoms: C23_31  and  N1_34
REMARK   16  A    between atoms: C24_32  and  O9_33
REMARK   17  A    between atoms: N1_34  and  C25_35
REMARK   18  A    between atoms: N1_34  and  C26_36
REMARK   19  A    between atoms: C27_37  and  C28_38
REMARK   20  A    between atoms: C27_37  and  O10_39
REMARK   21  A    between atoms: C30_41  and  C31_42
REMARK   22  A    between atoms: N2_44  and  C33_45
REMARK   23  A    between atoms: C34_46  and  C35_47
REMARK   24  A    between atoms: C36_48  and  O11_49
REMARK   25  A    between atoms: C37_50  and  C38_51
REMARK   26  A    between atoms: C37_50  and  O12_52
REMARK                            x       y       z     vdW  Elec       q    Type
REMARK                         _______ _______ _______ _____ _____    ______ ____
ROOT
ATOM      1  C3  UNL     1      78.303  67.216 104.986  0.00  0.00    +0.000 C 
ATOM      2  O1  UNL     1      77.396  67.496 106.069  0.00  0.00    +0.000 OA
ATOM      3  C4  UNL     1      76.800  66.518 106.889  0.00  0.00    +0.000 C 
ATOM      4  O2  UNL     1      77.523  65.812 107.638  0.00  0.00    +0.000 OA
ATOM      5  C5  UNL     1      75.285  66.361 106.854  0.00  0.00    +0.000 C 
ATOM      6  C6  UNL     1      74.657  67.730 107.173  0.00  0.00    +0.000 C 
ATOM      7  C7  UNL     1      74.637  65.268 107.777  0.00  0.00    +0.000 C 
ATOM      8  C16 UNL     1      74.671  63.778 107.274  0.00  0.00    +0.000 C 
ATOM      9  C17 UNL     1      76.079  63.237 106.974  0.00  0.00    +0.000 C 
ATOM     10  C18 UNL     1      73.504  63.288 106.312  0.00  0.00    +0.000 C 
ATOM     11  C27 UNL     1      73.219  64.035 104.949  0.00  0.00    +0.000 C 
ATOM     12  C28 UNL     1      71.956  63.421 104.289  0.00  0.00    +0.000 C 
ATOM     13  C29 UNL     1      74.460  64.020 103.978  0.00  0.00    +0.000 C 
ATOM     14  C30 UNL     1      74.464  63.222 102.639  0.00  0.00    +0.000 C 
ATOM     15  C31 UNL     1      74.651  61.706 102.856  0.00  0.00    +0.000 C 
ATOM     16  C32 UNL     1      75.485  63.828 101.607  0.00  0.00    +0.000 C 
ATOM     17  N2  UNL     1      76.862  64.079 102.142  0.00  0.00    +0.000 NA
ATOM     18  C33 UNL     1      77.648  62.827 102.205  0.00  0.00    +0.000 C 
ATOM     19  C34 UNL     1      77.683  65.165 101.485  0.00  0.00    +0.000 C 
ATOM     20  C35 UNL     1      76.994  65.928 100.325  0.00  0.00    +0.000 C 
ATOM     21  C36 UNL     1      78.386  66.100 102.557  0.00  0.00    +0.000 C 
ATOM     22  C37 UNL     1      77.509  66.541 103.801  0.00  0.00    +0.000 C 
ATOM     23  C38 UNL     1      76.323  67.440 103.373  0.00  0.00    +0.000 C 
ENDROOT
BRANCH   1  25
ATOM     24  C1  UNL     1      79.832  69.092 105.777  0.00  0.00    +0.000 C 
ATOM     25  C2  UNL     1      79.040  68.519 104.604  0.00  0.00    +0.000 C 
ENDBRANCH   1  25
BRANCH  11  26
ATOM     26  O10 UNL     1      72.906  65.385 105.220  0.00  0.00    +0.000 OA
ATOM     27  H51 UNL     1      73.719  65.942 105.098  0.00  0.00    +0.000 HD
ENDBRANCH  11  26
BRANCH  21  28
ATOM     28  O11 UNL     1      79.046  67.174 101.933  0.00  0.00    +0.000 OA
ATOM     29  H68 UNL     1      79.606  66.817 101.200  0.00  0.00    +0.000 HD
ENDBRANCH  21  28
BRANCH  22  30
ATOM     30  O12 UNL     1      76.969  65.377 104.349  0.00  0.00    +0.000 OA
ATOM     31  H72 UNL     1      77.708  64.721 104.464  0.00  0.00    +0.000 HD
ENDBRANCH  22  30
BRANCH   7  32
ATOM     32  O3  UNL     1      75.230  65.370 109.069  0.00  0.00    +0.000 OA
BRANCH  32  33
ATOM     33  C8  UNL     1      74.313  65.760 110.087  0.00  0.00    +0.000 C 
ATOM     34  C9  UNL     1      75.091  66.534 111.173  0.00  0.00    +0.000 C 
ATOM     35  C10 UNL     1      74.461  66.419 112.596  0.00  0.00    +0.000 C 
ATOM     36  C11 UNL     1      75.110  65.248 113.396  0.00  0.00    +0.000 C 
ATOM     37  C13 UNL     1      72.941  66.153 112.429  0.00  0.00    +0.000 C 
ATOM     38  C14 UNL     1      72.673  64.893 111.548  0.00  0.00    +0.000 C 
ATOM     39  C15 UNL     1      71.329  64.974 110.810  0.00  0.00    +0.000 C 
ATOM     40  O6  UNL     1      73.727  64.591 110.637  0.00  0.00    +0.000 OA
BRANCH  35  41
ATOM     41  O4  UNL     1      74.571  67.658 113.296  0.00  0.00    +0.000 OA
ATOM     42  C12 UNL     1      75.396  67.597 114.444  0.00  0.00    +0.000 C 
ENDBRANCH  35  41
BRANCH  37  43
ATOM     43  O5  UNL     1      72.335  66.011 113.691  0.00  0.00    +0.000 OA
ATOM     44  H22 UNL     1      72.990  66.332 114.364  0.00  0.00    +0.000 HD
ENDBRANCH  37  43
ENDBRANCH  32  33
ENDBRANCH   7  32
BRANCH  10  45
ATOM     45  O7  UNL     1      73.660  61.898 106.044  0.00  0.00    +0.000 OA
BRANCH  45  46
ATOM     46  C19 UNL     1      72.540  61.126 106.463  0.00  0.00    +0.000 C 
ATOM     47  O8  UNL     1      72.553  61.001 107.886  0.00  0.00    +0.000 OA
ATOM     48  C20 UNL     1      73.225  59.852 108.389  0.00  0.00    +0.000 C 
ATOM     49  C21 UNL     1      74.750  59.967 108.226  0.00  0.00    +0.000 C 
ATOM     50  C22 UNL     1      72.648  58.512 107.849  0.00  0.00    +0.000 C 
ATOM     51  C23 UNL     1      71.814  58.724 106.565  0.00  0.00    +0.000 C 
ATOM     52  C24 UNL     1      72.504  59.782 105.690  0.00  0.00    +0.000 C 
BRANCH  51  53
ATOM     53  N1  UNL     1      71.519  57.484 105.800  0.00  0.00    +0.000 NA
ATOM     54  C25 UNL     1      70.880  56.457 106.639  0.00  0.00    +0.000 C 
ATOM     55  C26 UNL     1      72.656  56.911 105.057  0.00  0.00    +0.000 C 
ENDBRANCH  51  53
BRANCH  52  56
ATOM     56  O9  UNL     1      71.859  59.932 104.447  0.00  0.00    +0.000 OA
ATOM     57  H41 UNL     1      71.961  60.879 104.161  0.00  0.00    +0.000 HD
ENDBRANCH  52  56
ENDBRANCH  45  46
ENDBRANCH  10  45
TORSDOF 12
ENDMDL
MODEL 6
REMARK VINA RESULT:      -6.7      7.676     14.770
REMARK  Name = ./S4147.pdb
REMARK  26 active torsions:
REMARK  status: ('A' for Active; 'I' for Inactive)
REMARK    1  A    between atoms: C1_1  and  C2_2
REMARK    2  A    between atoms: C2_2  and  C3_3
REMARK    3  A    between atoms: C5_7  and  C6_8
REMARK    4  A    between atoms: C7_9  and  O3_10
REMARK    5  A    between atoms: O3_10  and  C8_11
REMARK    6  A    between atoms: C10_13  and  C11_14
REMARK    7  A    between atoms: C10_13  and  O4_15
REMARK    8  A    between atoms: O4_15  and  C12_16
REMARK    9  A    between atoms: C13_17  and  O5_18
REMARK   10  A    between atoms: C14_19  and  C15_20
REMARK   11  A    between atoms: C16_22  and  C17_23
REMARK   12  A    between atoms: C18_24  and  O7_25
REMARK   13  A    between atoms: O7_25  and  C19_26
REMARK   14  A    between atoms: C20_28  and  C21_29
REMARK   15  A    between atoms: C23_31  and  N1_34
REMARK   16  A    between atoms: C24_32  and  O9_33
REMARK   17  A    between atoms: N1_34  and  C25_35
REMARK   18  A    between atoms: N1_34  and  C26_36
REMARK   19  A    between atoms: C27_37  and  C28_38
REMARK   20  A    between atoms: C27_37  and  O10_39
REMARK   21  A    between atoms: C30_41  and  C31_42
REMARK   22  A    between atoms: N2_44  and  C33_45
REMARK   23  A    between atoms: C34_46  and  C35_47
REMARK   24  A    between atoms: C36_48  and  O11_49
REMARK   25  A    between atoms: C37_50  and  C38_51
REMARK   26  A    between atoms: C37_50  and  O12_52
REMARK                            x       y       z     vdW  Elec       q    Type
REMARK                         _______ _______ _______ _____ _____    ______ ____
ROOT
ATOM      1  C3  UNL     1      69.631  58.764  92.130  0.00  0.00    +0.000 C 
ATOM      2  O1  UNL     1      69.090  59.321  93.344  0.00  0.00    +0.000 OA
ATOM      3  C4  UNL     1      69.845  59.616  94.496  0.00  0.00    +0.000 C 
ATOM      4  O2  UNL     1      70.730  60.508  94.446  0.00  0.00    +0.000 OA
ATOM      5  C5  UNL     1      69.545  58.852  95.780  0.00  0.00    +0.000 C 
ATOM      6  C6  UNL     1      68.051  59.029  96.102  0.00  0.00    +0.000 C 
ATOM      7  C7  UNL     1      70.394  59.195  97.056  0.00  0.00    +0.000 C 
ATOM      8  C16 UNL     1      71.829  58.561  97.168  0.00  0.00    +0.000 C 
ATOM      9  C17 UNL     1      72.764  58.884  95.991  0.00  0.00    +0.000 C 
ATOM     10  C18 UNL     1      71.953  57.104  97.793  0.00  0.00    +0.000 C 
ATOM     11  C27 UNL     1      71.160  55.889  97.167  0.00  0.00    +0.000 C 
ATOM     12  C28 UNL     1      71.374  54.634  98.053  0.00  0.00    +0.000 C 
ATOM     13  C29 UNL     1      71.547  55.625  95.662  0.00  0.00    +0.000 C 
ATOM     14  C30 UNL     1      72.314  54.346  95.210  0.00  0.00    +0.000 C 
ATOM     15  C31 UNL     1      73.817  54.406  95.555  0.00  0.00    +0.000 C 
ATOM     16  C32 UNL     1      72.042  54.013  93.696  0.00  0.00    +0.000 C 
ATOM     17  N2  UNL     1      72.209  55.162  92.749  0.00  0.00    +0.000 NA
ATOM     18  C33 UNL     1      73.638  55.407  92.452  0.00  0.00    +0.000 C 
ATOM     19  C34 UNL     1      71.419  55.130  91.460  0.00  0.00    +0.000 C 
ATOM     20  C35 UNL     1      70.490  53.904  91.265  0.00  0.00    +0.000 C 
ATOM     21  C36 UNL     1      70.730  56.527  91.160  0.00  0.00    +0.000 C 
ATOM     22  C37 UNL     1      70.044  57.262  92.384  0.00  0.00    +0.000 C 
ATOM     23  C38 UNL     1      68.835  56.460  92.926  0.00  0.00    +0.000 C 
ENDROOT
BRANCH   1  25
ATOM     24  C1  UNL     1      67.260  59.460  91.515  0.00  0.00    +0.000 C 
ATOM     25  C2  UNL     1      68.607  58.963  90.991  0.00  0.00    +0.000 C 
ENDBRANCH   1  25
BRANCH  11  26
ATOM     26  O10 UNL     1      69.777  56.171  97.209  0.00  0.00    +0.000 OA
ATOM     27  H51 UNL     1      69.642  57.154  97.208  0.00  0.00    +0.000 HD
ENDBRANCH  11  26
BRANCH  21  28
ATOM     28  O11 UNL     1      69.902  56.448  90.025  0.00  0.00    +0.000 OA
ATOM     29  H68 UNL     1      69.200  55.772  90.194  0.00  0.00    +0.000 HD
ENDBRANCH  21  28
BRANCH  22  30
ATOM     30  O12 UNL     1      70.994  57.320  93.405  0.00  0.00    +0.000 OA
ATOM     31  H72 UNL     1      71.721  56.677  93.185  0.00  0.00    +0.000 HD
ENDBRANCH  22  30
BRANCH   7  32
ATOM     32  O3  UNL     1      70.468  60.614  97.170  0.00  0.00    +0.000 OA
BRANCH  32  33
ATOM     33  C8  UNL     1      70.065  61.103  98.446  0.00  0.00    +0.000 C 
ATOM     34  C9  UNL     1      71.290  61.750  99.128  0.00  0.00    +0.000 C 
ATOM     35  C10 UNL     1      71.240  61.694 100.687  0.00  0.00    +0.000 C 
ATOM     36  C11 UNL     1      71.990  60.434 101.220  0.00  0.00    +0.000 C 
ATOM     37  C13 UNL     1      69.751  61.632 101.119  0.00  0.00    +0.000 C 
ATOM     38  C14 UNL     1      69.009  60.433 100.449  0.00  0.00    +0.000 C 
ATOM     39  C15 UNL     1      67.508  60.703 100.275  0.00  0.00    +0.000 C 
ATOM     40  O6  UNL     1      69.588  60.012  99.217  0.00  0.00    +0.000 OA
BRANCH  35  41
ATOM     41  O4  UNL     1      71.766  62.895 101.250  0.00  0.00    +0.000 OA
ATOM     42  C12 UNL     1      72.903  62.696 102.068  0.00  0.00    +0.000 C 
ENDBRANCH  35  41
BRANCH  37  43
ATOM     43  O5  UNL     1      69.659  61.548 102.520  0.00  0.00    +0.000 OA
ATOM     44  H22 UNL     1      68.981  62.214 102.807  0.00  0.00    +0.000 HD
ENDBRANCH  37  43
ENDBRANCH  32  33
ENDBRANCH   7  32
BRANCH  10  45
ATOM     45  O7  UNL     1      73.328  56.746  97.894  0.00  0.00    +0.000 OA
BRANCH  45  46
ATOM     46  C19 UNL     1      73.917  57.157  99.123  0.00  0.00    +0.000 C 
ATOM     47  O8  UNL     1      74.627  58.381  98.927  0.00  0.00    +0.000 OA
ATOM     48  C20 UNL     1      76.003  58.238  98.595  0.00  0.00    +0.000 C 
ATOM     49  C21 UNL     1      76.193  57.713  97.163  0.00  0.00    +0.000 C 
ATOM     50  C22 UNL     1      76.815  57.441  99.656  0.00  0.00    +0.000 C 
ATOM     51  C23 UNL     1      75.893  56.598 100.567  0.00  0.00    +0.000 C 
ATOM     52  C24 UNL     1      74.762  56.000  99.717  0.00  0.00    +0.000 C 
BRANCH  51  53
ATOM     53  N1  UNL     1      76.590  55.557 101.369  0.00  0.00    +0.000 NA
ATOM     54  C25 UNL     1      76.991  56.058 102.694  0.00  0.00    +0.000 C 
ATOM     55  C26 UNL     1      77.726  54.897 100.700  0.00  0.00    +0.000 C 
ENDBRANCH  51  53
BRANCH  52  56
ATOM     56  O9  UNL     1      73.956  55.120 100.467  0.00  0.00    +0.000 OA
ATOM     57  H41 UNL     1      73.995  54.226 100.034  0.00  0.00    +0.000 HD
ENDBRANCH  52  56
ENDBRANCH  45  46
ENDBRANCH  10  45
TORSDOF 12
ENDMDL
MODEL 7
REMARK VINA RESULT:      -6.7      4.449     10.720
REMARK  Name = ./S4147.pdb
REMARK  26 active torsions:
REMARK  status: ('A' for Active; 'I' for Inactive)
REMARK    1  A    between atoms: C1_1  and  C2_2
REMARK    2  A    between atoms: C2_2  and  C3_3
REMARK    3  A    between atoms: C5_7  and  C6_8
REMARK    4  A    between atoms: C7_9  and  O3_10
REMARK    5  A    between atoms: O3_10  and  C8_11
REMARK    6  A    between atoms: C10_13  and  C11_14
REMARK    7  A    between atoms: C10_13  and  O4_15
REMARK    8  A    between atoms: O4_15  and  C12_16
REMARK    9  A    between atoms: C13_17  and  O5_18
REMARK   10  A    between atoms: C14_19  and  C15_20
REMARK   11  A    between atoms: C16_22  and  C17_23
REMARK   12  A    between atoms: C18_24  and  O7_25
REMARK   13  A    between atoms: O7_25  and  C19_26
REMARK   14  A    between atoms: C20_28  and  C21_29
REMARK   15  A    between atoms: C23_31  and  N1_34
REMARK   16  A    between atoms: C24_32  and  O9_33
REMARK   17  A    between atoms: N1_34  and  C25_35
REMARK   18  A    between atoms: N1_34  and  C26_36
REMARK   19  A    between atoms: C27_37  and  C28_38
REMARK   20  A    between atoms: C27_37  and  O10_39
REMARK   21  A    between atoms: C30_41  and  C31_42
REMARK   22  A    between atoms: N2_44  and  C33_45
REMARK   23  A    between atoms: C34_46  and  C35_47
REMARK   24  A    between atoms: C36_48  and  O11_49
REMARK   25  A    between atoms: C37_50  and  C38_51
REMARK   26  A    between atoms: C37_50  and  O12_52
REMARK                            x       y       z     vdW  Elec       q    Type
REMARK                         _______ _______ _______ _____ _____    ______ ____
ROOT
ATOM      1  C3  UNL     1      71.676  60.592  97.222  0.00  0.00    +0.000 C 
ATOM      2  O1  UNL     1      71.268  61.201  98.462  0.00  0.00    +0.000 OA
ATOM      3  C4  UNL     1      72.151  61.642  99.466  0.00  0.00    +0.000 C 
ATOM      4  O2  UNL     1      72.940  62.592  99.226  0.00  0.00    +0.000 OA
ATOM      5  C5  UNL     1      72.105  60.960 100.829  0.00  0.00    +0.000 C 
ATOM      6  C6  UNL     1      70.663  61.048 101.358  0.00  0.00    +0.000 C 
ATOM      7  C7  UNL     1      73.095  61.467 101.938  0.00  0.00    +0.000 C 
ATOM      8  C16 UNL     1      74.581  60.954 101.878  0.00  0.00    +0.000 C 
ATOM      9  C17 UNL     1      75.306  61.254 100.556  0.00  0.00    +0.000 C 
ATOM     10  C18 UNL     1      74.920  59.565 102.573  0.00  0.00    +0.000 C 
ATOM     11  C27 UNL     1      74.154  58.248 102.154  0.00  0.00    +0.000 C 
ATOM     12  C28 UNL     1      74.601  57.086 103.080  0.00  0.00    +0.000 C 
ATOM     13  C29 UNL     1      74.343  57.896 100.630  0.00  0.00    +0.000 C 
ATOM     14  C30 UNL     1      75.146  56.648 100.155  0.00  0.00    +0.000 C 
ATOM     15  C31 UNL     1      76.672  56.849 100.267  0.00  0.00    +0.000 C 
ATOM     16  C32 UNL     1      74.690  56.177  98.724  0.00  0.00    +0.000 C 
ATOM     17  N2  UNL     1      74.619  57.257  97.688  0.00  0.00    +0.000 NA
ATOM     18  C33 UNL     1      75.965  57.586  97.166  0.00  0.00    +0.000 C 
ATOM     19  C34 UNL     1      73.659  57.063  96.537  0.00  0.00    +0.000 C 
ATOM     20  C35 UNL     1      72.821  55.759  96.564  0.00  0.00    +0.000 C 
ATOM     21  C36 UNL     1      72.815  58.376  96.249  0.00  0.00    +0.000 C 
ATOM     22  C37 UNL     1      72.251  59.151  97.511  0.00  0.00    +0.000 C 
ATOM     23  C38 UNL     1      71.206  58.304  98.279  0.00  0.00    +0.000 C 
ENDROOT
BRANCH   1  25
ATOM     24  C1  UNL     1      69.232  61.216  96.875  0.00  0.00    +0.000 C 
ATOM     25  C2  UNL     1      70.486  60.622  96.237  0.00  0.00    +0.000 C 
ENDBRANCH   1  25
BRANCH  11  26
ATOM     26  O10 UNL     1      72.772  58.426 102.383  0.00  0.00    +0.000 OA
ATOM     27  H51 UNL     1      72.599  59.371 102.632  0.00  0.00    +0.000 HD
ENDBRANCH  11  26
BRANCH  21  28
ATOM     28  O11 UNL     1      71.844  58.144  95.258  0.00  0.00    +0.000 OA
ATOM     29  H68 UNL     1      71.227  57.442  95.580  0.00  0.00    +0.000 HD
ENDBRANCH  21  28
BRANCH  22  30
ATOM     30  O12 UNL     1      73.327  59.361  98.372  0.00  0.00    +0.000 OA
ATOM     31  H72 UNL     1      74.147  59.008  97.932  0.00  0.00    +0.000 HD
ENDBRANCH  22  30
BRANCH   7  32
ATOM     32  O3  UNL     1      73.061  62.892 101.946  0.00  0.00    +0.000 OA
BRANCH  32  33
ATOM     33  C8  UNL     1      72.648  63.444 103.192  0.00  0.00    +0.000 C 
ATOM     34  C9  UNL     1      73.823  64.255 103.779  0.00  0.00    +0.000 C 
ATOM     35  C10 UNL     1      73.821  64.322 105.338  0.00  0.00    +0.000 C 
ATOM     36  C11 UNL     1      74.701  63.185 105.942  0.00  0.00    +0.000 C 
ATOM     37  C13 UNL     1      72.356  64.159 105.824  0.00  0.00    +0.000 C 
ATOM     38  C14 UNL     1      71.714  62.845 105.277  0.00  0.00    +0.000 C 
ATOM     39  C15 UNL     1      70.190  62.959 105.133  0.00  0.00    +0.000 C 
ATOM     40  O6  UNL     1      72.298  62.380 104.062  0.00  0.00    +0.000 OA
BRANCH  35  41
ATOM     41  O4  UNL     1      74.246  65.609 105.786  0.00  0.00    +0.000 OA
ATOM     42  C12 UNL     1      75.465  65.594 106.503  0.00  0.00    +0.000 C 
ENDBRANCH  35  41
BRANCH  37  43
ATOM     43  O5  UNL     1      72.311  64.181 107.230  0.00  0.00    +0.000 OA
ATOM     44  H22 UNL     1      72.610  65.083 107.515  0.00  0.00    +0.000 HD
ENDBRANCH  37  43
ENDBRANCH  32  33
ENDBRANCH   7  32
BRANCH  10  45
ATOM     45  O7  UNL     1      76.321  59.322 102.491  0.00  0.00    +0.000 OA
BRANCH  45  46
ATOM     46  C19 UNL     1      77.015  59.686 103.680  0.00  0.00    +0.000 C 
ATOM     47  O8  UNL     1      77.392  61.062 103.610  0.00  0.00    +0.000 OA
ATOM     48  C20 UNL     1      78.684  61.310 103.069  0.00  0.00    +0.000 C 
ATOM     49  C21 UNL     1      78.726  61.057 101.554  0.00  0.00    +0.000 C 
ATOM     50  C22 UNL     1      79.826  60.595 103.846  0.00  0.00    +0.000 C 
ATOM     51  C23 UNL     1      79.290  59.431 104.709  0.00  0.00    +0.000 C 
ATOM     52  C24 UNL     1      78.185  58.700 103.932  0.00  0.00    +0.000 C 
BRANCH  51  53
ATOM     53  N1  UNL     1      80.330  58.490 105.205  0.00  0.00    +0.000 NA
ATOM     54  C25 UNL     1      81.507  59.198 105.734  0.00  0.00    +0.000 C 
ATOM     55  C26 UNL     1      80.741  57.442 104.254  0.00  0.00    +0.000 C 
ENDBRANCH  51  53
BRANCH  52  56
ATOM     56  O9  UNL     1      77.739  57.552 104.616  0.00  0.00    +0.000 OA
ATOM     57  H41 UNL     1      78.515  56.941 104.728  0.00  0.00    +0.000 HD
ENDBRANCH  52  56
ENDBRANCH  45  46
ENDBRANCH  10  45
TORSDOF 12
ENDMDL
MODEL 8
REMARK VINA RESULT:      -6.6      3.500      7.002
REMARK  Name = ./S4147.pdb
REMARK  26 active torsions:
REMARK  status: ('A' for Active; 'I' for Inactive)
REMARK    1  A    between atoms: C1_1  and  C2_2
REMARK    2  A    between atoms: C2_2  and  C3_3
REMARK    3  A    between atoms: C5_7  and  C6_8
REMARK    4  A    between atoms: C7_9  and  O3_10
REMARK    5  A    between atoms: O3_10  and  C8_11
REMARK    6  A    between atoms: C10_13  and  C11_14
REMARK    7  A    between atoms: C10_13  and  O4_15
REMARK    8  A    between atoms: O4_15  and  C12_16
REMARK    9  A    between atoms: C13_17  and  O5_18
REMARK   10  A    between atoms: C14_19  and  C15_20
REMARK   11  A    between atoms: C16_22  and  C17_23
REMARK   12  A    between atoms: C18_24  and  O7_25
REMARK   13  A    between atoms: O7_25  and  C19_26
REMARK   14  A    between atoms: C20_28  and  C21_29
REMARK   15  A    between atoms: C23_31  and  N1_34
REMARK   16  A    between atoms: C24_32  and  O9_33
REMARK   17  A    between atoms: N1_34  and  C25_35
REMARK   18  A    between atoms: N1_34  and  C26_36
REMARK   19  A    between atoms: C27_37  and  C28_38
REMARK   20  A    between atoms: C27_37  and  O10_39
REMARK   21  A    between atoms: C30_41  and  C31_42
REMARK   22  A    between atoms: N2_44  and  C33_45
REMARK   23  A    between atoms: C34_46  and  C35_47
REMARK   24  A    between atoms: C36_48  and  O11_49
REMARK   25  A    between atoms: C37_50  and  C38_51
REMARK   26  A    between atoms: C37_50  and  O12_52
REMARK                            x       y       z     vdW  Elec       q    Type
REMARK                         _______ _______ _______ _____ _____    ______ ____
ROOT
ATOM      1  C3  UNL     1      79.409  66.093 103.598  0.00  0.00    +0.000 C 
ATOM      2  O1  UNL     1      78.269  66.863 104.025  0.00  0.00    +0.000 OA
ATOM      3  C4  UNL     1      77.271  66.397 104.903  0.00  0.00    +0.000 C 
ATOM      4  O2  UNL     1      77.570  66.126 106.094  0.00  0.00    +0.000 OA
ATOM      5  C5  UNL     1      75.847  66.257 104.379  0.00  0.00    +0.000 C 
ATOM      6  C6  UNL     1      75.413  67.618 103.807  0.00  0.00    +0.000 C 
ATOM      7  C7  UNL     1      74.745  65.739 105.373  0.00  0.00    +0.000 C 
ATOM      8  C16 UNL     1      74.665  64.189 105.627  0.00  0.00    +0.000 C 
ATOM      9  C17 UNL     1      75.969  63.558 106.142  0.00  0.00    +0.000 C 
ATOM     10  C18 UNL     1      73.802  63.312 104.619  0.00  0.00    +0.000 C 
ATOM     11  C27 UNL     1      74.116  63.324 103.071  0.00  0.00    +0.000 C 
ATOM     12  C28 UNL     1      73.044  62.482 102.330  0.00  0.00    +0.000 C 
ATOM     13  C29 UNL     1      75.579  62.838 102.745  0.00  0.00    +0.000 C 
ATOM     14  C30 UNL     1      75.868  61.500 102.000  0.00  0.00    +0.000 C 
ATOM     15  C31 UNL     1      75.692  60.266 102.911  0.00  0.00    +0.000 C 
ATOM     16  C32 UNL     1      77.261  61.533 101.269  0.00  0.00    +0.000 C 
ATOM     17  N2  UNL     1      78.412  61.995 102.109  0.00  0.00    +0.000 NA
ATOM     18  C33 UNL     1      78.891  60.916 103.002  0.00  0.00    +0.000 C 
ATOM     19  C34 UNL     1      79.588  62.630 101.401  0.00  0.00    +0.000 C 
ATOM     20  C35 UNL     1      79.463  62.757  99.861  0.00  0.00    +0.000 C 
ATOM     21  C36 UNL     1      80.065  63.956 102.130  0.00  0.00    +0.000 C 
ATOM     22  C37 UNL     1      78.931  64.943 102.629  0.00  0.00    +0.000 C 
ATOM     23  C38 UNL     1      78.134  65.542 101.443  0.00  0.00    +0.000 C 
ENDROOT
BRANCH   1  25
ATOM     24  C1  UNL     1      79.901  68.462 102.804  0.00  0.00    +0.000 C 
ATOM     25  C2  UNL     1      80.457  67.051 102.989  0.00  0.00    +0.000 C 
ENDBRANCH   1  25
BRANCH  11  26
ATOM     26  O10 UNL     1      73.987  64.643 102.585  0.00  0.00    +0.000 OA
ATOM     27  H51 UNL     1      73.062  64.964 102.749  0.00  0.00    +0.000 HD
ENDBRANCH  11  26
BRANCH  21  28
ATOM     28  O11 UNL     1      81.078  64.599 101.395  0.00  0.00    +0.000 OA
ATOM     29  H68 UNL     1      81.410  65.367 101.921  0.00  0.00    +0.000 HD
ENDBRANCH  21  28
BRANCH  22  30
ATOM     30  O12 UNL     1      78.038  64.185 103.387  0.00  0.00    +0.000 OA
ATOM     31  H72 UNL     1      77.268  64.767 103.627  0.00  0.00    +0.000 HD
ENDBRANCH  22  30
BRANCH   7  32
ATOM     32  O3  UNL     1      74.897  66.438 106.606  0.00  0.00    +0.000 OA
BRANCH  32  33
ATOM     33  C8  UNL     1      73.672  66.938 107.131  0.00  0.00    +0.000 C 
ATOM     34  C9  UNL     1      73.340  66.160 108.423  0.00  0.00    +0.000 C 
ATOM     35  C10 UNL     1      71.812  66.061 108.719  0.00  0.00    +0.000 C 
ATOM     36  C11 UNL     1      71.217  64.744 108.134  0.00  0.00    +0.000 C 
ATOM     37  C13 UNL     1      71.114  67.282 108.061  0.00  0.00    +0.000 C 
ATOM     38  C14 UNL     1      71.427  67.366 106.534  0.00  0.00    +0.000 C 
ATOM     39  C15 UNL     1      71.371  68.807 106.008  0.00  0.00    +0.000 C 
ATOM     40  O6  UNL     1      72.654  66.744 106.162  0.00  0.00    +0.000 OA
BRANCH  35  41
ATOM     41  O4  UNL     1      71.564  66.173 110.121  0.00  0.00    +0.000 OA
ATOM     42  C12 UNL     1      71.249  64.944 110.748  0.00  0.00    +0.000 C 
ENDBRANCH  35  41
BRANCH  37  43
ATOM     43  O5  UNL     1      69.726  67.218 108.278  0.00  0.00    +0.000 OA
ATOM     44  H22 UNL     1      69.299  67.104 107.389  0.00  0.00    +0.000 HD
ENDBRANCH  37  43
ENDBRANCH  32  33
ENDBRANCH   7  32
BRANCH  10  45
ATOM     45  O7  UNL     1      73.778  61.960 105.068  0.00  0.00    +0.000 OA
BRANCH  45  46
ATOM     46  C19 UNL     1      72.638  61.665 105.868  0.00  0.00    +0.000 C 
ATOM     47  O8  UNL     1      72.971  61.823 107.248  0.00  0.00    +0.000 OA
ATOM     48  C20 UNL     1      73.432  60.646 107.901  0.00  0.00    +0.000 C 
ATOM     49  C21 UNL     1      74.846  60.256 107.441  0.00  0.00    +0.000 C 
ATOM     50  C22 UNL     1      72.418  59.468 107.840  0.00  0.00    +0.000 C 
ATOM     51  C23 UNL     1      71.374  59.669 106.718  0.00  0.00    +0.000 C 
ATOM     52  C24 UNL     1      72.072  60.272 105.489  0.00  0.00    +0.000 C 
BRANCH  51  53
ATOM     53  N1  UNL     1      70.593  58.453 106.367  0.00  0.00    +0.000 NA
ATOM     54  C25 UNL     1      69.327  58.376 107.114  0.00  0.00    +0.000 C 
ATOM     55  C26 UNL     1      71.328  57.178 106.461  0.00  0.00    +0.000 C 
ENDBRANCH  51  53
BRANCH  52  56
ATOM     56  O9  UNL     1      71.198  60.366 104.388  0.00  0.00    +0.000 OA
ATOM     57  H41 UNL     1      71.717  60.153 103.566  0.00  0.00    +0.000 HD
ENDBRANCH  52  56
ENDBRANCH  45  46
ENDBRANCH  10  45
TORSDOF 12
ENDMDL
MODEL 9
REMARK VINA RESULT:      -6.6      3.693      7.698
REMARK  Name = ./S4147.pdb
REMARK  26 active torsions:
REMARK  status: ('A' for Active; 'I' for Inactive)
REMARK    1  A    between atoms: C1_1  and  C2_2
REMARK    2  A    between atoms: C2_2  and  C3_3
REMARK    3  A    between atoms: C5_7  and  C6_8
REMARK    4  A    between atoms: C7_9  and  O3_10
REMARK    5  A    between atoms: O3_10  and  C8_11
REMARK    6  A    between atoms: C10_13  and  C11_14
REMARK    7  A    between atoms: C10_13  and  O4_15
REMARK    8  A    between atoms: O4_15  and  C12_16
REMARK    9  A    between atoms: C13_17  and  O5_18
REMARK   10  A    between atoms: C14_19  and  C15_20
REMARK   11  A    between atoms: C16_22  and  C17_23
REMARK   12  A    between atoms: C18_24  and  O7_25
REMARK   13  A    between atoms: O7_25  and  C19_26
REMARK   14  A    between atoms: C20_28  and  C21_29
REMARK   15  A    between atoms: C23_31  and  N1_34
REMARK   16  A    between atoms: C24_32  and  O9_33
REMARK   17  A    between atoms: N1_34  and  C25_35
REMARK   18  A    between atoms: N1_34  and  C26_36
REMARK   19  A    between atoms: C27_37  and  C28_38
REMARK   20  A    between atoms: C27_37  and  O10_39
REMARK   21  A    between atoms: C30_41  and  C31_42
REMARK   22  A    between atoms: N2_44  and  C33_45
REMARK   23  A    between atoms: C34_46  and  C35_47
REMARK   24  A    between atoms: C36_48  and  O11_49
REMARK   25  A    between atoms: C37_50  and  C38_51
REMARK   26  A    between atoms: C37_50  and  O12_52
REMARK                            x       y       z     vdW  Elec       q    Type
REMARK                         _______ _______ _______ _____ _____    ______ ____
ROOT
ATOM      1  C3  UNL     1      72.624  64.529 105.827  0.00  0.00    +0.000 C 
ATOM      2  O1  UNL     1      73.121  64.709 104.487  0.00  0.00    +0.000 OA
ATOM      3  C4  UNL     1      72.950  63.784 103.438  0.00  0.00    +0.000 C 
ATOM      4  O2  UNL     1      71.794  63.541 103.007  0.00  0.00    +0.000 OA
ATOM      5  C5  UNL     1      74.186  63.121 102.843  0.00  0.00    +0.000 C 
ATOM      6  C6  UNL     1      75.147  64.230 102.379  0.00  0.00    +0.000 C 
ATOM      7  C7  UNL     1      73.978  62.094 101.672  0.00  0.00    +0.000 C 
ATOM      8  C16 UNL     1      73.538  60.633 102.054  0.00  0.00    +0.000 C 
ATOM      9  C17 UNL     1      72.237  60.550 102.868  0.00  0.00    +0.000 C 
ATOM     10  C18 UNL     1      74.675  59.585 102.426  0.00  0.00    +0.000 C 
ATOM     11  C27 UNL     1      75.693  59.885 103.596  0.00  0.00    +0.000 C 
ATOM     12  C28 UNL     1      76.755  58.754 103.646  0.00  0.00    +0.000 C 
ATOM     13  C29 UNL     1      74.977  60.085 104.986  0.00  0.00    +0.000 C 
ATOM     14  C30 UNL     1      75.132  59.070 106.159  0.00  0.00    +0.000 C 
ATOM     15  C31 UNL     1      74.298  57.789 105.946  0.00  0.00    +0.000 C 
ATOM     16  C32 UNL     1      74.870  59.753 107.552  0.00  0.00    +0.000 C 
ATOM     17  N2  UNL     1      73.612  60.563 107.641  0.00  0.00    +0.000 NA
ATOM     18  C33 UNL     1      72.429  59.694 107.829  0.00  0.00    +0.000 C 
ATOM     19  C34 UNL     1      73.576  61.696 108.641  0.00  0.00    +0.000 C 
ATOM     20  C35 UNL     1      74.871  61.916 109.463  0.00  0.00    +0.000 C 
ATOM     21  C36 UNL     1      72.971  63.019 108.007  0.00  0.00    +0.000 C 
ATOM     22  C37 UNL     1      73.449  63.390 106.542  0.00  0.00    +0.000 C 
ATOM     23  C38 UNL     1      74.961  63.723 106.503  0.00  0.00    +0.000 C 
ENDROOT
BRANCH   1  25
ATOM     24  C1  UNL     1      71.241  66.421 106.823  0.00  0.00    +0.000 C 
ATOM     25  C2  UNL     1      72.648  65.892 106.554  0.00  0.00    +0.000 C 
ENDBRANCH   1  25
BRANCH  11  26
ATOM     26  O10 UNL     1      76.396  61.074 103.304  0.00  0.00    +0.000 OA
ATOM     27  H51 UNL     1      76.871  61.383 104.119  0.00  0.00    +0.000 HD
ENDBRANCH  11  26
BRANCH  21  28
ATOM     28  O11 UNL     1      73.055  64.095 108.909  0.00  0.00    +0.000 OA
ATOM     29  H68 UNL     1      73.725  64.738 108.570  0.00  0.00    +0.000 HD
ENDBRANCH  21  28
BRANCH  22  30
ATOM     30  O12 UNL     1      73.254  62.257 105.753  0.00  0.00    +0.000 OA
ATOM     31  H72 UNL     1      72.517  61.724 106.157  0.00  0.00    +0.000 HD
ENDBRANCH  22  30
BRANCH   7  32
ATOM     32  O3  UNL     1      73.058  62.663 100.742  0.00  0.00    +0.000 OA
BRANCH  32  33
ATOM     33  C8  UNL     1      72.280  61.694 100.047  0.00  0.00    +0.000 C 
ATOM     34  C9  UNL     1      72.961  61.404  98.691  0.00  0.00    +0.000 C 
ATOM     35  C10 UNL     1      71.966  60.961  97.574  0.00  0.00    +0.000 C 
ATOM     36  C11 UNL     1      71.497  62.187  96.732  0.00  0.00    +0.000 C 
ATOM     37  C13 UNL     1      70.738  60.300  98.257  0.00  0.00    +0.000 C 
ATOM     38  C14 UNL     1      70.082  61.255  99.303  0.00  0.00    +0.000 C 
ATOM     39  C15 UNL     1      69.375  60.487 100.428  0.00  0.00    +0.000 C 
ATOM     40  O6  UNL     1      70.979  62.221  99.844  0.00  0.00    +0.000 OA
BRANCH  35  41
ATOM     41  O4  UNL     1      72.551  59.952  96.751  0.00  0.00    +0.000 OA
ATOM     42  C12 UNL     1      73.229  58.942  97.475  0.00  0.00    +0.000 C 
ENDBRANCH  35  41
BRANCH  37  43
ATOM     43  O5  UNL     1      69.798  59.912  97.285  0.00  0.00    +0.000 OA
ATOM     44  H22 UNL     1      70.289  59.821  96.427  0.00  0.00    +0.000 HD
ENDBRANCH  37  43
ENDBRANCH  32  33
ENDBRANCH   7  32
BRANCH  10  45
ATOM     45  O7  UNL     1      74.088  58.307 102.649  0.00  0.00    +0.000 OA
BRANCH  45  46
ATOM     46  C19 UNL     1      73.650  57.683 101.447  0.00  0.00    +0.000 C 
ATOM     47  O8  UNL     1      72.492  56.891 101.715  0.00  0.00    +0.000 OA
ATOM     48  C20 UNL     1      72.749  55.531 102.041  0.00  0.00    +0.000 C 
ATOM     49  C21 UNL     1      73.367  55.387 103.441  0.00  0.00    +0.000 C 
ATOM     50  C22 UNL     1      73.539  54.769 100.938  0.00  0.00    +0.000 C 
ATOM     51  C23 UNL     1      74.262  55.741  99.978  0.00  0.00    +0.000 C 
ATOM     52  C24 UNL     1      74.827  56.917 100.789  0.00  0.00    +0.000 C 
BRANCH  51  53
ATOM     53  N1  UNL     1      75.302  55.113  99.119  0.00  0.00    +0.000 NA
ATOM     54  C25 UNL     1      74.937  55.153  97.694  0.00  0.00    +0.000 C 
ATOM     55  C26 UNL     1      75.710  53.752  99.512  0.00  0.00    +0.000 C 
ENDBRANCH  51  53
BRANCH  52  56
ATOM     56  O9  UNL     1      75.604  57.777  99.988  0.00  0.00    +0.000 OA
ATOM     57  H41 UNL     1      74.999  58.467  99.603  0.00  0.00    +0.000 HD
ENDBRANCH  52  56
ENDBRANCH  45  46
ENDBRANCH  10  45
TORSDOF 12
ENDMDL
MODEL 10
REMARK VINA RESULT:      -6.5      4.526      7.472
REMARK  Name = ./S4147.pdb
REMARK  26 active torsions:
REMARK  status: ('A' for Active; 'I' for Inactive)
REMARK    1  A    between atoms: C1_1  and  C2_2
REMARK    2  A    between atoms: C2_2  and  C3_3
REMARK    3  A    between atoms: C5_7  and  C6_8
REMARK    4  A    between atoms: C7_9  and  O3_10
REMARK    5  A    between atoms: O3_10  and  C8_11
REMARK    6  A    between atoms: C10_13  and  C11_14
REMARK    7  A    between atoms: C10_13  and  O4_15
REMARK    8  A    between atoms: O4_15  and  C12_16
REMARK    9  A    between atoms: C13_17  and  O5_18
REMARK   10  A    between atoms: C14_19  and  C15_20
REMARK   11  A    between atoms: C16_22  and  C17_23
REMARK   12  A    between atoms: C18_24  and  O7_25
REMARK   13  A    between atoms: O7_25  and  C19_26
REMARK   14  A    between atoms: C20_28  and  C21_29
REMARK   15  A    between atoms: C23_31  and  N1_34
REMARK   16  A    between atoms: C24_32  and  O9_33
REMARK   17  A    between atoms: N1_34  and  C25_35
REMARK   18  A    between atoms: N1_34  and  C26_36
REMARK   19  A    between atoms: C27_37  and  C28_38
REMARK   20  A    between atoms: C27_37  and  O10_39
REMARK   21  A    between atoms: C30_41  and  C31_42
REMARK   22  A    between atoms: N2_44  and  C33_45
REMARK   23  A    between atoms: C34_46  and  C35_47
REMARK   24  A    between atoms: C36_48  and  O11_49
REMARK   25  A    between atoms: C37_50  and  C38_51
REMARK   26  A    between atoms: C37_50  and  O12_52
REMARK                            x       y       z     vdW  Elec       q    Type
REMARK                         _______ _______ _______ _____ _____    ______ ____
ROOT
ATOM      1  C3  UNL     1      73.052  64.487 106.004  0.00  0.00    +0.000 C 
ATOM      2  O1  UNL     1      73.969  65.113 105.086  0.00  0.00    +0.000 OA
ATOM      3  C4  UNL     1      74.260  64.637 103.794  0.00  0.00    +0.000 C 
ATOM      4  O2  UNL     1      73.355  64.618 102.921  0.00  0.00    +0.000 OA
ATOM      5  C5  UNL     1      75.680  64.175 103.489  0.00  0.00    +0.000 C 
ATOM      6  C6  UNL     1      76.640  65.332 103.822  0.00  0.00    +0.000 C 
ATOM      7  C7  UNL     1      75.988  63.650 102.041  0.00  0.00    +0.000 C 
ATOM      8  C16 UNL     1      75.575  62.171 101.700  0.00  0.00    +0.000 C 
ATOM      9  C17 UNL     1      74.083  61.861 101.908  0.00  0.00    +0.000 C 
ATOM     10  C18 UNL     1      76.597  61.008 102.061  0.00  0.00    +0.000 C 
ATOM     11  C27 UNL     1      77.109  60.819 103.544  0.00  0.00    +0.000 C 
ATOM     12  C28 UNL     1      78.183  59.699 103.571  0.00  0.00    +0.000 C 
ATOM     13  C29 UNL     1      75.937  60.539 104.559  0.00  0.00    +0.000 C 
ATOM     14  C30 UNL     1      75.760  59.165 105.272  0.00  0.00    +0.000 C 
ATOM     15  C31 UNL     1      75.171  58.086 104.339  0.00  0.00    +0.000 C 
ATOM     16  C32 UNL     1      74.966  59.312 106.623  0.00  0.00    +0.000 C 
ATOM     17  N2  UNL     1      73.691  60.092 106.533  0.00  0.00    +0.000 NA
ATOM     18  C33 UNL     1      72.599  59.270 105.965  0.00  0.00    +0.000 C 
ATOM     19  C34 UNL     1      73.205  60.791 107.783  0.00  0.00    +0.000 C 
ATOM     20  C35 UNL     1      74.105  60.641 109.036  0.00  0.00    +0.000 C 
ATOM     21  C36 UNL     1      72.746  62.279 107.482  0.00  0.00    +0.000 C 
ATOM     22  C37 UNL     1      73.672  63.130 106.518  0.00  0.00    +0.000 C 
ATOM     23  C38 UNL     1      75.066  63.384 107.144  0.00  0.00    +0.000 C 
ENDROOT
BRANCH   1  25
ATOM     24  C1  UNL     1      71.247  65.962 107.029  0.00  0.00    +0.000 C 
ATOM     25  C2  UNL     1      72.698  65.495 107.120  0.00  0.00    +0.000 C 
ENDBRANCH   1  25
BRANCH  11  26
ATOM     26  O10 UNL     1      77.761  62.000 103.961  0.00  0.00    +0.000 OA
ATOM     27  H51 UNL     1      78.713  61.965 103.682  0.00  0.00    +0.000 HD
ENDBRANCH  11  26
BRANCH  21  28
ATOM     28  O11 UNL     1      72.412  62.954 108.670  0.00  0.00    +0.000 OA
ATOM     29  H68 UNL     1      72.180  63.889 108.447  0.00  0.00    +0.000 HD
ENDBRANCH  21  28
BRANCH  22  30
ATOM     30  O12 UNL     1      73.868  62.367 105.367  0.00  0.00    +0.000 OA
ATOM     31  H72 UNL     1      74.703  61.840 105.487  0.00  0.00    +0.000 HD
ENDBRANCH  22  30
BRANCH   7  32
ATOM     32  O3  UNL     1      75.406  64.556 101.107  0.00  0.00    +0.000 OA
BRANCH  32  33
ATOM     33  C8  UNL     1      76.214  64.783  99.956  0.00  0.00    +0.000 C 
ATOM     34  C9  UNL     1      77.690  64.545 100.342  0.00  0.00    +0.000 C 
ATOM     35  C10 UNL     1      78.701  65.379  99.495  0.00  0.00    +0.000 C 
ATOM     36  C11 UNL     1      79.047  66.722 100.209  0.00  0.00    +0.000 C 
ATOM     37  C13 UNL     1      78.046  65.677  98.120  0.00  0.00    +0.000 C 
ATOM     38  C14 UNL     1      76.667  66.389  98.285  0.00  0.00    +0.000 C 
ATOM     39  C15 UNL     1      75.717  66.096  97.115  0.00  0.00    +0.000 C 
ATOM     40  O6  UNL     1      76.025  66.123  99.529  0.00  0.00    +0.000 OA
BRANCH  35  41
ATOM     41  O4  UNL     1      79.874  64.615  99.217  0.00  0.00    +0.000 OA
ATOM     42  C12 UNL     1      79.728  63.229  99.463  0.00  0.00    +0.000 C 
ENDBRANCH  35  41
BRANCH  37  43
ATOM     43  O5  UNL     1      78.912  66.456  97.332  0.00  0.00    +0.000 OA
ATOM     44  H22 UNL     1      78.665  66.296  96.384  0.00  0.00    +0.000 HD
ENDBRANCH  37  43
ENDBRANCH  32  33
ENDBRANCH   7  32
BRANCH  10  45
ATOM     45  O7  UNL     1      76.085  59.763 101.595  0.00  0.00    +0.000 OA
BRANCH  45  46
ATOM     46  C19 UNL     1      76.952  59.124 100.663  0.00  0.00    +0.000 C 
ATOM     47  O8  UNL     1      76.910  59.822  99.417  0.00  0.00    +0.000 OA
ATOM     48  C20 UNL     1      75.950  59.342  98.484  0.00  0.00    +0.000 C 
ATOM     49  C21 UNL     1      74.515  59.692  98.910  0.00  0.00    +0.000 C 
ATOM     50  C22 UNL     1      76.136  57.839  98.125  0.00  0.00    +0.000 C 
ATOM     51  C23 UNL     1      76.991  57.100  99.179  0.00  0.00    +0.000 C 
ATOM     52  C24 UNL     1      76.615  57.614 100.577  0.00  0.00    +0.000 C 
BRANCH  51  53
ATOM     53  N1  UNL     1      76.932  55.616  99.102  0.00  0.00    +0.000 NA
ATOM     54  C25 UNL     1      78.229  55.031  98.725  0.00  0.00    +0.000 C 
ATOM     55  C26 UNL     1      75.853  55.068  98.260  0.00  0.00    +0.000 C 
ENDBRANCH  51  53
BRANCH  52  56
ATOM     56  O9  UNL     1      77.273  56.891 101.592  0.00  0.00    +0.000 OA
ATOM     57  H41 UNL     1      78.239  56.850 101.362  0.00  0.00    +0.000 HD
ENDBRANCH  52  56
ENDBRANCH  45  46
ENDBRANCH  10  45
TORSDOF 12
ENDMDL
MODEL 11
REMARK VINA RESULT:      -6.5      3.748      9.070
REMARK  Name = ./S4147.pdb
REMARK  26 active torsions:
REMARK  status: ('A' for Active; 'I' for Inactive)
REMARK    1  A    between atoms: C1_1  and  C2_2
REMARK    2  A    between atoms: C2_2  and  C3_3
REMARK    3  A    between atoms: C5_7  and  C6_8
REMARK    4  A    between atoms: C7_9  and  O3_10
REMARK    5  A    between atoms: O3_10  and  C8_11
REMARK    6  A    between atoms: C10_13  and  C11_14
REMARK    7  A    between atoms: C10_13  and  O4_15
REMARK    8  A    between atoms: O4_15  and  C12_16
REMARK    9  A    between atoms: C13_17  and  O5_18
REMARK   10  A    between atoms: C14_19  and  C15_20
REMARK   11  A    between atoms: C16_22  and  C17_23
REMARK   12  A    between atoms: C18_24  and  O7_25
REMARK   13  A    between atoms: O7_25  and  C19_26
REMARK   14  A    between atoms: C20_28  and  C21_29
REMARK   15  A    between atoms: C23_31  and  N1_34
REMARK   16  A    between atoms: C24_32  and  O9_33
REMARK   17  A    between atoms: N1_34  and  C25_35
REMARK   18  A    between atoms: N1_34  and  C26_36
REMARK   19  A    between atoms: C27_37  and  C28_38
REMARK   20  A    between atoms: C27_37  and  O10_39
REMARK   21  A    between atoms: C30_41  and  C31_42
REMARK   22  A    between atoms: N2_44  and  C33_45
REMARK   23  A    between atoms: C34_46  and  C35_47
REMARK   24  A    between atoms: C36_48  and  O11_49
REMARK   25  A    between atoms: C37_50  and  C38_51
REMARK   26  A    between atoms: C37_50  and  O12_52
REMARK                            x       y       z     vdW  Elec       q    Type
REMARK                         _______ _______ _______ _____ _____    ______ ____
ROOT
ATOM      1  C3  UNL     1      78.897  63.402 100.536  0.00  0.00    +0.000 C 
ATOM      2  O1  UNL     1      77.724  62.587 100.345  0.00  0.00    +0.000 OA
ATOM      3  C4  UNL     1      76.446  62.891 100.850  0.00  0.00    +0.000 C 
ATOM      4  O2  UNL     1      75.840  63.911 100.432  0.00  0.00    +0.000 OA
ATOM      5  C5  UNL     1      75.826  61.953 101.879  0.00  0.00    +0.000 C 
ATOM      6  C6  UNL     1      75.802  60.536 101.279  0.00  0.00    +0.000 C 
ATOM      7  C7  UNL     1      74.397  62.306 102.429  0.00  0.00    +0.000 C 
ATOM      8  C16 UNL     1      74.301  63.396 103.559  0.00  0.00    +0.000 C 
ATOM      9  C17 UNL     1      74.912  64.757 103.186  0.00  0.00    +0.000 C 
ATOM     10  C18 UNL     1      74.485  62.927 105.067  0.00  0.00    +0.000 C 
ATOM     11  C27 UNL     1      75.796  62.172 105.520  0.00  0.00    +0.000 C 
ATOM     12  C28 UNL     1      75.641  61.730 107.000  0.00  0.00    +0.000 C 
ATOM     13  C29 UNL     1      77.099  63.029 105.293  0.00  0.00    +0.000 C 
ATOM     14  C30 UNL     1      77.948  63.588 106.475  0.00  0.00    +0.000 C 
ATOM     15  C31 UNL     1      77.292  64.814 107.145  0.00  0.00    +0.000 C 
ATOM     16  C32 UNL     1      79.439  63.844 106.045  0.00  0.00    +0.000 C 
ATOM     17  N2  UNL     1      79.615  64.625 104.778  0.00  0.00    +0.000 NA
ATOM     18  C33 UNL     1      79.419  66.073 105.011  0.00  0.00    +0.000 C 
ATOM     19  C34 UNL     1      80.883  64.403 103.986  0.00  0.00    +0.000 C 
ATOM     20  C35 UNL     1      81.871  63.359 104.567  0.00  0.00    +0.000 C 
ATOM     21  C36 UNL     1      80.586  64.230 102.438  0.00  0.00    +0.000 C 
ATOM     22  C37 UNL     1      79.347  63.322 102.047  0.00  0.00    +0.000 C 
ATOM     23  C38 UNL     1      79.570  61.846 102.459  0.00  0.00    +0.000 C 
ENDROOT
BRANCH   1  25
ATOM     24  C1  UNL     1      80.271  64.063  98.496  0.00  0.00    +0.000 C 
ATOM     25  C2  UNL     1      79.977  62.968  99.521  0.00  0.00    +0.000 C 
ENDBRANCH   1  25
BRANCH  11  26
ATOM     26  O10 UNL     1      75.930  60.986 104.766  0.00  0.00    +0.000 OA
ATOM     27  H51 UNL     1      75.073  60.793 104.303  0.00  0.00    +0.000 HD
ENDBRANCH  11  26
BRANCH  21  28
ATOM     28  O11 UNL     1      81.758  63.904 101.732  0.00  0.00    +0.000 OA
ATOM     29  H68 UNL     1      81.612  64.093 100.772  0.00  0.00    +0.000 HD
ENDBRANCH  21  28
BRANCH  22  30
ATOM     30  O12 UNL     1      78.254  63.795 102.772  0.00  0.00    +0.000 OA
ATOM     31  H72 UNL     1      77.676  64.316 102.152  0.00  0.00    +0.000 HD
ENDBRANCH  22  30
BRANCH   7  32
ATOM     32  O3  UNL     1      73.572  62.661 101.323  0.00  0.00    +0.000 OA
BRANCH  32  33
ATOM     33  C8  UNL     1      72.303  62.014 101.330  0.00  0.00    +0.000 C 
ATOM     34  C9  UNL     1      72.307  60.924 100.236  0.00  0.00    +0.000 C 
ATOM     35  C10 UNL     1      70.894  60.627  99.643  0.00  0.00    +0.000 C 
ATOM     36  C11 UNL     1      70.639  61.482  98.365  0.00  0.00    +0.000 C 
ATOM     37  C13 UNL     1      69.836  60.980 100.723  0.00  0.00    +0.000 C 
ATOM     38  C14 UNL     1      69.986  62.454 101.212  0.00  0.00    +0.000 C 
ATOM     39  C15 UNL     1      69.493  62.642 102.653  0.00  0.00    +0.000 C 
ATOM     40  O6  UNL     1      71.301  62.982 101.060  0.00  0.00    +0.000 OA
BRANCH  35  41
ATOM     41  O4  UNL     1      70.742  59.232  99.382  0.00  0.00    +0.000 OA
ATOM     42  C12 UNL     1      71.834  58.444  99.816  0.00  0.00    +0.000 C 
ENDBRANCH  35  41
BRANCH  37  43
ATOM     43  O5  UNL     1      68.541  60.756 100.219  0.00  0.00    +0.000 OA
ATOM     44  H22 UNL     1      67.907  60.934 100.962  0.00  0.00    +0.000 HD
ENDBRANCH  37  43
ENDBRANCH  32  33
ENDBRANCH   7  32
BRANCH  10  45
ATOM     45  O7  UNL     1      74.273  64.034 105.938  0.00  0.00    +0.000 OA
BRANCH  45  46
ATOM     46  C19 UNL     1      73.116  63.881 106.753  0.00  0.00    +0.000 C 
ATOM     47  O8  UNL     1      71.977  64.404 106.068  0.00  0.00    +0.000 OA
ATOM     48  C20 UNL     1      71.685  65.771 106.331  0.00  0.00    +0.000 C 
ATOM     49  C21 UNL     1      72.709  66.710 105.675  0.00  0.00    +0.000 C 
ATOM     50  C22 UNL     1      71.449  66.073 107.839  0.00  0.00    +0.000 C 
ATOM     51  C23 UNL     1      72.033  64.964 108.743  0.00  0.00    +0.000 C 
ATOM     52  C24 UNL     1      73.372  64.493 108.155  0.00  0.00    +0.000 C 
BRANCH  51  53
ATOM     53  N1  UNL     1      72.160  65.330 110.179  0.00  0.00    +0.000 NA
ATOM     54  C25 UNL     1      70.932  65.031 110.934  0.00  0.00    +0.000 C 
ATOM     55  C26 UNL     1      72.607  66.709 110.444  0.00  0.00    +0.000 C 
ENDBRANCH  51  53
BRANCH  52  56
ATOM     56  O9  UNL     1      74.015  63.567 109.000  0.00  0.00    +0.000 OA
ATOM     57  H41 UNL     1      74.164  62.731 108.482  0.00  0.00    +0.000 HD
ENDBRANCH  52  56
ENDBRANCH  45  46
ENDBRANCH  10  45
TORSDOF 12
ENDMDL
MODEL 12
REMARK VINA RESULT:      -6.4      3.218      7.615
REMARK  Name = ./S4147.pdb
REMARK  26 active torsions:
REMARK  status: ('A' for Active; 'I' for Inactive)
REMARK    1  A    between atoms: C1_1  and  C2_2
REMARK    2  A    between atoms: C2_2  and  C3_3
REMARK    3  A    between atoms: C5_7  and  C6_8
REMARK    4  A    between atoms: C7_9  and  O3_10
REMARK    5  A    between atoms: O3_10  and  C8_11
REMARK    6  A    between atoms: C10_13  and  C11_14
REMARK    7  A    between atoms: C10_13  and  O4_15
REMARK    8  A    between atoms: O4_15  and  C12_16
REMARK    9  A    between atoms: C13_17  and  O5_18
REMARK   10  A    between atoms: C14_19  and  C15_20
REMARK   11  A    between atoms: C16_22  and  C17_23
REMARK   12  A    between atoms: C18_24  and  O7_25
REMARK   13  A    between atoms: O7_25  and  C19_26
REMARK   14  A    between atoms: C20_28  and  C21_29
REMARK   15  A    between atoms: C23_31  and  N1_34
REMARK   16  A    between atoms: C24_32  and  O9_33
REMARK   17  A    between atoms: N1_34  and  C25_35
REMARK   18  A    between atoms: N1_34  and  C26_36
REMARK   19  A    between atoms: C27_37  and  C28_38
REMARK   20  A    between atoms: C27_37  and  O10_39
REMARK   21  A    between atoms: C30_41  and  C31_42
REMARK   22  A    between atoms: N2_44  and  C33_45
REMARK   23  A    between atoms: C34_46  and  C35_47
REMARK   24  A    between atoms: C36_48  and  O11_49
REMARK   25  A    between atoms: C37_50  and  C38_51
REMARK   26  A    between atoms: C37_50  and  O12_52
REMARK                            x       y       z     vdW  Elec       q    Type
REMARK                         _______ _______ _______ _____ _____    ______ ____
ROOT
ATOM      1  C3  UNL     1      72.193  60.581 106.318  0.00  0.00    +0.000 C 
ATOM      2  O1  UNL     1      72.480  61.130 107.619  0.00  0.00    +0.000 OA
ATOM      3  C4  UNL     1      72.728  62.492 107.877  0.00  0.00    +0.000 C 
ATOM      4  O2  UNL     1      71.814  63.335 107.691  0.00  0.00    +0.000 OA
ATOM      5  C5  UNL     1      74.102  62.897 108.397  0.00  0.00    +0.000 C 
ATOM      6  C6  UNL     1      74.387  62.087 109.674  0.00  0.00    +0.000 C 
ATOM      7  C7  UNL     1      74.361  64.420 108.682  0.00  0.00    +0.000 C 
ATOM      8  C16 UNL     1      74.698  65.344 107.454  0.00  0.00    +0.000 C 
ATOM      9  C17 UNL     1      73.637  65.340 106.342  0.00  0.00    +0.000 C 
ATOM     10  C18 UNL     1      76.215  65.438 106.986  0.00  0.00    +0.000 C 
ATOM     11  C27 UNL     1      77.015  64.137 106.583  0.00  0.00    +0.000 C 
ATOM     12  C28 UNL     1      78.491  64.518 106.295  0.00  0.00    +0.000 C 
ATOM     13  C29 UNL     1      76.355  63.370 105.374  0.00  0.00    +0.000 C 
ATOM     14  C30 UNL     1      77.033  63.277 103.974  0.00  0.00    +0.000 C 
ATOM     15  C31 UNL     1      76.911  64.589 103.171  0.00  0.00    +0.000 C 
ATOM     16  C32 UNL     1      76.539  62.016 103.174  0.00  0.00    +0.000 C 
ATOM     17  N2  UNL     1      75.052  61.838 103.117  0.00  0.00    +0.000 NA
ATOM     18  C33 UNL     1      74.444  62.733 102.108  0.00  0.00    +0.000 C 
ATOM     19  C34 UNL     1      74.520  60.434 102.940  0.00  0.00    +0.000 C 
ATOM     20  C35 UNL     1      75.585  59.310 102.857  0.00  0.00    +0.000 C 
ATOM     21  C36 UNL     1      73.324  60.129 103.937  0.00  0.00    +0.000 C 
ATOM     22  C37 UNL     1      73.496  60.630 105.431  0.00  0.00    +0.000 C 
ATOM     23  C38 UNL     1      74.658  59.898 106.148  0.00  0.00    +0.000 C 
ENDROOT
BRANCH   1  25
ATOM     24  C1  UNL     1      71.775  58.644 107.919  0.00  0.00    +0.000 C 
ATOM     25  C2  UNL     1      71.591  59.169 106.496  0.00  0.00    +0.000 C 
ENDBRANCH   1  25
BRANCH  11  26
ATOM     26  O10 UNL     1      77.043  63.253 107.684  0.00  0.00    +0.000 OA
ATOM     27  H51 UNL     1      77.853  62.681 107.625  0.00  0.00    +0.000 HD
ENDBRANCH  11  26
BRANCH  21  28
ATOM     28  O11 UNL     1      72.920  58.785 103.845  0.00  0.00    +0.000 OA
ATOM     29  H68 UNL     1      72.857  58.412 104.759  0.00  0.00    +0.000 HD
ENDBRANCH  21  28
BRANCH  22  30
ATOM     30  O12 UNL     1      73.836  61.982 105.368  0.00  0.00    +0.000 OA
ATOM     31  H72 UNL     1      74.673  62.064 104.837  0.00  0.00    +0.000 HD
ENDBRANCH  22  30
BRANCH   7  32
ATOM     32  O3  UNL     1      73.240  64.934 109.398  0.00  0.00    +0.000 OA
BRANCH  32  33
ATOM     33  C8  UNL     1      73.599  65.795 110.474  0.00  0.00    +0.000 C 
ATOM     34  C9  UNL     1      73.806  67.218 109.911  0.00  0.00    +0.000 C 
ATOM     35  C10 UNL     1      74.825  68.071 110.728  0.00  0.00    +0.000 C 
ATOM     36  C11 UNL     1      76.258  67.952 110.125  0.00  0.00    +0.000 C 
ATOM     37  C13 UNL     1      74.831  67.546 112.189  0.00  0.00    +0.000 C 
ATOM     38  C14 UNL     1      75.145  66.017 112.246  0.00  0.00    +0.000 C 
ATOM     39  C15 UNL     1      74.518  65.341 113.473  0.00  0.00    +0.000 C 
ATOM     40  O6  UNL     1      74.800  65.313 111.055  0.00  0.00    +0.000 OA
BRANCH  35  41
ATOM     41  O4  UNL     1      74.397  69.432 110.800  0.00  0.00    +0.000 OA
ATOM     42  C12 UNL     1      74.803  70.220 109.698  0.00  0.00    +0.000 C 
ENDBRANCH  35  41
BRANCH  37  43
ATOM     43  O5  UNL     1      75.762  68.269 112.957  0.00  0.00    +0.000 OA
ATOM     44  H22 UNL     1      75.835  67.808 113.833  0.00  0.00    +0.000 HD
ENDBRANCH  37  43
ENDBRANCH  32  33
ENDBRANCH   7  32
BRANCH  10  45
ATOM     45  O7  UNL     1      76.327  66.387 105.930  0.00  0.00    +0.000 OA
BRANCH  45  46
ATOM     46  C19 UNL     1      76.368  67.731 106.397  0.00  0.00    +0.000 C 
ATOM     47  O8  UNL     1      75.375  68.502 105.720  0.00  0.00    +0.000 OA
ATOM     48  C20 UNL     1      75.817  69.156 104.536  0.00  0.00    +0.000 C 
ATOM     49  C21 UNL     1      76.054  68.160 103.389  0.00  0.00    +0.000 C 
ATOM     50  C22 UNL     1      77.015  70.120 104.773  0.00  0.00    +0.000 C 
ATOM     51  C23 UNL     1      77.746  69.809 106.098  0.00  0.00    +0.000 C 
ATOM     52  C24 UNL     1      77.812  68.286 106.287  0.00  0.00    +0.000 C 
BRANCH  51  53
ATOM     53  N1  UNL     1      79.086  70.441 106.236  0.00  0.00    +0.000 NA
ATOM     54  C25 UNL     1      79.095  71.495 107.263  0.00  0.00    +0.000 C 
ATOM     55  C26 UNL     1      79.685  70.934 104.983  0.00  0.00    +0.000 C 
ENDBRANCH  51  53
BRANCH  52  56
ATOM     56  O9  UNL     1      78.576  67.933 107.417  0.00  0.00    +0.000 OA
ATOM     57  H41 UNL     1      78.965  67.032 107.256  0.00  0.00    +0.000 HD
ENDBRANCH  52  56
ENDBRANCH  45  46
ENDBRANCH  10  45
TORSDOF 12
ENDMDL
MODEL 13
REMARK VINA RESULT:      -6.4      2.759      7.355
REMARK  Name = ./S4147.pdb
REMARK  26 active torsions:
REMARK  status: ('A' for Active; 'I' for Inactive)
REMARK    1  A    between atoms: C1_1  and  C2_2
REMARK    2  A    between atoms: C2_2  and  C3_3
REMARK    3  A    between atoms: C5_7  and  C6_8
REMARK    4  A    between atoms: C7_9  and  O3_10
REMARK    5  A    between atoms: O3_10  and  C8_11
REMARK    6  A    between atoms: C10_13  and  C11_14
REMARK    7  A    between atoms: C10_13  and  O4_15
REMARK    8  A    between atoms: O4_15  and  C12_16
REMARK    9  A    between atoms: C13_17  and  O5_18
REMARK   10  A    between atoms: C14_19  and  C15_20
REMARK   11  A    between atoms: C16_22  and  C17_23
REMARK   12  A    between atoms: C18_24  and  O7_25
REMARK   13  A    between atoms: O7_25  and  C19_26
REMARK   14  A    between atoms: C20_28  and  C21_29
REMARK   15  A    between atoms: C23_31  and  N1_34
REMARK   16  A    between atoms: C24_32  and  O9_33
REMARK   17  A    between atoms: N1_34  and  C25_35
REMARK   18  A    between atoms: N1_34  and  C26_36
REMARK   19  A    between atoms: C27_37  and  C28_38
REMARK   20  A    between atoms: C27_37  and  O10_39
REMARK   21  A    between atoms: C30_41  and  C31_42
REMARK   22  A    between atoms: N2_44  and  C33_45
REMARK   23  A    between atoms: C34_46  and  C35_47
REMARK   24  A    between atoms: C36_48  and  O11_49
REMARK   25  A    between atoms: C37_50  and  C38_51
REMARK   26  A    between atoms: C37_50  and  O12_52
REMARK                            x       y       z     vdW  Elec       q    Type
REMARK                         _______ _______ _______ _____ _____    ______ ____
ROOT
ATOM      1  C3  UNL     1      77.493  62.175 112.725  0.00  0.00    +0.000 C 
ATOM      2  O1  UNL     1      77.337  61.625 111.402  0.00  0.00    +0.000 OA
ATOM      3  C4  UNL     1      77.182  62.389 110.230  0.00  0.00    +0.000 C 
ATOM      4  O2  UNL     1      78.122  63.129 109.842  0.00  0.00    +0.000 OA
ATOM      5  C5  UNL     1      75.876  62.276 109.453  0.00  0.00    +0.000 C 
ATOM      6  C6  UNL     1      75.649  60.791 109.115  0.00  0.00    +0.000 C 
ATOM      7  C7  UNL     1      75.721  63.133 108.145  0.00  0.00    +0.000 C 
ATOM      8  C16 UNL     1      75.338  64.650 108.311  0.00  0.00    +0.000 C 
ATOM      9  C17 UNL     1      76.309  65.461 109.185  0.00  0.00    +0.000 C 
ATOM     10  C18 UNL     1      73.797  65.022 108.429  0.00  0.00    +0.000 C 
ATOM     11  C27 UNL     1      72.901  64.385 109.563  0.00  0.00    +0.000 C 
ATOM     12  C28 UNL     1      71.429  64.830 109.356  0.00  0.00    +0.000 C 
ATOM     13  C29 UNL     1      73.423  64.724 111.011  0.00  0.00    +0.000 C 
ATOM     14  C30 UNL     1      72.634  65.646 111.989  0.00  0.00    +0.000 C 
ATOM     15  C31 UNL     1      72.763  67.140 111.624  0.00  0.00    +0.000 C 
ATOM     16  C32 UNL     1      72.998  65.344 113.489  0.00  0.00    +0.000 C 
ATOM     17  N2  UNL     1      74.464  65.287 113.793  0.00  0.00    +0.000 NA
ATOM     18  C33 UNL     1      75.038  66.646 113.913  0.00  0.00    +0.000 C 
ATOM     19  C34 UNL     1      74.906  64.442 114.966  0.00  0.00    +0.000 C 
ATOM     20  C35 UNL     1      73.780  63.695 115.725  0.00  0.00    +0.000 C 
ATOM     21  C36 UNL     1      76.158  63.539 114.599  0.00  0.00    +0.000 C 
ATOM     22  C37 UNL     1      76.129  62.819 113.187  0.00  0.00    +0.000 C 
ATOM     23  C38 UNL     1      74.990  61.773 113.104  0.00  0.00    +0.000 C 
ENDROOT
BRANCH   1  25
ATOM     24  C1  UNL     1      78.626  59.900 112.884  0.00  0.00    +0.000 C 
ATOM     25  C2  UNL     1      78.032  61.072 113.663  0.00  0.00    +0.000 C 
ENDBRANCH   1  25
BRANCH  11  26
ATOM     26  O10 UNL     1      72.911  62.980 109.424  0.00  0.00    +0.000 OA
ATOM     27  H51 UNL     1      72.574  62.737 108.523  0.00  0.00    +0.000 HD
ENDBRANCH  11  26
BRANCH  21  28
ATOM     28  O11 UNL     1      76.482  62.671 115.658  0.00  0.00    +0.000 OA
ATOM     29  H68 UNL     1      75.738  62.031 115.779  0.00  0.00    +0.000 HD
ENDBRANCH  21  28
BRANCH  22  30
ATOM     30  O12 UNL     1      75.857  63.804 112.237  0.00  0.00    +0.000 OA
ATOM     31  H72 UNL     1      75.347  63.381 111.494  0.00  0.00    +0.000 HD
ENDBRANCH  22  30
BRANCH   7  32
ATOM     32  O3  UNL     1      76.919  63.002 107.385  0.00  0.00    +0.000 OA
BRANCH  32  33
ATOM     33  C8  UNL     1      76.706  63.041 105.978  0.00  0.00    +0.000 C 
ATOM     34  C9  UNL     1      75.743  61.896 105.598  0.00  0.00    +0.000 C 
ATOM     35  C10 UNL     1      75.946  61.363 104.146  0.00  0.00    +0.000 C 
ATOM     36  C11 UNL     1      76.917  60.143 104.134  0.00  0.00    +0.000 C 
ATOM     37  C13 UNL     1      76.545  62.511 103.291  0.00  0.00    +0.000 C 
ATOM     38  C14 UNL     1      77.863  63.065 103.918  0.00  0.00    +0.000 C 
ATOM     39  C15 UNL     1      78.105  64.537 103.559  0.00  0.00    +0.000 C 
ATOM     40  O6  UNL     1      77.956  62.872 105.328  0.00  0.00    +0.000 OA
BRANCH  35  41
ATOM     41  O4  UNL     1      74.690  61.040 103.549  0.00  0.00    +0.000 OA
ATOM     42  C12 UNL     1      73.674  61.992 103.799  0.00  0.00    +0.000 C 
ENDBRANCH  35  41
BRANCH  37  43
ATOM     43  O5  UNL     1      76.775  62.065 101.977  0.00  0.00    +0.000 OA
ATOM     44  H22 UNL     1      77.697  61.697 101.952  0.00  0.00    +0.000 HD
ENDBRANCH  37  43
ENDBRANCH  32  33
ENDBRANCH   7  32
BRANCH  10  45
ATOM     45  O7  UNL     1      73.653  66.438 108.478  0.00  0.00    +0.000 OA
BRANCH  45  46
ATOM     46  C19 UNL     1      73.581  67.031 107.185  0.00  0.00    +0.000 C 
ATOM     47  O8  UNL     1      74.664  67.947 107.019  0.00  0.00    +0.000 OA
ATOM     48  C20 UNL     1      74.382  69.293 107.386  0.00  0.00    +0.000 C 
ATOM     49  C21 UNL     1      74.267  69.457 108.910  0.00  0.00    +0.000 C 
ATOM     50  C22 UNL     1      73.182  69.906 106.608  0.00  0.00    +0.000 C 
ATOM     51  C23 UNL     1      72.289  68.813 105.978  0.00  0.00    +0.000 C 
ATOM     52  C24 UNL     1      72.172  67.637 106.959  0.00  0.00    +0.000 C 
BRANCH  51  53
ATOM     53  N1  UNL     1      70.955  69.284 105.519  0.00  0.00    +0.000 NA
ATOM     54  C25 UNL     1      71.053  70.136 104.323  0.00  0.00    +0.000 C 
ATOM     55  C26 UNL     1      70.123  69.931 106.549  0.00  0.00    +0.000 C 
ENDBRANCH  51  53
BRANCH  52  56
ATOM     56  O9  UNL     1      71.270  66.659 106.495  0.00  0.00    +0.000 OA
ATOM     57  H41 UNL     1      71.646  66.266 105.662  0.00  0.00    +0.000 HD
ENDBRANCH  52  56
ENDBRANCH  45  46
ENDBRANCH  10  45
TORSDOF 12
ENDMDL
MODEL 14
REMARK VINA RESULT:      -6.4      2.945      8.089
REMARK  Name = ./S4147.pdb
REMARK  26 active torsions:
REMARK  status: ('A' for Active; 'I' for Inactive)
REMARK    1  A    between atoms: C1_1  and  C2_2
REMARK    2  A    between atoms: C2_2  and  C3_3
REMARK    3  A    between atoms: C5_7  and  C6_8
REMARK    4  A    between atoms: C7_9  and  O3_10
REMARK    5  A    between atoms: O3_10  and  C8_11
REMARK    6  A    between atoms: C10_13  and  C11_14
REMARK    7  A    between atoms: C10_13  and  O4_15
REMARK    8  A    between atoms: O4_15  and  C12_16
REMARK    9  A    between atoms: C13_17  and  O5_18
REMARK   10  A    between atoms: C14_19  and  C15_20
REMARK   11  A    between atoms: C16_22  and  C17_23
REMARK   12  A    between atoms: C18_24  and  O7_25
REMARK   13  A    between atoms: O7_25  and  C19_26
REMARK   14  A    between atoms: C20_28  and  C21_29
REMARK   15  A    between atoms: C23_31  and  N1_34
REMARK   16  A    between atoms: C24_32  and  O9_33
REMARK   17  A    between atoms: N1_34  and  C25_35
REMARK   18  A    between atoms: N1_34  and  C26_36
REMARK   19  A    between atoms: C27_37  and  C28_38
REMARK   20  A    between atoms: C27_37  and  O10_39
REMARK   21  A    between atoms: C30_41  and  C31_42
REMARK   22  A    between atoms: N2_44  and  C33_45
REMARK   23  A    between atoms: C34_46  and  C35_47
REMARK   24  A    between atoms: C36_48  and  O11_49
REMARK   25  A    between atoms: C37_50  and  C38_51
REMARK   26  A    between atoms: C37_50  and  O12_52
REMARK                            x       y       z     vdW  Elec       q    Type
REMARK                         _______ _______ _______ _____ _____    ______ ____
ROOT
ATOM      1  C3  UNL     1      76.297  63.523 102.427  0.00  0.00    +0.000 C 
ATOM      2  O1  UNL     1      76.139  64.911 102.780  0.00  0.00    +0.000 OA
ATOM      3  C4  UNL     1      76.370  65.443 104.063  0.00  0.00    +0.000 C 
ATOM      4  O2  UNL     1      77.533  65.424 104.542  0.00  0.00    +0.000 OA
ATOM      5  C5  UNL     1      75.197  66.049 104.824  0.00  0.00    +0.000 C 
ATOM      6  C6  UNL     1      74.564  67.137 103.938  0.00  0.00    +0.000 C 
ATOM      7  C7  UNL     1      75.474  66.641 106.253  0.00  0.00    +0.000 C 
ATOM      8  C16 UNL     1      75.562  65.630 107.455  0.00  0.00    +0.000 C 
ATOM      9  C17 UNL     1      76.623  64.530 107.287  0.00  0.00    +0.000 C 
ATOM     10  C18 UNL     1      74.209  65.206 108.174  0.00  0.00    +0.000 C 
ATOM     11  C27 UNL     1      73.030  64.554 107.350  0.00  0.00    +0.000 C 
ATOM     12  C28 UNL     1      71.804  64.365 108.282  0.00  0.00    +0.000 C 
ATOM     13  C29 UNL     1      73.452  63.209 106.647  0.00  0.00    +0.000 C 
ATOM     14  C30 UNL     1      72.876  61.826 107.076  0.00  0.00    +0.000 C 
ATOM     15  C31 UNL     1      73.503  61.305 108.387  0.00  0.00    +0.000 C 
ATOM     16  C32 UNL     1      72.944  60.781 105.902  0.00  0.00    +0.000 C 
ATOM     17  N2  UNL     1      74.273  60.674 105.218  0.00  0.00    +0.000 NA
ATOM     18  C33 UNL     1      75.220  59.862 106.014  0.00  0.00    +0.000 C 
ATOM     19  C34 UNL     1      74.287  60.209 103.779  0.00  0.00    +0.000 C 
ATOM     20  C35 UNL     1      72.902  59.910 103.150  0.00  0.00    +0.000 C 
ATOM     21  C36 UNL     1      75.233  61.111 102.881  0.00  0.00    +0.000 C 
ATOM     22  C37 UNL     1      75.153  62.677 103.111  0.00  0.00    +0.000 C 
ATOM     23  C38 UNL     1      73.765  63.242 102.718  0.00  0.00    +0.000 C 
ENDROOT
BRANCH   1  25
ATOM     24  C1  UNL     1      76.471  64.768 100.213  0.00  0.00    +0.000 C 
ATOM     25  C2  UNL     1      76.350  63.403 100.888  0.00  0.00    +0.000 C 
ENDBRANCH   1  25
BRANCH  11  26
ATOM     26  O10 UNL     1      72.622  65.453 106.340  0.00  0.00    +0.000 OA
ATOM     27  H51 UNL     1      71.965  66.095 106.717  0.00  0.00    +0.000 HD
ENDBRANCH  11  26
BRANCH  21  28
ATOM     28  O11 UNL     1      75.142  60.744 101.526  0.00  0.00    +0.000 OA
ATOM     29  H68 UNL     1      74.191  60.582 101.306  0.00  0.00    +0.000 HD
ENDBRANCH  21  28
BRANCH  22  30
ATOM     30  O12 UNL     1      75.316  62.894 104.479  0.00  0.00    +0.000 OA
ATOM     31  H72 UNL     1      75.551  62.025 104.902  0.00  0.00    +0.000 HD
ENDBRANCH  22  30
BRANCH   7  32
ATOM     32  O3  UNL     1      76.655  67.434 106.182  0.00  0.00    +0.000 OA
BRANCH  32  33
ATOM     33  C8  UNL     1      76.570  68.649 106.922  0.00  0.00    +0.000 C 
ATOM     34  C9  UNL     1      77.482  68.530 108.161  0.00  0.00    +0.000 C 
ATOM     35  C10 UNL     1      77.006  69.388 109.374  0.00  0.00    +0.000 C 
ATOM     36  C11 UNL     1      76.108  68.546 110.331  0.00  0.00    +0.000 C 
ATOM     37  C13 UNL     1      76.193  70.590 108.823  0.00  0.00    +0.000 C 
ATOM     38  C14 UNL     1      75.011  70.115 107.920  0.00  0.00    +0.000 C 
ATOM     39  C15 UNL     1      74.635  71.158 106.858  0.00  0.00    +0.000 C 
ATOM     40  O6  UNL     1      75.221  68.841 107.317  0.00  0.00    +0.000 OA
BRANCH  35  41
ATOM     41  O4  UNL     1      78.124  69.950 110.062  0.00  0.00    +0.000 OA
ATOM     42  C12 UNL     1      79.028  70.641 109.220  0.00  0.00    +0.000 C 
ENDBRANCH  35  41
BRANCH  37  43
ATOM     43  O5  UNL     1      75.715  71.377 109.887  0.00  0.00    +0.000 OA
ATOM     44  H22 UNL     1      76.272  72.198 109.912  0.00  0.00    +0.000 HD
ENDBRANCH  37  43
ENDBRANCH  32  33
ENDBRANCH   7  32
BRANCH  10  45
ATOM     45  O7  UNL     1      74.506  64.366 109.286  0.00  0.00    +0.000 OA
BRANCH  45  46
ATOM     46  C19 UNL     1      74.884  65.099 110.446  0.00  0.00    +0.000 C 
ATOM     47  O8  UNL     1      76.149  64.629 110.915  0.00  0.00    +0.000 OA
ATOM     48  C20 UNL     1      76.088  63.592 111.886  0.00  0.00    +0.000 C 
ATOM     49  C21 UNL     1      75.643  62.257 111.269  0.00  0.00    +0.000 C 
ATOM     50  C22 UNL     1      75.281  63.982 113.158  0.00  0.00    +0.000 C 
ATOM     51  C23 UNL     1      74.352  65.189 112.898  0.00  0.00    +0.000 C 
ATOM     52  C24 UNL     1      73.743  65.057 111.494  0.00  0.00    +0.000 C 
BRANCH  51  53
ATOM     53  N1  UNL     1      73.309  65.410 113.935  0.00  0.00    +0.000 NA
ATOM     54  C25 UNL     1      73.473  66.704 114.616  0.00  0.00    +0.000 C 
ATOM     55  C26 UNL     1      73.154  64.323 114.919  0.00  0.00    +0.000 C 
ENDBRANCH  51  53
BRANCH  52  56
ATOM     56  O9  UNL     1      72.790  66.065 111.243  0.00  0.00    +0.000 OA
ATOM     57  H41 UNL     1      73.091  66.580 110.448  0.00  0.00    +0.000 HD
ENDBRANCH  52  56
ENDBRANCH  45  46
ENDBRANCH  10  45
TORSDOF 12
ENDMDL
MODEL 15
REMARK VINA RESULT:      -6.4      5.154      9.944
REMARK  Name = ./S4147.pdb
REMARK  26 active torsions:
REMARK  status: ('A' for Active; 'I' for Inactive)
REMARK    1  A    between atoms: C1_1  and  C2_2
REMARK    2  A    between atoms: C2_2  and  C3_3
REMARK    3  A    between atoms: C5_7  and  C6_8
REMARK    4  A    between atoms: C7_9  and  O3_10
REMARK    5  A    between atoms: O3_10  and  C8_11
REMARK    6  A    between atoms: C10_13  and  C11_14
REMARK    7  A    between atoms: C10_13  and  O4_15
REMARK    8  A    between atoms: O4_15  and  C12_16
REMARK    9  A    between atoms: C13_17  and  O5_18
REMARK   10  A    between atoms: C14_19  and  C15_20
REMARK   11  A    between atoms: C16_22  and  C17_23
REMARK   12  A    between atoms: C18_24  and  O7_25
REMARK   13  A    between atoms: O7_25  and  C19_26
REMARK   14  A    between atoms: C20_28  and  C21_29
REMARK   15  A    between atoms: C23_31  and  N1_34
REMARK   16  A    between atoms: C24_32  and  O9_33
REMARK   17  A    between atoms: N1_34  and  C25_35
REMARK   18  A    between atoms: N1_34  and  C26_36
REMARK   19  A    between atoms: C27_37  and  C28_38
REMARK   20  A    between atoms: C27_37  and  O10_39
REMARK   21  A    between atoms: C30_41  and  C31_42
REMARK   22  A    between atoms: N2_44  and  C33_45
REMARK   23  A    between atoms: C34_46  and  C35_47
REMARK   24  A    between atoms: C36_48  and  O11_49
REMARK   25  A    between atoms: C37_50  and  C38_51
REMARK   26  A    between atoms: C37_50  and  O12_52
REMARK                            x       y       z     vdW  Elec       q    Type
REMARK                         _______ _______ _______ _____ _____    ______ ____
ROOT
ATOM      1  C3  UNL     1      79.238  70.759 106.705  0.00  0.00    +0.000 C 
ATOM      2  O1  UNL     1      78.529  69.738 107.434  0.00  0.00    +0.000 OA
ATOM      3  C4  UNL     1      77.151  69.477 107.310  0.00  0.00    +0.000 C 
ATOM      4  O2  UNL     1      76.695  69.054 106.217  0.00  0.00    +0.000 OA
ATOM      5  C5  UNL     1      76.254  69.697 108.523  0.00  0.00    +0.000 C 
ATOM      6  C6  UNL     1      76.818  68.867 109.689  0.00  0.00    +0.000 C 
ATOM      7  C7  UNL     1      74.720  69.397 108.368  0.00  0.00    +0.000 C 
ATOM      8  C16 UNL     1      73.830  70.494 107.675  0.00  0.00    +0.000 C 
ATOM      9  C17 UNL     1      74.286  70.885 106.260  0.00  0.00    +0.000 C 
ATOM     10  C18 UNL     1      73.248  71.664 108.581  0.00  0.00    +0.000 C 
ATOM     11  C27 UNL     1      74.215  72.584 109.426  0.00  0.00    +0.000 C 
ATOM     12  C28 UNL     1      73.365  73.544 110.300  0.00  0.00    +0.000 C 
ATOM     13  C29 UNL     1      75.250  73.361 108.529  0.00  0.00    +0.000 C 
ATOM     14  C30 UNL     1      75.204  74.909 108.350  0.00  0.00    +0.000 C 
ATOM     15  C31 UNL     1      74.080  75.360 107.393  0.00  0.00    +0.000 C 
ATOM     16  C32 UNL     1      76.614  75.489 107.961  0.00  0.00    +0.000 C 
ATOM     17  N2  UNL     1      77.303  74.789 106.829  0.00  0.00    +0.000 NA
ATOM     18  C33 UNL     1      76.753  75.215 105.523  0.00  0.00    +0.000 C 
ATOM     19  C34 UNL     1      78.814  74.841 106.788  0.00  0.00    +0.000 C 
ATOM     20  C35 UNL     1      79.498  75.605 107.950  0.00  0.00    +0.000 C 
ATOM     21  C36 UNL     1      79.441  73.417 106.482  0.00  0.00    +0.000 C 
ATOM     22  C37 UNL     1      78.803  72.179 107.238  0.00  0.00    +0.000 C 
ATOM     23  C38 UNL     1      79.029  72.267 108.768  0.00  0.00    +0.000 C 
ENDROOT
BRANCH   1  25
ATOM     24  C1  UNL     1      81.245  69.610 105.640  0.00  0.00    +0.000 C 
ATOM     25  C2  UNL     1      80.753  70.476 106.799  0.00  0.00    +0.000 C 
ENDBRANCH   1  25
BRANCH  11  26
ATOM     26  O10 UNL     1      74.949  71.779 110.324  0.00  0.00    +0.000 OA
ATOM     27  H51 UNL     1      75.537  72.357 110.878  0.00  0.00    +0.000 HD
ENDBRANCH  11  26
BRANCH  21  28
ATOM     28  O11 UNL     1      80.845  73.455 106.566  0.00  0.00    +0.000 OA
ATOM     29  H68 UNL     1      81.177  74.168 105.966  0.00  0.00    +0.000 HD
ENDBRANCH  21  28
BRANCH  22  30
ATOM     30  O12 UNL     1      77.426  72.237 107.020  0.00  0.00    +0.000 OA
ATOM     31  H72 UNL     1      77.197  71.562 106.326  0.00  0.00    +0.000 HD
ENDBRANCH  22  30
BRANCH   7  32
ATOM     32  O3  UNL     1      74.578  68.146 107.699  0.00  0.00    +0.000 OA
BRANCH  32  33
ATOM     33  C8  UNL     1      73.707  67.240 108.368  0.00  0.00    +0.000 C 
ATOM     34  C9  UNL     1      72.419  67.092 107.529  0.00  0.00    +0.000 C 
ATOM     35  C10 UNL     1      71.156  66.748 108.377  0.00  0.00    +0.000 C 
ATOM     36  C11 UNL     1      70.386  68.044 108.775  0.00  0.00    +0.000 C 
ATOM     37  C13 UNL     1      71.623  66.008 109.659  0.00  0.00    +0.000 C 
ATOM     38  C14 UNL     1      72.671  66.848 110.454  0.00  0.00    +0.000 C 
ATOM     39  C15 UNL     1      73.627  65.965 111.268  0.00  0.00    +0.000 C 
ATOM     40  O6  UNL     1      73.404  67.768 109.650  0.00  0.00    +0.000 OA
BRANCH  35  41
ATOM     41  O4  UNL     1      70.315  65.831 107.676  0.00  0.00    +0.000 OA
ATOM     42  C12 UNL     1      71.001  65.023 106.740  0.00  0.00    +0.000 C 
ENDBRANCH  35  41
BRANCH  37  43
ATOM     43  O5  UNL     1      70.515  65.705 110.471  0.00  0.00    +0.000 OA
ATOM     44  H22 UNL     1      70.371  64.725 110.411  0.00  0.00    +0.000 HD
ENDBRANCH  37  43
ENDBRANCH  32  33
ENDBRANCH   7  32
BRANCH  10  45
ATOM     45  O7  UNL     1      72.400  72.496 107.795  0.00  0.00    +0.000 OA
BRANCH  45  46
ATOM     46  C19 UNL     1      71.056  72.027 107.747  0.00  0.00    +0.000 C 
ATOM     47  O8  UNL     1      70.809  71.415 106.480  0.00  0.00    +0.000 OA
ATOM     48  C20 UNL     1      70.287  72.281 105.480  0.00  0.00    +0.000 C 
ATOM     49  C21 UNL     1      71.347  73.273 104.973  0.00  0.00    +0.000 C 
ATOM     50  C22 UNL     1      68.951  72.964 105.891  0.00  0.00    +0.000 C 
ATOM     51  C23 UNL     1      68.737  72.930 107.421  0.00  0.00    +0.000 C 
ATOM     52  C24 UNL     1      70.083  73.175 108.119  0.00  0.00    +0.000 C 
BRANCH  51  53
ATOM     53  N1  UNL     1      67.678  73.845 107.925  0.00  0.00    +0.000 NA
ATOM     54  C25 UNL     1      66.346  73.221 107.888  0.00  0.00    +0.000 C 
ATOM     55  C26 UNL     1      67.643  75.179 107.297  0.00  0.00    +0.000 C 
ENDBRANCH  51  53
BRANCH  52  56
ATOM     56  O9  UNL     1      69.934  73.277 109.517  0.00  0.00    +0.000 OA
ATOM     57  H41 UNL     1      70.341  72.469 109.928  0.00  0.00    +0.000 HD
ENDBRANCH  52  56
ENDBRANCH  45  46
ENDBRANCH  10  45
TORSDOF 12
ENDMDL
MODEL 16
REMARK VINA RESULT:      -6.3      3.594      8.923
REMARK  Name = ./S4147.pdb
REMARK  26 active torsions:
REMARK  status: ('A' for Active; 'I' for Inactive)
REMARK    1  A    between atoms: C1_1  and  C2_2
REMARK    2  A    between atoms: C2_2  and  C3_3
REMARK    3  A    between atoms: C5_7  and  C6_8
REMARK    4  A    between atoms: C7_9  and  O3_10
REMARK    5  A    between atoms: O3_10  and  C8_11
REMARK    6  A    between atoms: C10_13  and  C11_14
REMARK    7  A    between atoms: C10_13  and  O4_15
REMARK    8  A    between atoms: O4_15  and  C12_16
REMARK    9  A    between atoms: C13_17  and  O5_18
REMARK   10  A    between atoms: C14_19  and  C15_20
REMARK   11  A    between atoms: C16_22  and  C17_23
REMARK   12  A    between atoms: C18_24  and  O7_25
REMARK   13  A    between atoms: O7_25  and  C19_26
REMARK   14  A    between atoms: C20_28  and  C21_29
REMARK   15  A    between atoms: C23_31  and  N1_34
REMARK   16  A    between atoms: C24_32  and  O9_33
REMARK   17  A    between atoms: N1_34  and  C25_35
REMARK   18  A    between atoms: N1_34  and  C26_36
REMARK   19  A    between atoms: C27_37  and  C28_38
REMARK   20  A    between atoms: C27_37  and  O10_39
REMARK   21  A    between atoms: C30_41  and  C31_42
REMARK   22  A    between atoms: N2_44  and  C33_45
REMARK   23  A    between atoms: C34_46  and  C35_47
REMARK   24  A    between atoms: C36_48  and  O11_49
REMARK   25  A    between atoms: C37_50  and  C38_51
REMARK   26  A    between atoms: C37_50  and  O12_52
REMARK                            x       y       z     vdW  Elec       q    Type
REMARK                         _______ _______ _______ _____ _____    ______ ____
ROOT
ATOM      1  C3  UNL     1      70.603  71.757 105.836  0.00  0.00    +0.000 C 
ATOM      2  O1  UNL     1      70.558  70.541 106.607  0.00  0.00    +0.000 OA
ATOM      3  C4  UNL     1      71.665  69.963 107.257  0.00  0.00    +0.000 C 
ATOM      4  O2  UNL     1      72.218  70.577 108.205  0.00  0.00    +0.000 OA
ATOM      5  C5  UNL     1      72.146  68.591 106.799  0.00  0.00    +0.000 C 
ATOM      6  C6  UNL     1      70.957  67.618 106.878  0.00  0.00    +0.000 C 
ATOM      7  C7  UNL     1      73.381  67.960 107.538  0.00  0.00    +0.000 C 
ATOM      8  C16 UNL     1      74.813  68.457 107.118  0.00  0.00    +0.000 C 
ATOM      9  C17 UNL     1      75.026  69.975 107.249  0.00  0.00    +0.000 C 
ATOM     10  C18 UNL     1      75.516  67.747 105.881  0.00  0.00    +0.000 C 
ATOM     11  C27 UNL     1      74.810  67.708 104.468  0.00  0.00    +0.000 C 
ATOM     12  C28 UNL     1      75.665  66.849 103.498  0.00  0.00    +0.000 C 
ATOM     13  C29 UNL     1      74.528  69.147 103.891  0.00  0.00    +0.000 C 
ATOM     14  C30 UNL     1      75.267  69.704 102.637  0.00  0.00    +0.000 C 
ATOM     15  C31 UNL     1      76.712  70.145 102.951  0.00  0.00    +0.000 C 
ATOM     16  C32 UNL     1      74.424  70.820 101.917  0.00  0.00    +0.000 C 
ATOM     17  N2  UNL     1      73.895  71.900 102.812  0.00  0.00    +0.000 NA
ATOM     18  C33 UNL     1      74.948  72.887 103.140  0.00  0.00    +0.000 C 
ATOM     19  C34 UNL     1      72.639  72.620 102.377  0.00  0.00    +0.000 C 
ATOM     20  C35 UNL     1      72.011  72.141 101.043  0.00  0.00    +0.000 C 
ATOM     21  C36 UNL     1      71.605  72.768 103.571  0.00  0.00    +0.000 C 
ATOM     22  C37 UNL     1      71.401  71.499 104.499  0.00  0.00    +0.000 C 
ATOM     23  C38 UNL     1      70.768  70.319 103.720  0.00  0.00    +0.000 C 
ENDROOT
BRANCH   1  25
ATOM     24  C1  UNL     1      68.144  71.446 106.419  0.00  0.00    +0.000 C 
ATOM     25  C2  UNL     1      69.161  72.272 105.633  0.00  0.00    +0.000 C 
ENDBRANCH   1  25
BRANCH  11  26
ATOM     26  O10 UNL     1      73.569  67.047 104.591  0.00  0.00    +0.000 OA
ATOM     27  H51 UNL     1      73.030  67.489 105.298  0.00  0.00    +0.000 HD
ENDBRANCH  11  26
BRANCH  21  28
ATOM     28  O11 UNL     1      70.395  73.329 103.124  0.00  0.00    +0.000 OA
ATOM     29  H68 UNL     1      69.783  73.415 103.896  0.00  0.00    +0.000 HD
ENDBRANCH  21  28
BRANCH  22  30
ATOM     30  O12 UNL     1      72.669  71.091 104.911  0.00  0.00    +0.000 OA
ATOM     31  H72 UNL     1      72.573  70.221 105.385  0.00  0.00    +0.000 HD
ENDBRANCH  22  30
BRANCH   7  32
ATOM     32  O3  UNL     1      73.189  68.124 108.941  0.00  0.00    +0.000 OA
BRANCH  32  33
ATOM     33  C8  UNL     1      73.581  66.988 109.704  0.00  0.00    +0.000 C 
ATOM     34  C9  UNL     1      72.867  65.745 109.130  0.00  0.00    +0.000 C 
ATOM     35  C10 UNL     1      72.613  64.625 110.186  0.00  0.00    +0.000 C 
ATOM     36  C11 UNL     1      71.195  64.771 110.819  0.00  0.00    +0.000 C 
ATOM     37  C13 UNL     1      73.692  64.755 111.294  0.00  0.00    +0.000 C 
ATOM     38  C14 UNL     1      73.698  66.184 111.922  0.00  0.00    +0.000 C 
ATOM     39  C15 UNL     1      75.079  66.574 112.466  0.00  0.00    +0.000 C 
ATOM     40  O6  UNL     1      73.198  67.198 111.054  0.00  0.00    +0.000 OA
BRANCH  35  41
ATOM     41  O4  UNL     1      72.798  63.334 109.604  0.00  0.00    +0.000 OA
ATOM     42  C12 UNL     1      73.947  63.233 108.784  0.00  0.00    +0.000 C 
ENDBRANCH  35  41
BRANCH  37  43
ATOM     43  O5  UNL     1      73.482  63.781 112.287  0.00  0.00    +0.000 OA
ATOM     44  H22 UNL     1      74.021  62.987 112.034  0.00  0.00    +0.000 HD
ENDBRANCH  37  43
ENDBRANCH  32  33
ENDBRANCH   7  32
BRANCH  10  45
ATOM     45  O7  UNL     1      76.831  68.271 105.718  0.00  0.00    +0.000 OA
BRANCH  45  46
ATOM     46  C19 UNL     1      77.764  67.714 106.638  0.00  0.00    +0.000 C 
ATOM     47  O8  UNL     1      79.034  68.347 106.470  0.00  0.00    +0.000 OA
ATOM     48  C20 UNL     1      79.917  67.703 105.559  0.00  0.00    +0.000 C 
ATOM     49  C21 UNL     1      79.459  67.876 104.102  0.00  0.00    +0.000 C 
ATOM     50  C22 UNL     1      80.224  66.225 105.937  0.00  0.00    +0.000 C 
ATOM     51  C23 UNL     1      79.170  65.652 106.911  0.00  0.00    +0.000 C 
ATOM     52  C24 UNL     1      77.781  66.170 106.506  0.00  0.00    +0.000 C 
BRANCH  51  53
ATOM     53  N1  UNL     1      79.187  64.172 107.051  0.00  0.00    +0.000 NA
ATOM     54  C25 UNL     1      79.666  63.749 108.378  0.00  0.00    +0.000 C 
ATOM     55  C26 UNL     1      79.901  63.443 105.987  0.00  0.00    +0.000 C 
ENDBRANCH  51  53
BRANCH  52  56
ATOM     56  O9  UNL     1      76.761  65.585 107.282  0.00  0.00    +0.000 OA
ATOM     57  H41 UNL     1      76.859  64.598 107.224  0.00  0.00    +0.000 HD
ENDBRANCH  52  56
ENDBRANCH  45  46
ENDBRANCH  10  45
TORSDOF 12
ENDMDL
MODEL 17
REMARK VINA RESULT:      -6.3      2.980      7.767
REMARK  Name = ./S4147.pdb
REMARK  26 active torsions:
REMARK  status: ('A' for Active; 'I' for Inactive)
REMARK    1  A    between atoms: C1_1  and  C2_2
REMARK    2  A    between atoms: C2_2  and  C3_3
REMARK    3  A    between atoms: C5_7  and  C6_8
REMARK    4  A    between atoms: C7_9  and  O3_10
REMARK    5  A    between atoms: O3_10  and  C8_11
REMARK    6  A    between atoms: C10_13  and  C11_14
REMARK    7  A    between atoms: C10_13  and  O4_15
REMARK    8  A    between atoms: O4_15  and  C12_16
REMARK    9  A    between atoms: C13_17  and  O5_18
REMARK   10  A    between atoms: C14_19  and  C15_20
REMARK   11  A    between atoms: C16_22  and  C17_23
REMARK   12  A    between atoms: C18_24  and  O7_25
REMARK   13  A    between atoms: O7_25  and  C19_26
REMARK   14  A    between atoms: C20_28  and  C21_29
REMARK   15  A    between atoms: C23_31  and  N1_34
REMARK   16  A    between atoms: C24_32  and  O9_33
REMARK   17  A    between atoms: N1_34  and  C25_35
REMARK   18  A    between atoms: N1_34  and  C26_36
REMARK   19  A    between atoms: C27_37  and  C28_38
REMARK   20  A    between atoms: C27_37  and  O10_39
REMARK   21  A    between atoms: C30_41  and  C31_42
REMARK   22  A    between atoms: N2_44  and  C33_45
REMARK   23  A    between atoms: C34_46  and  C35_47
REMARK   24  A    between atoms: C36_48  and  O11_49
REMARK   25  A    between atoms: C37_50  and  C38_51
REMARK   26  A    between atoms: C37_50  and  O12_52
REMARK                            x       y       z     vdW  Elec       q    Type
REMARK                         _______ _______ _______ _____ _____    ______ ____
ROOT
ATOM      1  C3  UNL     1      77.270  71.296 107.135  0.00  0.00    +0.000 C 
ATOM      2  O1  UNL     1      76.735  71.036 108.447  0.00  0.00    +0.000 OA
ATOM      3  C4  UNL     1      76.532  69.753 108.990  0.00  0.00    +0.000 C 
ATOM      4  O2  UNL     1      77.522  69.011 109.216  0.00  0.00    +0.000 OA
ATOM      5  C5  UNL     1      75.108  69.312 109.307  0.00  0.00    +0.000 C 
ATOM      6  C6  UNL     1      74.484  70.357 110.249  0.00  0.00    +0.000 C 
ATOM      7  C7  UNL     1      74.901  67.878 109.916  0.00  0.00    +0.000 C 
ATOM      8  C16 UNL     1      74.918  66.657 108.924  0.00  0.00    +0.000 C 
ATOM      9  C17 UNL     1      76.202  66.533 108.087  0.00  0.00    +0.000 C 
ATOM     10  C18 UNL     1      73.558  66.265 108.199  0.00  0.00    +0.000 C 
ATOM     11  C27 UNL     1      72.781  67.324 107.322  0.00  0.00    +0.000 C 
ATOM     12  C28 UNL     1      71.440  66.704 106.848  0.00  0.00    +0.000 C 
ATOM     13  C29 UNL     1      73.641  67.863 106.116  0.00  0.00    +0.000 C 
ATOM     14  C30 UNL     1      73.294  67.538 104.632  0.00  0.00    +0.000 C 
ATOM     15  C31 UNL     1      73.689  66.100 104.234  0.00  0.00    +0.000 C 
ATOM     16  C32 UNL     1      73.867  68.628 103.652  0.00  0.00    +0.000 C 
ATOM     17  N2  UNL     1      75.311  68.973 103.854  0.00  0.00    +0.000 NA
ATOM     18  C33 UNL     1      76.195  67.950 103.253  0.00  0.00    +0.000 C 
ATOM     19  C34 UNL     1      75.768  70.352 103.434  0.00  0.00    +0.000 C 
ATOM     20  C35 UNL     1      74.673  71.281 102.852  0.00  0.00    +0.000 C 
ATOM     21  C36 UNL     1      76.681  71.030 104.540  0.00  0.00    +0.000 C 
ATOM     22  C37 UNL     1      76.210  70.876 106.045  0.00  0.00    +0.000 C 
ATOM     23  C38 UNL     1      74.867  71.604 106.299  0.00  0.00    +0.000 C 
ENDROOT
BRANCH   1  25
ATOM     24  C1  UNL     1      79.235  72.915 107.080  0.00  0.00    +0.000 C 
ATOM     25  C2  UNL     1      77.714  72.774 107.062  0.00  0.00    +0.000 C 
ENDBRANCH   1  25
BRANCH  11  26
ATOM     26  O10 UNL     1      72.440  68.431 108.130  0.00  0.00    +0.000 OA
ATOM     27  H51 UNL     1      72.375  69.244 107.563  0.00  0.00    +0.000 HD
ENDBRANCH  11  26
BRANCH  21  28
ATOM     28  O11 UNL     1      76.998  72.355 104.190  0.00  0.00    +0.000 OA
ATOM     29  H68 UNL     1      77.309  72.829 105.000  0.00  0.00    +0.000 HD
ENDBRANCH  21  28
BRANCH  22  30
ATOM     30  O12 UNL     1      75.990  69.516 106.264  0.00  0.00    +0.000 OA
ATOM     31  H72 UNL     1      75.657  69.404 107.194  0.00  0.00    +0.000 HD
ENDBRANCH  22  30
BRANCH   7  32
ATOM     32  O3  UNL     1      75.863  67.692 110.950  0.00  0.00    +0.000 OA
BRANCH  32  33
ATOM     33  C8  UNL     1      75.378  66.923 112.047  0.00  0.00    +0.000 C 
ATOM     34  C9  UNL     1      74.918  65.549 111.512  0.00  0.00    +0.000 C 
ATOM     35  C10 UNL     1      73.779  64.898 112.358  0.00  0.00    +0.000 C 
ATOM     36  C11 UNL     1      72.380  65.255 111.771  0.00  0.00    +0.000 C 
ATOM     37  C13 UNL     1      73.888  65.440 113.809  0.00  0.00    +0.000 C 
ATOM     38  C14 UNL     1      73.845  67.000 113.842  0.00  0.00    +0.000 C 
ATOM     39  C15 UNL     1      74.598  67.576 115.048  0.00  0.00    +0.000 C 
ATOM     40  O6  UNL     1      74.287  67.615 112.635  0.00  0.00    +0.000 OA
BRANCH  35  41
ATOM     41  O4  UNL     1      73.966  63.486 112.449  0.00  0.00    +0.000 OA
ATOM     42  C12 UNL     1      75.322  63.082 112.415  0.00  0.00    +0.000 C 
ENDBRANCH  35  41
BRANCH  37  43
ATOM     43  O5  UNL     1      72.858  64.901 114.602  0.00  0.00    +0.000 OA
ATOM     44  H22 UNL     1      72.076  64.761 114.006  0.00  0.00    +0.000 HD
ENDBRANCH  37  43
ENDBRANCH  32  33
ENDBRANCH   7  32
BRANCH  10  45
ATOM     45  O7  UNL     1      73.757  65.089 107.421  0.00  0.00    +0.000 OA
BRANCH  45  46
ATOM     46  C19 UNL     1      73.550  63.893 108.166  0.00  0.00    +0.000 C 
ATOM     47  O8  UNL     1      74.810  63.362 108.576  0.00  0.00    +0.000 OA
ATOM     48  C20 UNL     1      75.390  62.418 107.684  0.00  0.00    +0.000 C 
ATOM     49  C21 UNL     1      75.910  63.088 106.402  0.00  0.00    +0.000 C 
ATOM     50  C22 UNL     1      74.479  61.187 107.409  0.00  0.00    +0.000 C 
ATOM     51  C23 UNL     1      73.004  61.475 107.770  0.00  0.00    +0.000 C 
ATOM     52  C24 UNL     1      72.660  62.914 107.357  0.00  0.00    +0.000 C 
BRANCH  51  53
ATOM     53  N1  UNL     1      72.025  60.496 107.227  0.00  0.00    +0.000 NA
ATOM     54  C25 UNL     1      72.098  59.200 107.921  0.00  0.00    +0.000 C 
ATOM     55  C26 UNL     1      72.067  60.303 105.766  0.00  0.00    +0.000 C 
ENDBRANCH  51  53
BRANCH  52  56
ATOM     56  O9  UNL     1      71.294  63.198 107.549  0.00  0.00    +0.000 OA
ATOM     57  H41 UNL     1      71.132  63.283 108.526  0.00  0.00    +0.000 HD
ENDBRANCH  52  56
ENDBRANCH  45  46
ENDBRANCH  10  45
TORSDOF 12
ENDMDL
MODEL 18
REMARK VINA RESULT:      -6.3      3.684      7.564
REMARK  Name = ./S4147.pdb
REMARK  26 active torsions:
REMARK  status: ('A' for Active; 'I' for Inactive)
REMARK    1  A    between atoms: C1_1  and  C2_2
REMARK    2  A    between atoms: C2_2  and  C3_3
REMARK    3  A    between atoms: C5_7  and  C6_8
REMARK    4  A    between atoms: C7_9  and  O3_10
REMARK    5  A    between atoms: O3_10  and  C8_11
REMARK    6  A    between atoms: C10_13  and  C11_14
REMARK    7  A    between atoms: C10_13  and  O4_15
REMARK    8  A    between atoms: O4_15  and  C12_16
REMARK    9  A    between atoms: C13_17  and  O5_18
REMARK   10  A    between atoms: C14_19  and  C15_20
REMARK   11  A    between atoms: C16_22  and  C17_23
REMARK   12  A    between atoms: C18_24  and  O7_25
REMARK   13  A    between atoms: O7_25  and  C19_26
REMARK   14  A    between atoms: C20_28  and  C21_29
REMARK   15  A    between atoms: C23_31  and  N1_34
REMARK   16  A    between atoms: C24_32  and  O9_33
REMARK   17  A    between atoms: N1_34  and  C25_35
REMARK   18  A    between atoms: N1_34  and  C26_36
REMARK   19  A    between atoms: C27_37  and  C28_38
REMARK   20  A    between atoms: C27_37  and  O10_39
REMARK   21  A    between atoms: C30_41  and  C31_42
REMARK   22  A    between atoms: N2_44  and  C33_45
REMARK   23  A    between atoms: C34_46  and  C35_47
REMARK   24  A    between atoms: C36_48  and  O11_49
REMARK   25  A    between atoms: C37_50  and  C38_51
REMARK   26  A    between atoms: C37_50  and  O12_52
REMARK                            x       y       z     vdW  Elec       q    Type
REMARK                         _______ _______ _______ _____ _____    ______ ____
ROOT
ATOM      1  C3  UNL     1      71.274  64.397 106.217  0.00  0.00    +0.000 C 
ATOM      2  O1  UNL     1      70.633  65.494 106.896  0.00  0.00    +0.000 OA
ATOM      3  C4  UNL     1      71.104  66.821 106.898  0.00  0.00    +0.000 C 
ATOM      4  O2  UNL     1      71.136  67.469 105.821  0.00  0.00    +0.000 OA
ATOM      5  C5  UNL     1      71.542  67.437 108.221  0.00  0.00    +0.000 C 
ATOM      6  C6  UNL     1      70.371  67.321 109.213  0.00  0.00    +0.000 C 
ATOM      7  C7  UNL     1      72.062  68.920 108.206  0.00  0.00    +0.000 C 
ATOM      8  C16 UNL     1      73.547  69.165 107.750  0.00  0.00    +0.000 C 
ATOM      9  C17 UNL     1      73.881  68.631 106.347  0.00  0.00    +0.000 C 
ATOM     10  C18 UNL     1      74.693  69.047 108.845  0.00  0.00    +0.000 C 
ATOM     11  C27 UNL     1      74.875  67.717 109.678  0.00  0.00    +0.000 C 
ATOM     12  C28 UNL     1      75.978  67.935 110.748  0.00  0.00    +0.000 C 
ATOM     13  C29 UNL     1      75.175  66.467 108.767  0.00  0.00    +0.000 C 
ATOM     14  C30 UNL     1      76.552  65.738 108.775  0.00  0.00    +0.000 C 
ATOM     15  C31 UNL     1      77.640  66.520 108.010  0.00  0.00    +0.000 C 
ATOM     16  C32 UNL     1      76.419  64.243 108.301  0.00  0.00    +0.000 C 
ATOM     17  N2  UNL     1      75.658  64.043 107.026  0.00  0.00    +0.000 NA
ATOM     18  C33 UNL     1      76.498  64.356 105.848  0.00  0.00    +0.000 C 
ATOM     19  C34 UNL     1      74.968  62.713 106.821  0.00  0.00    +0.000 C 
ATOM     20  C35 UNL     1      75.105  61.693 107.981  0.00  0.00    +0.000 C 
ATOM     21  C36 UNL     1      73.488  62.897 106.283  0.00  0.00    +0.000 C 
ATOM     22  C37 UNL     1      72.621  64.040 106.957  0.00  0.00    +0.000 C 
ATOM     23  C38 UNL     1      72.345  63.740 108.451  0.00  0.00    +0.000 C 
ENDROOT
BRANCH   1  25
ATOM     24  C1  UNL     1      70.056  62.795 104.657  0.00  0.00    +0.000 C 
ATOM     25  C2  UNL     1      70.273  63.226 106.106  0.00  0.00    +0.000 C 
ENDBRANCH   1  25
BRANCH  11  26
ATOM     26  O10 UNL     1      73.684  67.451 110.388  0.00  0.00    +0.000 OA
ATOM     27  H51 UNL     1      72.998  67.105 109.760  0.00  0.00    +0.000 HD
ENDBRANCH  11  26
BRANCH  21  28
ATOM     28  O11 UNL     1      72.819  61.661 106.213  0.00  0.00    +0.000 OA
ATOM     29  H68 UNL     1      71.971  61.789 105.721  0.00  0.00    +0.000 HD
ENDBRANCH  21  28
BRANCH  22  30
ATOM     30  O12 UNL     1      73.381  65.209 106.903  0.00  0.00    +0.000 OA
ATOM     31  H72 UNL     1      74.324  64.973 107.114  0.00  0.00    +0.000 HD
ENDBRANCH  22  30
BRANCH   7  32
ATOM     32  O3  UNL     1      71.164  69.696 107.416  0.00  0.00    +0.000 OA
BRANCH  32  33
ATOM     33  C8  UNL     1      71.617  71.025 107.182  0.00  0.00    +0.000 C 
ATOM     34  C9  UNL     1      70.727  71.993 107.991  0.00  0.00    +0.000 C 
ATOM     35  C10 UNL     1      70.604  73.412 107.353  0.00  0.00    +0.000 C 
ATOM     36  C11 UNL     1      69.345  73.501 106.437  0.00  0.00    +0.000 C 
ATOM     37  C13 UNL     1      71.880  73.671 106.507  0.00  0.00    +0.000 C 
ATOM     38  C14 UNL     1      72.100  72.550 105.444  0.00  0.00    +0.000 C 
ATOM     39  C15 UNL     1      73.582  72.368 105.089  0.00  0.00    +0.000 C 
ATOM     40  O6  UNL     1      71.512  71.300 105.794  0.00  0.00    +0.000 OA
BRANCH  35  41
ATOM     41  O4  UNL     1      70.589  74.419 108.365  0.00  0.00    +0.000 OA
ATOM     42  C12 UNL     1      69.821  74.077 109.503  0.00  0.00    +0.000 C 
ENDBRANCH  35  41
BRANCH  37  43
ATOM     43  O5  UNL     1      71.798  74.931 105.886  0.00  0.00    +0.000 OA
ATOM     44  H22 UNL     1      71.986  75.611 106.584  0.00  0.00    +0.000 HD
ENDBRANCH  37  43
ENDBRANCH  32  33
ENDBRANCH   7  32
BRANCH  10  45
ATOM     45  O7  UNL     1      75.945  69.393 108.261  0.00  0.00    +0.000 OA
BRANCH  45  46
ATOM     46  C19 UNL     1      76.376  70.703 108.614  0.00  0.00    +0.000 C 
ATOM     47  O8  UNL     1      75.933  71.633 107.623  0.00  0.00    +0.000 OA
ATOM     48  C20 UNL     1      76.853  71.877 106.566  0.00  0.00    +0.000 C 
ATOM     49  C21 UNL     1      76.963  70.674 105.616  0.00  0.00    +0.000 C 
ATOM     50  C22 UNL     1      78.232  72.403 107.057  0.00  0.00    +0.000 C 
ATOM     51  C23 UNL     1      78.460  72.102 108.556  0.00  0.00    +0.000 C 
ATOM     52  C24 UNL     1      77.904  70.706 108.875  0.00  0.00    +0.000 C 
BRANCH  51  53
ATOM     53  N1  UNL     1      79.865  72.256 109.018  0.00  0.00    +0.000 NA
ATOM     54  C25 UNL     1      80.319  73.654 108.947  0.00  0.00    +0.000 C 
ATOM     55  C26 UNL     1      80.844  71.361 108.376  0.00  0.00    +0.000 C 
ENDBRANCH  51  53
BRANCH  52  56
ATOM     56  O9  UNL     1      78.190  70.322 110.200  0.00  0.00    +0.000 OA
ATOM     57  H41 UNL     1      77.334  70.299 110.704  0.00  0.00    +0.000 HD
ENDBRANCH  52  56
ENDBRANCH  45  46
ENDBRANCH  10  45
TORSDOF 12
ENDMDL
MODEL 19
REMARK VINA RESULT:      -6.2      6.314     11.221
REMARK  Name = ./S4147.pdb
REMARK  26 active torsions:
REMARK  status: ('A' for Active; 'I' for Inactive)
REMARK    1  A    between atoms: C1_1  and  C2_2
REMARK    2  A    between atoms: C2_2  and  C3_3
REMARK    3  A    between atoms: C5_7  and  C6_8
REMARK    4  A    between atoms: C7_9  and  O3_10
REMARK    5  A    between atoms: O3_10  and  C8_11
REMARK    6  A    between atoms: C10_13  and  C11_14
REMARK    7  A    between atoms: C10_13  and  O4_15
REMARK    8  A    between atoms: O4_15  and  C12_16
REMARK    9  A    between atoms: C13_17  and  O5_18
REMARK   10  A    between atoms: C14_19  and  C15_20
REMARK   11  A    between atoms: C16_22  and  C17_23
REMARK   12  A    between atoms: C18_24  and  O7_25
REMARK   13  A    between atoms: O7_25  and  C19_26
REMARK   14  A    between atoms: C20_28  and  C21_29
REMARK   15  A    between atoms: C23_31  and  N1_34
REMARK   16  A    between atoms: C24_32  and  O9_33
REMARK   17  A    between atoms: N1_34  and  C25_35
REMARK   18  A    between atoms: N1_34  and  C26_36
REMARK   19  A    between atoms: C27_37  and  C28_38
REMARK   20  A    between atoms: C27_37  and  O10_39
REMARK   21  A    between atoms: C30_41  and  C31_42
REMARK   22  A    between atoms: N2_44  and  C33_45
REMARK   23  A    between atoms: C34_46  and  C35_47
REMARK   24  A    between atoms: C36_48  and  O11_49
REMARK   25  A    between atoms: C37_50  and  C38_51
REMARK   26  A    between atoms: C37_50  and  O12_52
REMARK                            x       y       z     vdW  Elec       q    Type
REMARK                         _______ _______ _______ _____ _____    ______ ____
ROOT
ATOM      1  C3  UNL     1      71.134  61.273 103.300  0.00  0.00    +0.000 C 
ATOM      2  O1  UNL     1      70.800  61.749 101.981  0.00  0.00    +0.000 OA
ATOM      3  C4  UNL     1      70.573  60.921 100.865  0.00  0.00    +0.000 C 
ATOM      4  O2  UNL     1      69.589  60.137 100.863  0.00  0.00    +0.000 OA
ATOM      5  C5  UNL     1      71.524  61.019  99.678  0.00  0.00    +0.000 C 
ATOM      6  C6  UNL     1      71.557  62.486  99.214  0.00  0.00    +0.000 C 
ATOM      7  C7  UNL     1      71.254  60.091  98.440  0.00  0.00    +0.000 C 
ATOM      8  C16 UNL     1      71.735  58.596  98.533  0.00  0.00    +0.000 C 
ATOM      9  C17 UNL     1      71.161  57.814  99.727  0.00  0.00    +0.000 C 
ATOM     10  C18 UNL     1      73.236  58.268  98.126  0.00  0.00    +0.000 C 
ATOM     11  C27 UNL     1      74.441  58.992  98.847  0.00  0.00    +0.000 C 
ATOM     12  C28 UNL     1      75.768  58.570  98.163  0.00  0.00    +0.000 C 
ATOM     13  C29 UNL     1      74.466  58.726 100.400  0.00  0.00    +0.000 C 
ATOM     14  C30 UNL     1      75.583  57.882 101.085  0.00  0.00    +0.000 C 
ATOM     15  C31 UNL     1      75.400  56.366 100.858  0.00  0.00    +0.000 C 
ATOM     16  C32 UNL     1      75.747  58.263 102.603  0.00  0.00    +0.000 C 
ATOM     17  N2  UNL     1      74.475  58.302 103.394  0.00  0.00    +0.000 NA
ATOM     18  C33 UNL     1      74.036  56.939 103.769  0.00  0.00    +0.000 C 
ATOM     19  C34 UNL     1      74.430  59.205 104.606  0.00  0.00    +0.000 C 
ATOM     20  C35 UNL     1      75.716  60.021 104.891  0.00  0.00    +0.000 C 
ATOM     21  C36 UNL     1      73.092  60.054 104.655  0.00  0.00    +0.000 C 
ATOM     22  C37 UNL     1      72.600  60.690 103.289  0.00  0.00    +0.000 C 
ATOM     23  C38 UNL     1      73.595  61.756 102.766  0.00  0.00    +0.000 C 
ENDROOT
BRANCH   1  25
ATOM     24  C1  UNL     1      69.862  62.047 105.366  0.00  0.00    +0.000 C 
ATOM     25  C2  UNL     1      70.906  62.416 104.313  0.00  0.00    +0.000 C 
ENDBRANCH   1  25
BRANCH  11  26
ATOM     26  O10 UNL     1      74.323  60.385  98.655  0.00  0.00    +0.000 OA
ATOM     27  H51 UNL     1      73.641  60.564  97.955  0.00  0.00    +0.000 HD
ENDBRANCH  11  26
BRANCH  21  28
ATOM     28  O11 UNL     1      73.117  60.975 105.718  0.00  0.00    +0.000 OA
ATOM     29  H68 UNL     1      72.744  60.537 106.523  0.00  0.00    +0.000 HD
ENDBRANCH  21  28
BRANCH  22  30
ATOM     30  O12 UNL     1      72.568  59.658 102.350  0.00  0.00    +0.000 OA
ATOM     31  H72 UNL     1      73.213  58.959 102.641  0.00  0.00    +0.000 HD
ENDBRANCH  22  30
BRANCH   7  32
ATOM     32  O3  UNL     1      69.862  60.148  98.138  0.00  0.00    +0.000 OA
BRANCH  32  33
ATOM     33  C8  UNL     1      69.455  59.205  97.152  0.00  0.00    +0.000 C 
ATOM     34  C9  UNL     1      69.556  59.876  95.765  0.00  0.00    +0.000 C 
ATOM     35  C10 UNL     1      68.549  59.305  94.719  0.00  0.00    +0.000 C 
ATOM     36  C11 UNL     1      67.237  60.148  94.695  0.00  0.00    +0.000 C 
ATOM     37  C13 UNL     1      68.218  57.842  95.118  0.00  0.00    +0.000 C 
ATOM     38  C14 UNL     1      67.680  57.755  96.581  0.00  0.00    +0.000 C 
ATOM     39  C15 UNL     1      67.984  56.399  97.232  0.00  0.00    +0.000 C 
ATOM     40  O6  UNL     1      68.116  58.822  97.420  0.00  0.00    +0.000 OA
BRANCH  35  41
ATOM     41  O4  UNL     1      69.152  59.235  93.426  0.00  0.00    +0.000 OA
ATOM     42  C12 UNL     1      70.438  58.647  93.424  0.00  0.00    +0.000 C 
ENDBRANCH  35  41
BRANCH  37  43
ATOM     43  O5  UNL     1      67.286  57.296  94.217  0.00  0.00    +0.000 OA
ATOM     44  H22 UNL     1      67.370  56.309  94.275  0.00  0.00    +0.000 HD
ENDBRANCH  37  43
ENDBRANCH  32  33
ENDBRANCH   7  32
BRANCH  10  45
ATOM     45  O7  UNL     1      73.448  56.861  98.188  0.00  0.00    +0.000 OA
BRANCH  45  46
ATOM     46  C19 UNL     1      73.037  56.188  97.003  0.00  0.00    +0.000 C 
ATOM     47  O8  UNL     1      72.354  54.982  97.351  0.00  0.00    +0.000 OA
ATOM     48  C20 UNL     1      73.175  53.823  97.435  0.00  0.00    +0.000 C 
ATOM     49  C21 UNL     1      74.083  53.855  98.674  0.00  0.00    +0.000 C 
ATOM     50  C22 UNL     1      73.941  53.512  96.117  0.00  0.00    +0.000 C 
ATOM     51  C23 UNL     1      74.017  54.749  95.193  0.00  0.00    +0.000 C 
ATOM     52  C24 UNL     1      74.248  56.001  96.053  0.00  0.00    +0.000 C 
BRANCH  51  53
ATOM     53  N1  UNL     1      75.009  54.646  94.090  0.00  0.00    +0.000 NA
ATOM     54  C25 UNL     1      74.361  54.529  92.774  0.00  0.00    +0.000 C 
ATOM     55  C26 UNL     1      76.034  53.599  94.257  0.00  0.00    +0.000 C 
ENDBRANCH  51  53
BRANCH  52  56
ATOM     56  O9  UNL     1      74.449  57.148  95.260  0.00  0.00    +0.000 OA
ATOM     57  H41 UNL     1      75.020  56.890  94.487  0.00  0.00    +0.000 HD
ENDBRANCH  52  56
ENDBRANCH  45  46
ENDBRANCH  10  45
TORSDOF 12
ENDMDL
MODEL 20
REMARK VINA RESULT:      -6.1      3.740      8.662
REMARK  Name = ./S4147.pdb
REMARK  26 active torsions:
REMARK  status: ('A' for Active; 'I' for Inactive)
REMARK    1  A    between atoms: C1_1  and  C2_2
REMARK    2  A    between atoms: C2_2  and  C3_3
REMARK    3  A    between atoms: C5_7  and  C6_8
REMARK    4  A    between atoms: C7_9  and  O3_10
REMARK    5  A    between atoms: O3_10  and  C8_11
REMARK    6  A    between atoms: C10_13  and  C11_14
REMARK    7  A    between atoms: C10_13  and  O4_15
REMARK    8  A    between atoms: O4_15  and  C12_16
REMARK    9  A    between atoms: C13_17  and  O5_18
REMARK   10  A    between atoms: C14_19  and  C15_20
REMARK   11  A    between atoms: C16_22  and  C17_23
REMARK   12  A    between atoms: C18_24  and  O7_25
REMARK   13  A    between atoms: O7_25  and  C19_26
REMARK   14  A    between atoms: C20_28  and  C21_29
REMARK   15  A    between atoms: C23_31  and  N1_34
REMARK   16  A    between atoms: C24_32  and  O9_33
REMARK   17  A    between atoms: N1_34  and  C25_35
REMARK   18  A    between atoms: N1_34  and  C26_36
REMARK   19  A    between atoms: C27_37  and  C28_38
REMARK   20  A    between atoms: C27_37  and  O10_39
REMARK   21  A    between atoms: C30_41  and  C31_42
REMARK   22  A    between atoms: N2_44  and  C33_45
REMARK   23  A    between atoms: C34_46  and  C35_47
REMARK   24  A    between atoms: C36_48  and  O11_49
REMARK   25  A    between atoms: C37_50  and  C38_51
REMARK   26  A    between atoms: C37_50  and  O12_52
REMARK                            x       y       z     vdW  Elec       q    Type
REMARK                         _______ _______ _______ _____ _____    ______ ____
ROOT
ATOM      1  C3  UNL     1      79.328  63.500 104.550  0.00  0.00    +0.000 C 
ATOM      2  O1  UNL     1      79.039  63.282 105.944  0.00  0.00    +0.000 OA
ATOM      3  C4  UNL     1      77.793  63.531 106.553  0.00  0.00    +0.000 C 
ATOM      4  O2  UNL     1      76.789  62.855 106.210  0.00  0.00    +0.000 OA
ATOM      5  C5  UNL     1      77.709  64.605 107.630  0.00  0.00    +0.000 C 
ATOM      6  C6  UNL     1      78.740  64.267 108.722  0.00  0.00    +0.000 C 
ATOM      7  C7  UNL     1      76.313  64.867 108.301  0.00  0.00    +0.000 C 
ATOM      8  C16 UNL     1      75.284  65.761 107.515  0.00  0.00    +0.000 C 
ATOM      9  C17 UNL     1      74.940  65.249 106.106  0.00  0.00    +0.000 C 
ATOM     10  C18 UNL     1      75.377  67.338 107.693  0.00  0.00    +0.000 C 
ATOM     11  C27 UNL     1      76.718  68.106 107.367  0.00  0.00    +0.000 C 
ATOM     12  C28 UNL     1      76.552  69.601 107.751  0.00  0.00    +0.000 C 
ATOM     13  C29 UNL     1      77.171  67.928 105.868  0.00  0.00    +0.000 C 
ATOM     14  C30 UNL     1      77.163  69.105 104.847  0.00  0.00    +0.000 C 
ATOM     15  C31 UNL     1      75.743  69.445 104.348  0.00  0.00    +0.000 C 
ATOM     16  C32 UNL     1      78.187  68.863 103.677  0.00  0.00    +0.000 C 
ATOM     17  N2  UNL     1      78.101  67.519 103.020  0.00  0.00    +0.000 NA
ATOM     18  C33 UNL     1      76.973  67.462 102.064  0.00  0.00    +0.000 C 
ATOM     19  C34 UNL     1      79.351  66.976 102.367  0.00  0.00    +0.000 C 
ATOM     20  C35 UNL     1      80.613  67.872 102.468  0.00  0.00    +0.000 C 
ATOM     21  C36 UNL     1      79.597  65.455 102.745  0.00  0.00    +0.000 C 
ATOM     22  C37 UNL     1      79.365  65.050 104.259  0.00  0.00    +0.000 C 
ATOM     23  C38 UNL     1      80.383  65.744 105.198  0.00  0.00    +0.000 C 
ENDROOT
BRANCH   1  25
ATOM     24  C1  UNL     1      81.285  62.120 105.415  0.00  0.00    +0.000 C 
ATOM     25  C2  UNL     1      80.628  62.748 104.188  0.00  0.00    +0.000 C 
ENDBRANCH   1  25
BRANCH  11  26
ATOM     26  O10 UNL     1      77.751  67.601 108.187  0.00  0.00    +0.000 OA
ATOM     27  H51 UNL     1      78.630  67.864 107.808  0.00  0.00    +0.000 HD
ENDBRANCH  11  26
BRANCH  21  28
ATOM     28  O11 UNL     1      80.825  64.999 102.230  0.00  0.00    +0.000 OA
ATOM     29  H68 UNL     1      81.016  64.108 102.613  0.00  0.00    +0.000 HD
ENDBRANCH  21  28
BRANCH  22  30
ATOM     30  O12 UNL     1      78.096  65.511 104.612  0.00  0.00    +0.000 OA
ATOM     31  H72 UNL     1      77.431  64.833 104.319  0.00  0.00    +0.000 HD
ENDBRANCH  22  30
BRANCH   7  32
ATOM     32  O3  UNL     1      75.732  63.606 108.622  0.00  0.00    +0.000 OA
BRANCH  32  33
ATOM     33  C8  UNL     1      75.238  63.531 109.956  0.00  0.00    +0.000 C 
ATOM     34  C9  UNL     1      73.790  64.067 109.969  0.00  0.00    +0.000 C 
ATOM     35  C10 UNL     1      73.368  64.697 111.333  0.00  0.00    +0.000 C 
ATOM     36  C11 UNL     1      73.615  66.237 111.332  0.00  0.00    +0.000 C 
ATOM     37  C13 UNL     1      74.217  64.036 112.452  0.00  0.00    +0.000 C 
ATOM     38  C14 UNL     1      75.746  64.178 112.170  0.00  0.00    +0.000 C 
ATOM     39  C15 UNL     1      76.560  63.036 112.793  0.00  0.00    +0.000 C 
ATOM     40  O6  UNL     1      76.067  64.326 110.789  0.00  0.00    +0.000 OA
BRANCH  35  41
ATOM     41  O4  UNL     1      72.007  64.384 111.632  0.00  0.00    +0.000 OA
ATOM     42  C12 UNL     1      71.073  64.988 110.758  0.00  0.00    +0.000 C 
ENDBRANCH  35  41
BRANCH  37  43
ATOM     43  O5  UNL     1      73.891  64.598 113.700  0.00  0.00    +0.000 OA
ATOM     44  H22 UNL     1      73.596  65.530 113.529  0.00  0.00    +0.000 HD
ENDBRANCH  37  43
ENDBRANCH  32  33
ENDBRANCH   7  32
BRANCH  10  45
ATOM     45  O7  UNL     1      74.312  67.959 106.980  0.00  0.00    +0.000 OA
BRANCH  45  46
ATOM     46  C19 UNL     1      73.432  68.689 107.829  0.00  0.00    +0.000 C 
ATOM     47  O8  UNL     1      72.618  67.778 108.569  0.00  0.00    +0.000 OA
ATOM     48  C20 UNL     1      71.373  67.449 107.966  0.00  0.00    +0.000 C 
ATOM     49  C21 UNL     1      71.555  66.540 106.740  0.00  0.00    +0.000 C 
ATOM     50  C22 UNL     1      70.476  68.689 107.685  0.00  0.00    +0.000 C 
ATOM     51  C23 UNL     1      71.296  69.999 107.680  0.00  0.00    +0.000 C 
ATOM     52  C24 UNL     1      72.648  69.740 107.001  0.00  0.00    +0.000 C 
BRANCH  51  53
ATOM     53  N1  UNL     1      70.597  71.172 107.089  0.00  0.00    +0.000 NA
ATOM     54  C25 UNL     1      70.460  72.276 108.053  0.00  0.00    +0.000 C 
ATOM     55  C26 UNL     1      69.301  70.880 106.449  0.00  0.00    +0.000 C 
ENDBRANCH  51  53
BRANCH  52  56
ATOM     56  O9  UNL     1      73.394  70.926 106.855  0.00  0.00    +0.000 OA
ATOM     57  H41 UNL     1      73.975  71.024 107.656  0.00  0.00    +0.000 HD
ENDBRANCH  52  56
ENDBRANCH  45  46
ENDBRANCH  10  45
TORSDOF 12
ENDMDL
