MODEL 1
REMARK VINA RESULT:      -8.7      0.000      0.000
REMARK  Name = ./S4151.pdb
REMARK  9 active torsions:
REMARK  status: ('A' for Active; 'I' for Inactive)
REMARK    1  A    between atoms: O1_1  and  C1_2
REMARK    2  A    between atoms: C1_2  and  C22_26
REMARK    3  A    between atoms: N1_5  and  C4_6
REMARK    4  A    between atoms: C4_6  and  C5_7
REMARK    5  A    between atoms: C5_7  and  C6_8
REMARK    6  A    between atoms: C6_8  and  C7_9
REMARK    7  A    between atoms: C7_9  and  C8_10
REMARK    8  A    between atoms: C7_9  and  C14_17
REMARK    9  A    between atoms: C24_28  and  C28_33
REMARK                            x       y       z     vdW  Elec       q    Type
REMARK                         _______ _______ _______ _____ _____    ______ ____
ROOT
ATOM      1  C1  UNL     1      62.415  59.049 105.765  0.00  0.00    +0.000 C 
ATOM      2  C2  UNL     1      63.949  58.915 105.972  0.00  0.00    +0.000 C 
ATOM      3  C3  UNL     1      64.295  58.675 107.450  0.00  0.00    +0.000 C 
ATOM      4  N1  UNL     1      63.728  57.406 107.965  0.00  0.00    +0.000 NA
ATOM      5  C20 UNL     1      62.508  56.934 107.261  0.00  0.00    +0.000 C 
ATOM      6  C21 UNL     1      61.639  58.084 106.720  0.00  0.00    +0.000 C 
ENDROOT
BRANCH   1   7
ATOM      7  C22 UNL     1      62.105  58.786 104.281  0.00  0.00    +0.000 A 
ATOM      8  C23 UNL     1      62.786  59.467 103.246  0.00  0.00    +0.000 A 
ATOM      9  C24 UNL     1      62.466  59.251 101.890  0.00  0.00    +0.000 A 
ATOM     10  C25 UNL     1      61.431  58.342 101.570  0.00  0.00    +0.000 A 
ATOM     11 CL1  UNL     1      60.979  57.992  99.903  0.00  0.00    +0.000 Cl
ATOM     12  C26 UNL     1      60.723  57.696 102.587  0.00  0.00    +0.000 A 
ATOM     13  C27 UNL     1      61.042  57.926 103.925  0.00  0.00    +0.000 A 
BRANCH   9  14
ATOM     14  C28 UNL     1      63.223  59.981 100.796  0.00  0.00    +0.000 C 
ATOM     15  F3  UNL     1      64.308  59.249 100.334  0.00  0.00    +0.000 F 
ATOM     16  F4  UNL     1      62.375  60.220  99.726  0.00  0.00    +0.000 F 
ATOM     17  F5  UNL     1      63.697  61.188 101.284  0.00  0.00    +0.000 F 
ENDBRANCH   9  14
ENDBRANCH   1   7
BRANCH   1  18
ATOM     18  O1  UNL     1      62.012  60.372 106.063  0.00  0.00    +0.000 OA
ATOM     19  H1  UNL     1      62.678  61.006 105.694  0.00  0.00    +0.000 HD
ENDBRANCH   1  18
BRANCH   4  20
ATOM     20  C4  UNL     1      63.564  57.440 109.435  0.00  0.00    +0.000 C 
BRANCH  20  21
ATOM     21  C5  UNL     1      62.172  57.960 109.824  0.00  0.00    +0.000 C 
BRANCH  21  22
ATOM     22  C6  UNL     1      62.169  59.487 110.014  0.00  0.00    +0.000 C 
BRANCH  22  23
ATOM     23  C7  UNL     1      61.971  59.888 111.495  0.00  0.00    +0.000 C 
BRANCH  23  24
ATOM     24  C8  UNL     1      61.273  61.227 111.635  0.00  0.00    +0.000 A 
ATOM     25  C9  UNL     1      61.203  62.103 110.534  0.00  0.00    +0.000 A 
ATOM     26  C10 UNL     1      60.566  63.342 110.652  0.00  0.00    +0.000 A 
ATOM     27  C11 UNL     1      59.991  63.721 111.867  0.00  0.00    +0.000 A 
ATOM     28  F1  UNL     1      59.371  64.922 111.980  0.00  0.00    +0.000 F 
ATOM     29  C12 UNL     1      60.054  62.863 112.967  0.00  0.00    +0.000 A 
ATOM     30  C13 UNL     1      60.690  61.623 112.855  0.00  0.00    +0.000 A 
ENDBRANCH  23  24
BRANCH  23  31
ATOM     31  C14 UNL     1      63.265  59.878 112.296  0.00  0.00    +0.000 A 
ATOM     32  C15 UNL     1      63.208  59.674 113.688  0.00  0.00    +0.000 A 
ATOM     33  C16 UNL     1      64.376  59.681 114.457  0.00  0.00    +0.000 A 
ATOM     34  C17 UNL     1      65.613  59.906 113.848  0.00  0.00    +0.000 A 
ATOM     35  F2  UNL     1      66.746  59.911 114.596  0.00  0.00    +0.000 F 
ATOM     36  C18 UNL     1      65.683  60.130 112.472  0.00  0.00    +0.000 A 
ATOM     37  C19 UNL     1      64.518  60.125 111.699  0.00  0.00    +0.000 A 
ENDBRANCH  23  31
ENDBRANCH  22  23
ENDBRANCH  21  22
ENDBRANCH  20  21
ENDBRANCH   4  20
TORSDOF 9
ENDMDL
MODEL 2
REMARK VINA RESULT:      -8.6      8.354     12.360
REMARK  Name = ./S4151.pdb
REMARK  9 active torsions:
REMARK  status: ('A' for Active; 'I' for Inactive)
REMARK    1  A    between atoms: O1_1  and  C1_2
REMARK    2  A    between atoms: C1_2  and  C22_26
REMARK    3  A    between atoms: N1_5  and  C4_6
REMARK    4  A    between atoms: C4_6  and  C5_7
REMARK    5  A    between atoms: C5_7  and  C6_8
REMARK    6  A    between atoms: C6_8  and  C7_9
REMARK    7  A    between atoms: C7_9  and  C8_10
REMARK    8  A    between atoms: C7_9  and  C14_17
REMARK    9  A    between atoms: C24_28  and  C28_33
REMARK                            x       y       z     vdW  Elec       q    Type
REMARK                         _______ _______ _______ _____ _____    ______ ____
ROOT
ATOM      1  C1  UNL     1      67.779  60.024  99.357  0.00  0.00    +0.000 C 
ATOM      2  C2  UNL     1      67.714  60.318  97.833  0.00  0.00    +0.000 C 
ATOM      3  C3  UNL     1      69.108  60.626  97.264  0.00  0.00    +0.000 C 
ATOM      4  N1  UNL     1      70.037  59.479  97.392  0.00  0.00    +0.000 NA
ATOM      5  C20 UNL     1      69.731  58.547  98.507  0.00  0.00    +0.000 C 
ATOM      6  C21 UNL     1      69.085  59.244  99.718  0.00  0.00    +0.000 C 
ENDROOT
BRANCH   1   7
ATOM      7  C22 UNL     1      66.505  59.258  99.755  0.00  0.00    +0.000 A 
ATOM      8  C23 UNL     1      65.447  59.884 100.452  0.00  0.00    +0.000 A 
ATOM      9  C24 UNL     1      64.301  59.165 100.850  0.00  0.00    +0.000 A 
ATOM     10  C25 UNL     1      64.225  57.785 100.551  0.00  0.00    +0.000 A 
ATOM     11 CL1  UNL     1      62.822  56.812 100.988  0.00  0.00    +0.000 Cl
ATOM     12  C26 UNL     1      65.285  57.147  99.899  0.00  0.00    +0.000 A 
ATOM     13  C27 UNL     1      66.417  57.868  99.521  0.00  0.00    +0.000 A 
BRANCH   9  14
ATOM     14  C28 UNL     1      63.171  59.864 101.583  0.00  0.00    +0.000 C 
ATOM     15  F3  UNL     1      62.941  59.311 102.835  0.00  0.00    +0.000 F 
ATOM     16  F4  UNL     1      63.486  61.202 101.751  0.00  0.00    +0.000 F 
ATOM     17  F5  UNL     1      62.002  59.757 100.845  0.00  0.00    +0.000 F 
ENDBRANCH   9  14
ENDBRANCH   1   7
BRANCH   1  18
ATOM     18  O1  UNL     1      67.790  61.244 100.074  0.00  0.00    +0.000 OA
ATOM     19  H1  UNL     1      68.076  61.071 101.006  0.00  0.00    +0.000 HD
ENDBRANCH   1  18
BRANCH   4  20
ATOM     20  C4  UNL     1      71.450  59.920  97.385  0.00  0.00    +0.000 C 
BRANCH  20  21
ATOM     21  C5  UNL     1      71.556  61.429  97.124  0.00  0.00    +0.000 C 
BRANCH  21  22
ATOM     22  C6  UNL     1      72.407  62.133  98.195  0.00  0.00    +0.000 C 
BRANCH  22  23
ATOM     23  C7  UNL     1      72.755  61.193  99.373  0.00  0.00    +0.000 C 
BRANCH  23  24
ATOM     24  C8  UNL     1      71.943  61.510 100.615  0.00  0.00    +0.000 A 
ATOM     25  C9  UNL     1      70.962  62.519 100.575  0.00  0.00    +0.000 A 
ATOM     26  C10 UNL     1      70.211  62.823 101.715  0.00  0.00    +0.000 A 
ATOM     27  C11 UNL     1      70.429  62.125 102.904  0.00  0.00    +0.000 A 
ATOM     28  F1  UNL     1      69.698  62.419 104.009  0.00  0.00    +0.000 F 
ATOM     29  C12 UNL     1      71.400  61.123 102.957  0.00  0.00    +0.000 A 
ATOM     30  C13 UNL     1      72.154  60.814 101.821  0.00  0.00    +0.000 A 
ENDBRANCH  23  24
BRANCH  23  31
ATOM     31  C14 UNL     1      74.240  61.168  99.702  0.00  0.00    +0.000 A 
ATOM     32  C15 UNL     1      74.849  62.331 100.211  0.00  0.00    +0.000 A 
ATOM     33  C16 UNL     1      76.216  62.350 100.503  0.00  0.00    +0.000 A 
ATOM     34  C17 UNL     1      76.995  61.213 100.278  0.00  0.00    +0.000 A 
ATOM     35  F2  UNL     1      78.322  61.232 100.563  0.00  0.00    +0.000 F 
ATOM     36  C18 UNL     1      76.410  60.058  99.754  0.00  0.00    +0.000 A 
ATOM     37  C19 UNL     1      75.043  60.035  99.459  0.00  0.00    +0.000 A 
ENDBRANCH  23  31
ENDBRANCH  22  23
ENDBRANCH  21  22
ENDBRANCH  20  21
ENDBRANCH   4  20
TORSDOF 9
ENDMDL
MODEL 3
REMARK VINA RESULT:      -8.6      1.687      2.265
REMARK  Name = ./S4151.pdb
REMARK  9 active torsions:
REMARK  status: ('A' for Active; 'I' for Inactive)
REMARK    1  A    between atoms: O1_1  and  C1_2
REMARK    2  A    between atoms: C1_2  and  C22_26
REMARK    3  A    between atoms: N1_5  and  C4_6
REMARK    4  A    between atoms: C4_6  and  C5_7
REMARK    5  A    between atoms: C5_7  and  C6_8
REMARK    6  A    between atoms: C6_8  and  C7_9
REMARK    7  A    between atoms: C7_9  and  C8_10
REMARK    8  A    between atoms: C7_9  and  C14_17
REMARK    9  A    between atoms: C24_28  and  C28_33
REMARK                            x       y       z     vdW  Elec       q    Type
REMARK                         _______ _______ _______ _____ _____    ______ ____
ROOT
ATOM      1  C1  UNL     1      62.467  59.284 106.102  0.00  0.00    +0.000 C 
ATOM      2  C2  UNL     1      64.003  59.405 106.298  0.00  0.00    +0.000 C 
ATOM      3  C3  UNL     1      64.386  59.300 107.781  0.00  0.00    +0.000 C 
ATOM      4  N1  UNL     1      64.029  57.986 108.367  0.00  0.00    +0.000 NA
ATOM      5  C20 UNL     1      62.898  57.291 107.702  0.00  0.00    +0.000 C 
ATOM      6  C21 UNL     1      61.855  58.260 107.113  0.00  0.00    +0.000 C 
ENDROOT
BRANCH   1   7
ATOM      7  C22 UNL     1      62.196  58.898 104.636  0.00  0.00    +0.000 A 
ATOM      8  C23 UNL     1      62.815  59.577 103.561  0.00  0.00    +0.000 A 
ATOM      9  C24 UNL     1      62.530  59.245 102.221  0.00  0.00    +0.000 A 
ATOM     10  C25 UNL     1      61.594  58.218 101.957  0.00  0.00    +0.000 A 
ATOM     11 CL1  UNL     1      61.194  57.721 100.315  0.00  0.00    +0.000 Cl
ATOM     12  C26 UNL     1      60.945  57.571 103.012  0.00  0.00    +0.000 A 
ATOM     13  C27 UNL     1      61.228  57.915 104.333  0.00  0.00    +0.000 A 
BRANCH   9  14
ATOM     14  C28 UNL     1      63.220  59.977 101.084  0.00  0.00    +0.000 C 
ATOM     15  F3  UNL     1      62.389  60.134  99.984  0.00  0.00    +0.000 F 
ATOM     16  F4  UNL     1      63.613  61.234 101.515  0.00  0.00    +0.000 F 
ATOM     17  F5  UNL     1      64.336  59.261 100.680  0.00  0.00    +0.000 F 
ENDBRANCH   9  14
ENDBRANCH   1   7
BRANCH   1  18
ATOM     18  O1  UNL     1      61.859  60.540 106.335  0.00  0.00    +0.000 OA
ATOM     19  H1  UNL     1      61.418  60.528 107.222  0.00  0.00    +0.000 HD
ENDBRANCH   1  18
BRANCH   4  20
ATOM     20  C4  UNL     1      63.867  58.070 109.835  0.00  0.00    +0.000 C 
BRANCH  20  21
ATOM     21  C5  UNL     1      64.625  59.277 110.406  0.00  0.00    +0.000 C 
BRANCH  21  22
ATOM     22  C6  UNL     1      63.857  59.935 111.566  0.00  0.00    +0.000 C 
BRANCH  22  23
ATOM     23  C7  UNL     1      62.368  59.513 111.591  0.00  0.00    +0.000 C 
BRANCH  23  24
ATOM     24  C8  UNL     1      61.443  60.669 111.259  0.00  0.00    +0.000 A 
ATOM     25  C9  UNL     1      61.220  61.028 109.916  0.00  0.00    +0.000 A 
ATOM     26  C10 UNL     1      60.373  62.094 109.599  0.00  0.00    +0.000 A 
ATOM     27  C11 UNL     1      59.739  62.812 110.616  0.00  0.00    +0.000 A 
ATOM     28  F1  UNL     1      58.915  63.845 110.306  0.00  0.00    +0.000 F 
ATOM     29  C12 UNL     1      59.952  62.466 111.951  0.00  0.00    +0.000 A 
ATOM     30  C13 UNL     1      60.798  61.401 112.275  0.00  0.00    +0.000 A 
ENDBRANCH  23  24
BRANCH  23  31
ATOM     31  C14 UNL     1      61.953  58.859 112.900  0.00  0.00    +0.000 A 
ATOM     32  C15 UNL     1      62.729  59.082 114.054  0.00  0.00    +0.000 A 
ATOM     33  C16 UNL     1      62.389  58.478 115.269  0.00  0.00    +0.000 A 
ATOM     34  C17 UNL     1      61.277  57.635 115.343  0.00  0.00    +0.000 A 
ATOM     35  F2  UNL     1      60.946  57.052 116.523  0.00  0.00    +0.000 F 
ATOM     36  C18 UNL     1      60.509  57.390 114.203  0.00  0.00    +0.000 A 
ATOM     37  C19 UNL     1      60.847  57.990 112.986  0.00  0.00    +0.000 A 
ENDBRANCH  23  31
ENDBRANCH  22  23
ENDBRANCH  21  22
ENDBRANCH  20  21
ENDBRANCH   4  20
TORSDOF 9
ENDMDL
MODEL 4
REMARK VINA RESULT:      -8.5      1.572      3.924
REMARK  Name = ./S4151.pdb
REMARK  9 active torsions:
REMARK  status: ('A' for Active; 'I' for Inactive)
REMARK    1  A    between atoms: O1_1  and  C1_2
REMARK    2  A    between atoms: C1_2  and  C22_26
REMARK    3  A    between atoms: N1_5  and  C4_6
REMARK    4  A    between atoms: C4_6  and  C5_7
REMARK    5  A    between atoms: C5_7  and  C6_8
REMARK    6  A    between atoms: C6_8  and  C7_9
REMARK    7  A    between atoms: C7_9  and  C8_10
REMARK    8  A    between atoms: C7_9  and  C14_17
REMARK    9  A    between atoms: C24_28  and  C28_33
REMARK                            x       y       z     vdW  Elec       q    Type
REMARK                         _______ _______ _______ _____ _____    ______ ____
ROOT
ATOM      1  C1  UNL     1      62.470  59.101 105.888  0.00  0.00    +0.000 C 
ATOM      2  C2  UNL     1      64.012  59.040 106.066  0.00  0.00    +0.000 C 
ATOM      3  C3  UNL     1      64.396  58.826 107.538  0.00  0.00    +0.000 C 
ATOM      4  N1  UNL     1      63.898  57.535 108.071  0.00  0.00    +0.000 NA
ATOM      5  C20 UNL     1      62.689  57.002 107.393  0.00  0.00    +0.000 C 
ATOM      6  C21 UNL     1      61.757  58.107 106.862  0.00  0.00    +0.000 C 
ENDROOT
BRANCH   1   7
ATOM      7  C22 UNL     1      62.143  58.815 104.411  0.00  0.00    +0.000 A 
ATOM      8  C23 UNL     1      62.806  59.486 103.358  0.00  0.00    +0.000 A 
ATOM      9  C24 UNL     1      62.472  59.248 102.010  0.00  0.00    +0.000 A 
ATOM     10  C25 UNL     1      61.441  58.326 101.715  0.00  0.00    +0.000 A 
ATOM     11 CL1  UNL     1      60.972  57.949 100.059  0.00  0.00    +0.000 Cl
ATOM     12  C26 UNL     1      60.751  57.690 102.750  0.00  0.00    +0.000 A 
ATOM     13  C27 UNL     1      61.084  57.941 104.080  0.00  0.00    +0.000 A 
BRANCH   9  14
ATOM     14  C28 UNL     1      63.210  59.969 100.896  0.00  0.00    +0.000 C 
ATOM     15  F3  UNL     1      62.401  60.187  99.790  0.00  0.00    +0.000 F 
ATOM     16  F4  UNL     1      63.656  61.197 101.356  0.00  0.00    +0.000 F 
ATOM     17  F5  UNL     1      64.297  59.209 100.491  0.00  0.00    +0.000 F 
ENDBRANCH   9  14
ENDBRANCH   1   7
BRANCH   1  18
ATOM     18  O1  UNL     1      62.011  60.405 106.186  0.00  0.00    +0.000 OA
ATOM     19  H1  UNL     1      61.500  60.755 105.412  0.00  0.00    +0.000 HD
ENDBRANCH   1  18
BRANCH   4  20
ATOM     20  C4  UNL     1      63.761  57.570 109.544  0.00  0.00    +0.000 C 
BRANCH  20  21
ATOM     21  C5  UNL     1      63.637  59.014 110.053  0.00  0.00    +0.000 C 
BRANCH  21  22
ATOM     22  C6  UNL     1      62.184  59.367 110.413  0.00  0.00    +0.000 C 
BRANCH  22  23
ATOM     23  C7  UNL     1      62.088  60.143 111.748  0.00  0.00    +0.000 C 
BRANCH  23  24
ATOM     24  C8  UNL     1      61.850  59.221 112.928  0.00  0.00    +0.000 A 
ATOM     25  C9  UNL     1      60.772  58.314 112.906  0.00  0.00    +0.000 A 
ATOM     26  C10 UNL     1      60.540  57.462 113.991  0.00  0.00    +0.000 A 
ATOM     27  C11 UNL     1      61.379  57.504 115.106  0.00  0.00    +0.000 A 
ATOM     28  F1  UNL     1      61.154  56.674 116.157  0.00  0.00    +0.000 F 
ATOM     29  C12 UNL     1      62.450  58.398 115.141  0.00  0.00    +0.000 A 
ATOM     30  C13 UNL     1      62.688  59.253 114.061  0.00  0.00    +0.000 A 
ENDBRANCH  23  24
BRANCH  23  31
ATOM     31  C14 UNL     1      61.047  61.252 111.723  0.00  0.00    +0.000 A 
ATOM     32  C15 UNL     1      60.703  61.897 112.927  0.00  0.00    +0.000 A 
ATOM     33  C16 UNL     1      59.733  62.905 112.943  0.00  0.00    +0.000 A 
ATOM     34  C17 UNL     1      59.087  63.273 111.761  0.00  0.00    +0.000 A 
ATOM     35  F2  UNL     1      58.148  64.252 111.778  0.00  0.00    +0.000 F 
ATOM     36  C18 UNL     1      59.403  62.628 110.563  0.00  0.00    +0.000 A 
ATOM     37  C19 UNL     1      60.370  61.619 110.542  0.00  0.00    +0.000 A 
ENDBRANCH  23  31
ENDBRANCH  22  23
ENDBRANCH  21  22
ENDBRANCH  20  21
ENDBRANCH   4  20
TORSDOF 9
ENDMDL
MODEL 5
REMARK VINA RESULT:      -8.5      3.932      9.566
REMARK  Name = ./S4151.pdb
REMARK  9 active torsions:
REMARK  status: ('A' for Active; 'I' for Inactive)
REMARK    1  A    between atoms: O1_1  and  C1_2
REMARK    2  A    between atoms: C1_2  and  C22_26
REMARK    3  A    between atoms: N1_5  and  C4_6
REMARK    4  A    between atoms: C4_6  and  C5_7
REMARK    5  A    between atoms: C5_7  and  C6_8
REMARK    6  A    between atoms: C6_8  and  C7_9
REMARK    7  A    between atoms: C7_9  and  C8_10
REMARK    8  A    between atoms: C7_9  and  C14_17
REMARK    9  A    between atoms: C24_28  and  C28_33
REMARK                            x       y       z     vdW  Elec       q    Type
REMARK                         _______ _______ _______ _____ _____    ______ ____
ROOT
ATOM      1  C1  UNL     1      61.931  60.015 112.240  0.00  0.00    +0.000 C 
ATOM      2  C2  UNL     1      60.798  58.958 112.352  0.00  0.00    +0.000 C 
ATOM      3  C3  UNL     1      60.211  58.620 110.973  0.00  0.00    +0.000 C 
ATOM      4  N1  UNL     1      61.213  58.012 110.065  0.00  0.00    +0.000 NA
ATOM      5  C20 UNL     1      62.623  58.378 110.353  0.00  0.00    +0.000 C 
ATOM      6  C21 UNL     1      62.772  59.794 110.940  0.00  0.00    +0.000 C 
ENDROOT
BRANCH   1   7
ATOM      7  C22 UNL     1      62.788  59.940 113.516  0.00  0.00    +0.000 A 
ATOM      8  C23 UNL     1      64.197  59.829 113.462  0.00  0.00    +0.000 A 
ATOM      9  C24 UNL     1      64.971  59.720 114.635  0.00  0.00    +0.000 A 
ATOM     10  C25 UNL     1      64.313  59.708 115.888  0.00  0.00    +0.000 A 
ATOM     11 CL1  UNL     1      65.201  59.598 117.406  0.00  0.00    +0.000 Cl
ATOM     12  C26 UNL     1      62.918  59.774 115.949  0.00  0.00    +0.000 A 
ATOM     13  C27 UNL     1      62.164  59.872 114.781  0.00  0.00    +0.000 A 
BRANCH   9  14
ATOM     14  C28 UNL     1      66.483  59.619 114.552  0.00  0.00    +0.000 C 
ATOM     15  F3  UNL     1      66.949  58.390 114.997  0.00  0.00    +0.000 F 
ATOM     16  F4  UNL     1      66.886  59.785 113.237  0.00  0.00    +0.000 F 
ATOM     17  F5  UNL     1      67.059  60.606 115.336  0.00  0.00    +0.000 F 
ENDBRANCH   9  14
ENDBRANCH   1   7
BRANCH   1  18
ATOM     18  O1  UNL     1      61.365  61.310 112.176  0.00  0.00    +0.000 OA
ATOM     19  H1  UNL     1      61.207  61.641 113.096  0.00  0.00    +0.000 HD
ENDBRANCH   1  18
BRANCH   4  20
ATOM     20  C4  UNL     1      60.849  58.205 108.644  0.00  0.00    +0.000 C 
BRANCH  20  21
ATOM     21  C5  UNL     1      61.304  57.013 107.790  0.00  0.00    +0.000 C 
BRANCH  21  22
ATOM     22  C6  UNL     1      61.376  57.378 106.297  0.00  0.00    +0.000 C 
BRANCH  22  23
ATOM     23  C7  UNL     1      62.196  58.667 106.052  0.00  0.00    +0.000 C 
BRANCH  23  24
ATOM     24  C8  UNL     1      62.257  59.032 104.581  0.00  0.00    +0.000 A 
ATOM     25  C9  UNL     1      61.524  58.285 103.639  0.00  0.00    +0.000 A 
ATOM     26  C10 UNL     1      61.576  58.611 102.280  0.00  0.00    +0.000 A 
ATOM     27  C11 UNL     1      62.358  59.683 101.846  0.00  0.00    +0.000 A 
ATOM     28  F1  UNL     1      62.406  59.999 100.527  0.00  0.00    +0.000 F 
ATOM     29  C12 UNL     1      63.091  60.431 102.769  0.00  0.00    +0.000 A 
ATOM     30  C13 UNL     1      63.043  60.111 104.130  0.00  0.00    +0.000 A 
ENDBRANCH  23  24
BRANCH  23  31
ATOM     31  C14 UNL     1      63.597  58.607 106.643  0.00  0.00    +0.000 A 
ATOM     32  C15 UNL     1      64.079  59.709 107.375  0.00  0.00    +0.000 A 
ATOM     33  C16 UNL     1      65.370  59.697 107.912  0.00  0.00    +0.000 A 
ATOM     34  C17 UNL     1      66.200  58.590 107.715  0.00  0.00    +0.000 A 
ATOM     35  F2  UNL     1      67.452  58.579 108.238  0.00  0.00    +0.000 F 
ATOM     36  C18 UNL     1      65.742  57.499 106.974  0.00  0.00    +0.000 A 
ATOM     37  C19 UNL     1      64.453  57.507 106.433  0.00  0.00    +0.000 A 
ENDBRANCH  23  31
ENDBRANCH  22  23
ENDBRANCH  21  22
ENDBRANCH  20  21
ENDBRANCH   4  20
TORSDOF 9
ENDMDL
MODEL 6
REMARK VINA RESULT:      -8.5      3.667      9.311
REMARK  Name = ./S4151.pdb
REMARK  9 active torsions:
REMARK  status: ('A' for Active; 'I' for Inactive)
REMARK    1  A    between atoms: O1_1  and  C1_2
REMARK    2  A    between atoms: C1_2  and  C22_26
REMARK    3  A    between atoms: N1_5  and  C4_6
REMARK    4  A    between atoms: C4_6  and  C5_7
REMARK    5  A    between atoms: C5_7  and  C6_8
REMARK    6  A    between atoms: C6_8  and  C7_9
REMARK    7  A    between atoms: C7_9  and  C8_10
REMARK    8  A    between atoms: C7_9  and  C14_17
REMARK    9  A    between atoms: C24_28  and  C28_33
REMARK                            x       y       z     vdW  Elec       q    Type
REMARK                         _______ _______ _______ _____ _____    ______ ____
ROOT
ATOM      1  C1  UNL     1      60.623  60.843 110.881  0.00  0.00    +0.000 C 
ATOM      2  C2  UNL     1      59.506  59.763 110.867  0.00  0.00    +0.000 C 
ATOM      3  C3  UNL     1      59.817  58.651 109.854  0.00  0.00    +0.000 C 
ATOM      4  N1  UNL     1      61.058  57.913 110.188  0.00  0.00    +0.000 NA
ATOM      5  C20 UNL     1      62.052  58.683 110.977  0.00  0.00    +0.000 C 
ATOM      6  C21 UNL     1      62.029  60.193 110.671  0.00  0.00    +0.000 C 
ENDROOT
BRANCH   1   7
ATOM      7  C22 UNL     1      60.525  61.621 112.205  0.00  0.00    +0.000 A 
ATOM      8  C23 UNL     1      60.362  63.025 112.234  0.00  0.00    +0.000 A 
ATOM      9  C24 UNL     1      60.315  63.735 113.451  0.00  0.00    +0.000 A 
ATOM     10  C25 UNL     1      60.447  63.019 114.663  0.00  0.00    +0.000 A 
ATOM     11 CL1  UNL     1      60.378  63.820 116.232  0.00  0.00    +0.000 Cl
ATOM     12  C26 UNL     1      60.651  61.637 114.644  0.00  0.00    +0.000 A 
ATOM     13  C27 UNL     1      60.707  60.948 113.434  0.00  0.00    +0.000 A 
BRANCH   9  14
ATOM     14  C28 UNL     1      60.123  65.241 113.456  0.00  0.00    +0.000 C 
ATOM     15  F3  UNL     1      58.948  65.614 114.093  0.00  0.00    +0.000 F 
ATOM     16  F4  UNL     1      61.183  65.840 114.115  0.00  0.00    +0.000 F 
ATOM     17  F5  UNL     1      60.071  65.707 112.152  0.00  0.00    +0.000 F 
ENDBRANCH   9  14
ENDBRANCH   1   7
BRANCH   1  18
ATOM     18  O1  UNL     1      60.406  61.760 109.826  0.00  0.00    +0.000 OA
ATOM     19  H1  UNL     1      60.048  62.606 110.198  0.00  0.00    +0.000 HD
ENDBRANCH   1  18
BRANCH   4  20
ATOM     20  C4  UNL     1      61.648  57.272 108.991  0.00  0.00    +0.000 C 
BRANCH  20  21
ATOM     21  C5  UNL     1      60.707  57.385 107.783  0.00  0.00    +0.000 C 
BRANCH  21  22
ATOM     22  C6  UNL     1      61.480  57.345 106.454  0.00  0.00    +0.000 C 
BRANCH  22  23
ATOM     23  C7  UNL     1      62.218  58.675 106.170  0.00  0.00    +0.000 C 
BRANCH  23  24
ATOM     24  C8  UNL     1      62.237  59.012 104.691  0.00  0.00    +0.000 A 
ATOM     25  C9  UNL     1      61.487  58.240 103.784  0.00  0.00    +0.000 A 
ATOM     26  C10 UNL     1      61.501  58.538 102.418  0.00  0.00    +0.000 A 
ATOM     27  C11 UNL     1      62.261  59.608 101.942  0.00  0.00    +0.000 A 
ATOM     28  F1  UNL     1      62.272  59.899 100.616  0.00  0.00    +0.000 F 
ATOM     29  C12 UNL     1      63.010  60.382 102.831  0.00  0.00    +0.000 A 
ATOM     30  C13 UNL     1      63.001  60.088 104.198  0.00  0.00    +0.000 A 
ENDBRANCH  23  24
BRANCH  23  31
ATOM     31  C14 UNL     1      63.628  58.712 106.741  0.00  0.00    +0.000 A 
ATOM     32  C15 UNL     1      64.470  57.598 106.559  0.00  0.00    +0.000 A 
ATOM     33  C16 UNL     1      65.764  57.589 107.090  0.00  0.00    +0.000 A 
ATOM     34  C17 UNL     1      66.228  58.686 107.820  0.00  0.00    +0.000 A 
ATOM     35  F2  UNL     1      67.484  58.677 108.333  0.00  0.00    +0.000 F 
ATOM     36  C18 UNL     1      65.397  59.789 108.026  0.00  0.00    +0.000 A 
ATOM     37  C19 UNL     1      64.102  59.802 107.498  0.00  0.00    +0.000 A 
ENDBRANCH  23  31
ENDBRANCH  22  23
ENDBRANCH  21  22
ENDBRANCH  20  21
ENDBRANCH   4  20
TORSDOF 9
ENDMDL
MODEL 7
REMARK VINA RESULT:      -8.5      1.280      4.117
REMARK  Name = ./S4151.pdb
REMARK  9 active torsions:
REMARK  status: ('A' for Active; 'I' for Inactive)
REMARK    1  A    between atoms: O1_1  and  C1_2
REMARK    2  A    between atoms: C1_2  and  C22_26
REMARK    3  A    between atoms: N1_5  and  C4_6
REMARK    4  A    between atoms: C4_6  and  C5_7
REMARK    5  A    between atoms: C5_7  and  C6_8
REMARK    6  A    between atoms: C6_8  and  C7_9
REMARK    7  A    between atoms: C7_9  and  C8_10
REMARK    8  A    between atoms: C7_9  and  C14_17
REMARK    9  A    between atoms: C24_28  and  C28_33
REMARK                            x       y       z     vdW  Elec       q    Type
REMARK                         _______ _______ _______ _____ _____    ______ ____
ROOT
ATOM      1  C1  UNL     1      62.579  58.487 105.790  0.00  0.00    +0.000 C 
ATOM      2  C2  UNL     1      63.710  58.230 106.823  0.00  0.00    +0.000 C 
ATOM      3  C3  UNL     1      63.138  57.971 108.225  0.00  0.00    +0.000 C 
ATOM      4  N1  UNL     1      62.291  56.754 108.275  0.00  0.00    +0.000 NA
ATOM      5  C20 UNL     1      61.658  56.380 106.985  0.00  0.00    +0.000 C 
ATOM      6  C21 UNL     1      61.333  57.594 106.095  0.00  0.00    +0.000 C 
ENDROOT
BRANCH   1   7
ATOM      7  C22 UNL     1      63.149  58.243 104.381  0.00  0.00    +0.000 A 
ATOM      8  C23 UNL     1      63.193  59.268 103.408  0.00  0.00    +0.000 A 
ATOM      9  C24 UNL     1      63.678  59.024 102.107  0.00  0.00    +0.000 A 
ATOM     10  C25 UNL     1      64.115  57.721 101.774  0.00  0.00    +0.000 A 
ATOM     11 CL1  UNL     1      64.757  57.331 100.180  0.00  0.00    +0.000 Cl
ATOM     12  C26 UNL     1      64.035  56.691 102.716  0.00  0.00    +0.000 A 
ATOM     13  C27 UNL     1      63.544  56.942 103.996  0.00  0.00    +0.000 A 
BRANCH   9  14
ATOM     14  C28 UNL     1      63.732  60.145 101.085  0.00  0.00    +0.000 C 
ATOM     15  F3  UNL     1      63.493  61.386 101.658  0.00  0.00    +0.000 F 
ATOM     16  F4  UNL     1      64.986  60.174 100.495  0.00  0.00    +0.000 F 
ATOM     17  F5  UNL     1      62.771  59.931 100.109  0.00  0.00    +0.000 F 
ENDBRANCH   9  14
ENDBRANCH   1   7
BRANCH   1  18
ATOM     18  O1  UNL     1      62.172  59.840 105.861  0.00  0.00    +0.000 OA
ATOM     19  H1  UNL     1      62.684  60.297 106.577  0.00  0.00    +0.000 HD
ENDBRANCH   1  18
BRANCH   4  20
ATOM     20  C4  UNL     1      61.324  56.809 109.394  0.00  0.00    +0.000 C 
BRANCH  20  21
ATOM     21  C5  UNL     1      60.767  58.229 109.573  0.00  0.00    +0.000 C 
BRANCH  21  22
ATOM     22  C6  UNL     1      61.098  58.798 110.964  0.00  0.00    +0.000 C 
BRANCH  22  23
ATOM     23  C7  UNL     1      61.921  60.105 110.877  0.00  0.00    +0.000 C 
BRANCH  23  24
ATOM     24  C8  UNL     1      63.181  60.042 111.719  0.00  0.00    +0.000 A 
ATOM     25  C9  UNL     1      63.090  59.818 113.106  0.00  0.00    +0.000 A 
ATOM     26  C10 UNL     1      64.245  59.763 113.893  0.00  0.00    +0.000 A 
ATOM     27  C11 UNL     1      65.501  59.929 113.306  0.00  0.00    +0.000 A 
ATOM     28  F1  UNL     1      66.621  59.873 114.070  0.00  0.00    +0.000 F 
ATOM     29  C12 UNL     1      65.605  60.153 111.932  0.00  0.00    +0.000 A 
ATOM     30  C13 UNL     1      64.454  60.209 111.140  0.00  0.00    +0.000 A 
ENDBRANCH  23  24
BRANCH  23  31
ATOM     31  C14 UNL     1      61.112  61.346 111.224  0.00  0.00    +0.000 A 
ATOM     32  C15 UNL     1      61.106  62.432 110.328  0.00  0.00    +0.000 A 
ATOM     33  C16 UNL     1      60.392  63.597 110.626  0.00  0.00    +0.000 A 
ATOM     34  C17 UNL     1      59.686  63.697 111.827  0.00  0.00    +0.000 A 
ATOM     35  F2  UNL     1      58.991  64.827 112.114  0.00  0.00    +0.000 F 
ATOM     36  C18 UNL     1      59.699  62.635 112.735  0.00  0.00    +0.000 A 
ATOM     37  C19 UNL     1      60.413  61.469 112.442  0.00  0.00    +0.000 A 
ENDBRANCH  23  31
ENDBRANCH  22  23
ENDBRANCH  21  22
ENDBRANCH  20  21
ENDBRANCH   4  20
TORSDOF 9
ENDMDL
MODEL 8
REMARK VINA RESULT:      -8.5      1.546      4.211
REMARK  Name = ./S4151.pdb
REMARK  9 active torsions:
REMARK  status: ('A' for Active; 'I' for Inactive)
REMARK    1  A    between atoms: O1_1  and  C1_2
REMARK    2  A    between atoms: C1_2  and  C22_26
REMARK    3  A    between atoms: N1_5  and  C4_6
REMARK    4  A    between atoms: C4_6  and  C5_7
REMARK    5  A    between atoms: C5_7  and  C6_8
REMARK    6  A    between atoms: C6_8  and  C7_9
REMARK    7  A    between atoms: C7_9  and  C8_10
REMARK    8  A    between atoms: C7_9  and  C14_17
REMARK    9  A    between atoms: C24_28  and  C28_33
REMARK                            x       y       z     vdW  Elec       q    Type
REMARK                         _______ _______ _______ _____ _____    ______ ____
ROOT
ATOM      1  C1  UNL     1      62.408  59.336 105.834  0.00  0.00    +0.000 C 
ATOM      2  C2  UNL     1      63.906  59.152 106.200  0.00  0.00    +0.000 C 
ATOM      3  C3  UNL     1      64.072  58.672 107.650  0.00  0.00    +0.000 C 
ATOM      4  N1  UNL     1      63.456  57.343 107.880  0.00  0.00    +0.000 NA
ATOM      5  C20 UNL     1      62.334  57.007 106.967  0.00  0.00    +0.000 C 
ATOM      6  C21 UNL     1      61.528  58.240 106.518  0.00  0.00    +0.000 C 
ENDROOT
BRANCH   1   7
ATOM      7  C22 UNL     1      62.281  59.321 104.300  0.00  0.00    +0.000 A 
ATOM      8  C23 UNL     1      61.483  58.367 103.627  0.00  0.00    +0.000 A 
ATOM      9  C24 UNL     1      61.406  58.335 102.220  0.00  0.00    +0.000 A 
ATOM     10  C25 UNL     1      62.156  59.273 101.474  0.00  0.00    +0.000 A 
ATOM     11 CL1  UNL     1      62.103  59.321  99.713  0.00  0.00    +0.000 Cl
ATOM     12  C26 UNL     1      62.981  60.192 102.128  0.00  0.00    +0.000 A 
ATOM     13  C27 UNL     1      63.057  60.208 103.520  0.00  0.00    +0.000 A 
BRANCH   9  14
ATOM     14  C28 UNL     1      60.529  57.311 101.522  0.00  0.00    +0.000 C 
ATOM     15  F3  UNL     1      61.259  56.488 100.677  0.00  0.00    +0.000 F 
ATOM     16  F4  UNL     1      59.904  56.516 102.469  0.00  0.00    +0.000 F 
ATOM     17  F5  UNL     1      59.568  57.962 100.764  0.00  0.00    +0.000 F 
ENDBRANCH   9  14
ENDBRANCH   1   7
BRANCH   1  18
ATOM     18  O1  UNL     1      61.961  60.599 106.290  0.00  0.00    +0.000 OA
ATOM     19  H1  UNL     1      61.368  61.001 105.606  0.00  0.00    +0.000 HD
ENDBRANCH   1  18
BRANCH   4  20
ATOM     20  C4  UNL     1      63.115  57.141 109.305  0.00  0.00    +0.000 C 
BRANCH  20  21
ATOM     21  C5  UNL     1      61.613  57.348 109.549  0.00  0.00    +0.000 C 
BRANCH  21  22
ATOM     22  C6  UNL     1      61.352  58.222 110.787  0.00  0.00    +0.000 C 
BRANCH  22  23
ATOM     23  C7  UNL     1      62.038  59.604 110.678  0.00  0.00    +0.000 C 
BRANCH  23  24
ATOM     24  C8  UNL     1      63.189  59.748 111.655  0.00  0.00    +0.000 A 
ATOM     25  C9  UNL     1      62.958  59.625 113.039  0.00  0.00    +0.000 A 
ATOM     26  C10 UNL     1      64.011  59.760 113.949  0.00  0.00    +0.000 A 
ATOM     27  C11 UNL     1      65.304  60.018 113.491  0.00  0.00    +0.000 A 
ATOM     28  F1  UNL     1      66.326  60.147 114.375  0.00  0.00    +0.000 F 
ATOM     29  C12 UNL     1      65.547  60.144 112.122  0.00  0.00    +0.000 A 
ATOM     30  C13 UNL     1      64.499  60.010 111.206  0.00  0.00    +0.000 A 
ENDBRANCH  23  24
BRANCH  23  31
ATOM     31  C14 UNL     1      61.069  60.767 110.826  0.00  0.00    +0.000 A 
ATOM     32  C15 UNL     1      59.857  60.566 111.515  0.00  0.00    +0.000 A 
ATOM     33  C16 UNL     1      58.933  61.607 111.650  0.00  0.00    +0.000 A 
ATOM     34  C17 UNL     1      59.201  62.858 111.087  0.00  0.00    +0.000 A 
ATOM     35  F2  UNL     1      58.305  63.868 111.220  0.00  0.00    +0.000 F 
ATOM     36  C18 UNL     1      60.389  63.066 110.384  0.00  0.00    +0.000 A 
ATOM     37  C19 UNL     1      61.315  62.028 110.245  0.00  0.00    +0.000 A 
ENDBRANCH  23  31
ENDBRANCH  22  23
ENDBRANCH  21  22
ENDBRANCH  20  21
ENDBRANCH   4  20
TORSDOF 9
ENDMDL
MODEL 9
REMARK VINA RESULT:      -8.4      3.663     10.511
REMARK  Name = ./S4151.pdb
REMARK  9 active torsions:
REMARK  status: ('A' for Active; 'I' for Inactive)
REMARK    1  A    between atoms: O1_1  and  C1_2
REMARK    2  A    between atoms: C1_2  and  C22_26
REMARK    3  A    between atoms: N1_5  and  C4_6
REMARK    4  A    between atoms: C4_6  and  C5_7
REMARK    5  A    between atoms: C5_7  and  C6_8
REMARK    6  A    between atoms: C6_8  and  C7_9
REMARK    7  A    between atoms: C7_9  and  C8_10
REMARK    8  A    between atoms: C7_9  and  C14_17
REMARK    9  A    between atoms: C24_28  and  C28_33
REMARK                            x       y       z     vdW  Elec       q    Type
REMARK                         _______ _______ _______ _____ _____    ______ ____
ROOT
ATOM      1  C1  UNL     1      63.517  59.451 109.593  0.00  0.00    +0.000 C 
ATOM      2  C2  UNL     1      62.642  58.170 109.522  0.00  0.00    +0.000 C 
ATOM      3  C3  UNL     1      62.505  57.666 108.077  0.00  0.00    +0.000 C 
ATOM      4  N1  UNL     1      63.808  57.272 107.490  0.00  0.00    +0.000 NA
ATOM      5  C20 UNL     1      64.990  57.956 108.072  0.00  0.00    +0.000 C 
ATOM      6  C21 UNL     1      64.684  59.386 108.555  0.00  0.00    +0.000 C 
ENDROOT
BRANCH   1   7
ATOM      7  C22 UNL     1      64.022  59.611 111.039  0.00  0.00    +0.000 A 
ATOM      8  C23 UNL     1      63.160  59.458 112.149  0.00  0.00    +0.000 A 
ATOM      9  C24 UNL     1      63.622  59.647 113.468  0.00  0.00    +0.000 A 
ATOM     10  C25 UNL     1      64.973  60.010 113.673  0.00  0.00    +0.000 A 
ATOM     11 CL1  UNL     1      65.642  60.244 115.286  0.00  0.00    +0.000 Cl
ATOM     12  C26 UNL     1      65.822  60.205 112.579  0.00  0.00    +0.000 A 
ATOM     13  C27 UNL     1      65.351  60.025 111.279  0.00  0.00    +0.000 A 
BRANCH   9  14
ATOM     14  C28 UNL     1      62.682  59.462 114.645  0.00  0.00    +0.000 C 
ATOM     15  F3  UNL     1      62.570  60.614 115.411  0.00  0.00    +0.000 F 
ATOM     16  F4  UNL     1      61.420  59.125 114.181  0.00  0.00    +0.000 F 
ATOM     17  F5  UNL     1      63.155  58.447 115.463  0.00  0.00    +0.000 F 
ENDBRANCH   9  14
ENDBRANCH   1   7
BRANCH   1  18
ATOM     18  O1  UNL     1      62.725  60.582 109.286  0.00  0.00    +0.000 OA
ATOM     19  H1  UNL     1      63.155  61.392 109.661  0.00  0.00    +0.000 HD
ENDBRANCH   1  18
BRANCH   4  20
ATOM     20  C4  UNL     1      63.780  57.335 106.012  0.00  0.00    +0.000 C 
BRANCH  20  21
ATOM     21  C5  UNL     1      62.703  58.314 105.521  0.00  0.00    +0.000 C 
BRANCH  21  22
ATOM     22  C6  UNL     1      61.824  57.690 104.424  0.00  0.00    +0.000 C 
BRANCH  22  23
ATOM     23  C7  UNL     1      61.502  58.697 103.294  0.00  0.00    +0.000 C 
BRANCH  23  24
ATOM     24  C8  UNL     1      60.337  58.238 102.437  0.00  0.00    +0.000 A 
ATOM     25  C9  UNL     1      59.048  58.143 102.994  0.00  0.00    +0.000 A 
ATOM     26  C10 UNL     1      57.968  57.718 102.215  0.00  0.00    +0.000 A 
ATOM     27  C11 UNL     1      58.161  57.383 100.873  0.00  0.00    +0.000 A 
ATOM     28  F1  UNL     1      57.111  56.973 100.117  0.00  0.00    +0.000 F 
ATOM     29  C12 UNL     1      59.435  57.472 100.308  0.00  0.00    +0.000 A 
ATOM     30  C13 UNL     1      60.519  57.897 101.082  0.00  0.00    +0.000 A 
ENDBRANCH  23  24
BRANCH  23  31
ATOM     31  C14 UNL     1      62.705  59.024 102.423  0.00  0.00    +0.000 A 
ATOM     32  C15 UNL     1      62.811  60.308 101.854  0.00  0.00    +0.000 A 
ATOM     33  C16 UNL     1      63.892  60.635 101.030  0.00  0.00    +0.000 A 
ATOM     34  C17 UNL     1      64.875  59.682 100.753  0.00  0.00    +0.000 A 
ATOM     35  F2  UNL     1      65.925  60.001  99.955  0.00  0.00    +0.000 F 
ATOM     36  C18 UNL     1      64.773  58.398 101.294  0.00  0.00    +0.000 A 
ATOM     37  C19 UNL     1      63.693  58.066 102.117  0.00  0.00    +0.000 A 
ENDBRANCH  23  31
ENDBRANCH  22  23
ENDBRANCH  21  22
ENDBRANCH  20  21
ENDBRANCH   4  20
TORSDOF 9
ENDMDL
MODEL 10
REMARK VINA RESULT:      -8.4      8.551     12.654
REMARK  Name = ./S4151.pdb
REMARK  9 active torsions:
REMARK  status: ('A' for Active; 'I' for Inactive)
REMARK    1  A    between atoms: O1_1  and  C1_2
REMARK    2  A    between atoms: C1_2  and  C22_26
REMARK    3  A    between atoms: N1_5  and  C4_6
REMARK    4  A    between atoms: C4_6  and  C5_7
REMARK    5  A    between atoms: C5_7  and  C6_8
REMARK    6  A    between atoms: C6_8  and  C7_9
REMARK    7  A    between atoms: C7_9  and  C8_10
REMARK    8  A    between atoms: C7_9  and  C14_17
REMARK    9  A    between atoms: C24_28  and  C28_33
REMARK                            x       y       z     vdW  Elec       q    Type
REMARK                         _______ _______ _______ _____ _____    ______ ____
ROOT
ATOM      1  C1  UNL     1      68.036  59.395  99.777  0.00  0.00    +0.000 C 
ATOM      2  C2  UNL     1      67.734  60.501  98.729  0.00  0.00    +0.000 C 
ATOM      3  C3  UNL     1      68.935  60.733  97.800  0.00  0.00    +0.000 C 
ATOM      4  N1  UNL     1      69.274  59.531  97.002  0.00  0.00    +0.000 NA
ATOM      5  C20 UNL     1      68.876  58.239  97.616  0.00  0.00    +0.000 C 
ATOM      6  C21 UNL     1      68.916  58.263  99.155  0.00  0.00    +0.000 C 
ENDROOT
BRANCH   1   7
ATOM      7  C22 UNL     1      66.696  58.868 100.322  0.00  0.00    +0.000 A 
ATOM      8  C23 UNL     1      65.557  59.699 100.431  0.00  0.00    +0.000 A 
ATOM      9  C24 UNL     1      64.346  59.220 100.969  0.00  0.00    +0.000 A 
ATOM     10  C25 UNL     1      64.282  57.880 101.419  0.00  0.00    +0.000 A 
ATOM     11 CL1  UNL     1      62.805  57.189 102.085  0.00  0.00    +0.000 Cl
ATOM     12  C26 UNL     1      65.415  57.063 101.355  0.00  0.00    +0.000 A 
ATOM     13  C27 UNL     1      66.610  57.553 100.830  0.00  0.00    +0.000 A 
BRANCH   9  14
ATOM     14  C28 UNL     1      63.133  60.127 101.061  0.00  0.00    +0.000 C 
ATOM     15  F3  UNL     1      62.057  59.634 100.336  0.00  0.00    +0.000 F 
ATOM     16  F4  UNL     1      62.745  60.249 102.385  0.00  0.00    +0.000 F 
ATOM     17  F5  UNL     1      63.450  61.380 100.559  0.00  0.00    +0.000 F 
ENDBRANCH   9  14
ENDBRANCH   1   7
BRANCH   1  18
ATOM     18  O1  UNL     1      68.751  59.954 100.862  0.00  0.00    +0.000 OA
ATOM     19  H1  UNL     1      69.377  59.277 101.223  0.00  0.00    +0.000 HD
ENDBRANCH   1  18
BRANCH   4  20
ATOM     20  C4  UNL     1      70.688  59.547  96.565  0.00  0.00    +0.000 C 
BRANCH  20  21
ATOM     21  C5  UNL     1      71.457  60.699  97.228  0.00  0.00    +0.000 C 
BRANCH  21  22
ATOM     22  C6  UNL     1      72.171  60.242  98.512  0.00  0.00    +0.000 C 
BRANCH  22  23
ATOM     23  C7  UNL     1      72.678  61.437  99.353  0.00  0.00    +0.000 C 
BRANCH  23  24
ATOM     24  C8  UNL     1      74.158  61.326  99.668  0.00  0.00    +0.000 A 
ATOM     25  C9  UNL     1      74.843  60.123  99.414  0.00  0.00    +0.000 A 
ATOM     26  C10 UNL     1      76.206  60.007  99.705  0.00  0.00    +0.000 A 
ATOM     27  C11 UNL     1      76.900  61.089 100.250  0.00  0.00    +0.000 A 
ATOM     28  F1  UNL     1      78.223  60.977 100.530  0.00  0.00    +0.000 F 
ATOM     29  C12 UNL     1      76.232  62.288 100.508  0.00  0.00    +0.000 A 
ATOM     30  C13 UNL     1      74.870  62.410 100.220  0.00  0.00    +0.000 A 
ENDBRANCH  23  24
BRANCH  23  31
ATOM     31  C14 UNL     1      71.879  61.654 100.629  0.00  0.00    +0.000 A 
ATOM     32  C15 UNL     1      70.850  62.616 100.638  0.00  0.00    +0.000 A 
ATOM     33  C16 UNL     1      70.111  62.857 101.800  0.00  0.00    +0.000 A 
ATOM     34  C17 UNL     1      70.397  62.149 102.970  0.00  0.00    +0.000 A 
ATOM     35  F2  UNL     1      69.677  62.382 104.097  0.00  0.00    +0.000 F 
ATOM     36  C18 UNL     1      71.427  61.206 102.982  0.00  0.00    +0.000 A 
ATOM     37  C19 UNL     1      72.170  60.963 101.823  0.00  0.00    +0.000 A 
ENDBRANCH  23  31
ENDBRANCH  22  23
ENDBRANCH  21  22
ENDBRANCH  20  21
ENDBRANCH   4  20
TORSDOF 9
ENDMDL
MODEL 11
REMARK VINA RESULT:      -8.4      2.309      2.945
REMARK  Name = ./S4151.pdb
REMARK  9 active torsions:
REMARK  status: ('A' for Active; 'I' for Inactive)
REMARK    1  A    between atoms: O1_1  and  C1_2
REMARK    2  A    between atoms: C1_2  and  C22_26
REMARK    3  A    between atoms: N1_5  and  C4_6
REMARK    4  A    between atoms: C4_6  and  C5_7
REMARK    5  A    between atoms: C5_7  and  C6_8
REMARK    6  A    between atoms: C6_8  and  C7_9
REMARK    7  A    between atoms: C7_9  and  C8_10
REMARK    8  A    between atoms: C7_9  and  C14_17
REMARK    9  A    between atoms: C24_28  and  C28_33
REMARK                            x       y       z     vdW  Elec       q    Type
REMARK                         _______ _______ _______ _____ _____    ______ ____
ROOT
ATOM      1  C1  UNL     1      62.831  59.243 106.145  0.00  0.00    +0.000 C 
ATOM      2  C2  UNL     1      64.185  59.625 106.804  0.00  0.00    +0.000 C 
ATOM      3  C3  UNL     1      64.070  59.666 108.335  0.00  0.00    +0.000 C 
ATOM      4  N1  UNL     1      63.724  58.345 108.912  0.00  0.00    +0.000 NA
ATOM      5  C20 UNL     1      62.981  57.439 108.000  0.00  0.00    +0.000 C 
ATOM      6  C21 UNL     1      62.068  58.190 107.013  0.00  0.00    +0.000 C 
ENDROOT
BRANCH   1   7
ATOM      7  C22 UNL     1      63.114  58.739 104.719  0.00  0.00    +0.000 A 
ATOM      8  C23 UNL     1      63.234  59.626 103.625  0.00  0.00    +0.000 A 
ATOM      9  C24 UNL     1      63.451  59.153 102.315  0.00  0.00    +0.000 A 
ATOM     10  C25 UNL     1      63.538  57.758 102.099  0.00  0.00    +0.000 A 
ATOM     11 CL1  UNL     1      63.831  57.078 100.501  0.00  0.00    +0.000 Cl
ATOM     12  C26 UNL     1      63.378  56.871 103.168  0.00  0.00    +0.000 A 
ATOM     13  C27 UNL     1      63.153  57.351 104.457  0.00  0.00    +0.000 A 
BRANCH   9  14
ATOM     14  C28 UNL     1      63.593  60.127 101.159  0.00  0.00    +0.000 C 
ATOM     15  F3  UNL     1      62.573  59.984 100.229  0.00  0.00    +0.000 F 
ATOM     16  F4  UNL     1      63.561  61.425 101.642  0.00  0.00    +0.000 F 
ATOM     17  F5  UNL     1      64.799  59.908 100.512  0.00  0.00    +0.000 F 
ENDBRANCH   9  14
ENDBRANCH   1   7
BRANCH   1  18
ATOM     18  O1  UNL     1      62.015  60.394 106.041  0.00  0.00    +0.000 OA
ATOM     19  H1  UNL     1      61.737  60.679 106.949  0.00  0.00    +0.000 HD
ENDBRANCH   1  18
BRANCH   4  20
ATOM     20  C4  UNL     1      63.077  58.482 110.236  0.00  0.00    +0.000 C 
BRANCH  20  21
ATOM     21  C5  UNL     1      63.843  59.474 111.125  0.00  0.00    +0.000 C 
BRANCH  21  22
ATOM     22  C6  UNL     1      63.118  59.718 112.460  0.00  0.00    +0.000 C 
BRANCH  22  23
ATOM     23  C7  UNL     1      61.620  59.342 112.386  0.00  0.00    +0.000 C 
BRANCH  23  24
ATOM     24  C8  UNL     1      60.736  60.557 112.174  0.00  0.00    +0.000 A 
ATOM     25  C9  UNL     1      60.699  61.577 113.143  0.00  0.00    +0.000 A 
ATOM     26  C10 UNL     1      59.885  62.699 112.961  0.00  0.00    +0.000 A 
ATOM     27  C11 UNL     1      59.101  62.817 111.811  0.00  0.00    +0.000 A 
ATOM     28  F1  UNL     1      58.314  63.908 111.634  0.00  0.00    +0.000 F 
ATOM     29  C12 UNL     1      59.128  61.812 110.842  0.00  0.00    +0.000 A 
ATOM     30  C13 UNL     1      59.940  60.687 111.019  0.00  0.00    +0.000 A 
ENDBRANCH  23  24
BRANCH  23  31
ATOM     31  C14 UNL     1      61.143  58.542 113.589  0.00  0.00    +0.000 A 
ATOM     32  C15 UNL     1      59.807  58.096 113.630  0.00  0.00    +0.000 A 
ATOM     33  C16 UNL     1      59.330  57.379 114.731  0.00  0.00    +0.000 A 
ATOM     34  C17 UNL     1      60.175  57.108 115.810  0.00  0.00    +0.000 A 
ATOM     35  F2  UNL     1      59.711  56.410 116.877  0.00  0.00    +0.000 F 
ATOM     36  C18 UNL     1      61.496  57.561 115.792  0.00  0.00    +0.000 A 
ATOM     37  C19 UNL     1      61.977  58.281 114.694  0.00  0.00    +0.000 A 
ENDBRANCH  23  31
ENDBRANCH  22  23
ENDBRANCH  21  22
ENDBRANCH  20  21
ENDBRANCH   4  20
TORSDOF 9
ENDMDL
MODEL 12
REMARK VINA RESULT:      -8.4      3.318      9.823
REMARK  Name = ./S4151.pdb
REMARK  9 active torsions:
REMARK  status: ('A' for Active; 'I' for Inactive)
REMARK    1  A    between atoms: O1_1  and  C1_2
REMARK    2  A    between atoms: C1_2  and  C22_26
REMARK    3  A    between atoms: N1_5  and  C4_6
REMARK    4  A    between atoms: C4_6  and  C5_7
REMARK    5  A    between atoms: C5_7  and  C6_8
REMARK    6  A    between atoms: C6_8  and  C7_9
REMARK    7  A    between atoms: C7_9  and  C8_10
REMARK    8  A    between atoms: C7_9  and  C14_17
REMARK    9  A    between atoms: C24_28  and  C28_33
REMARK                            x       y       z     vdW  Elec       q    Type
REMARK                         _______ _______ _______ _____ _____    ______ ____
ROOT
ATOM      1  C1  UNL     1      63.346  58.095 109.170  0.00  0.00    +0.000 C 
ATOM      2  C2  UNL     1      64.166  58.981 108.193  0.00  0.00    +0.000 C 
ATOM      3  C3  UNL     1      64.456  58.241 106.878  0.00  0.00    +0.000 C 
ATOM      4  N1  UNL     1      63.220  57.898 106.136  0.00  0.00    +0.000 NA
ATOM      5  C20 UNL     1      62.006  57.747 106.978  0.00  0.00    +0.000 C 
ATOM      6  C21 UNL     1      62.312  57.216 108.391  0.00  0.00    +0.000 C 
ENDROOT
BRANCH   1   7
ATOM      7  C22 UNL     1      62.675  59.014 110.207  0.00  0.00    +0.000 A 
ATOM      8  C23 UNL     1      61.913  60.141 109.821  0.00  0.00    +0.000 A 
ATOM      9  C24 UNL     1      61.338  61.001 110.778  0.00  0.00    +0.000 A 
ATOM     10  C25 UNL     1      61.543  60.728 112.151  0.00  0.00    +0.000 A 
ATOM     11 CL1  UNL     1      60.842  61.735 113.416  0.00  0.00    +0.000 Cl
ATOM     12  C26 UNL     1      62.330  59.641 112.541  0.00  0.00    +0.000 A 
ATOM     13  C27 UNL     1      62.902  58.804 111.585  0.00  0.00    +0.000 A 
BRANCH   9  14
ATOM     14  C28 UNL     1      60.510  62.195 110.339  0.00  0.00    +0.000 C 
ATOM     15  F3  UNL     1      61.087  63.398 110.721  0.00  0.00    +0.000 F 
ATOM     16  F4  UNL     1      60.388  62.191 108.959  0.00  0.00    +0.000 F 
ATOM     17  F5  UNL     1      59.250  62.123 110.911  0.00  0.00    +0.000 F 
ENDBRANCH   9  14
ENDBRANCH   1   7
BRANCH   1  18
ATOM     18  O1  UNL     1      64.218  57.225 109.865  0.00  0.00    +0.000 OA
ATOM     19  H1  UNL     1      64.285  57.518 110.809  0.00  0.00    +0.000 HD
ENDBRANCH   1  18
BRANCH   4  20
ATOM     20  C4  UNL     1      63.431  56.752 105.224  0.00  0.00    +0.000 C 
BRANCH  20  21
ATOM     21  C5  UNL     1      62.093  56.187 104.728  0.00  0.00    +0.000 C 
BRANCH  21  22
ATOM     22  C6  UNL     1      61.980  56.253 103.195  0.00  0.00    +0.000 C 
BRANCH  22  23
ATOM     23  C7  UNL     1      61.571  57.661 102.702  0.00  0.00    +0.000 C 
BRANCH  23  24
ATOM     24  C8  UNL     1      60.342  57.619 101.814  0.00  0.00    +0.000 A 
ATOM     25  C9  UNL     1      60.478  57.357 100.437  0.00  0.00    +0.000 A 
ATOM     26  C10 UNL     1      59.352  57.321  99.608  0.00  0.00    +0.000 A 
ATOM     27  C11 UNL     1      58.081  57.544 100.142  0.00  0.00    +0.000 A 
ATOM     28  F1  UNL     1      56.989  57.506  99.336  0.00  0.00    +0.000 F 
ATOM     29  C12 UNL     1      57.933  57.805 101.505  0.00  0.00    +0.000 A 
ATOM     30  C13 UNL     1      59.054  57.843 102.339  0.00  0.00    +0.000 A 
ENDBRANCH  23  24
BRANCH  23  31
ATOM     31  C14 UNL     1      62.702  58.405 102.008  0.00  0.00    +0.000 A 
ATOM     32  C15 UNL     1      63.884  57.709 101.686  0.00  0.00    +0.000 A 
ATOM     33  C16 UNL     1      64.952  58.368 101.069  0.00  0.00    +0.000 A 
ATOM     34  C17 UNL     1      64.858  59.730 100.775  0.00  0.00    +0.000 A 
ATOM     35  F2  UNL     1      65.895  60.367 100.174  0.00  0.00    +0.000 F 
ATOM     36  C18 UNL     1      63.701  60.437 101.106  0.00  0.00    +0.000 A 
ATOM     37  C19 UNL     1      62.631  59.784 101.725  0.00  0.00    +0.000 A 
ENDBRANCH  23  31
ENDBRANCH  22  23
ENDBRANCH  21  22
ENDBRANCH  20  21
ENDBRANCH   4  20
TORSDOF 9
ENDMDL
MODEL 13
REMARK VINA RESULT:      -8.4      3.515      9.921
REMARK  Name = ./S4151.pdb
REMARK  9 active torsions:
REMARK  status: ('A' for Active; 'I' for Inactive)
REMARK    1  A    between atoms: O1_1  and  C1_2
REMARK    2  A    between atoms: C1_2  and  C22_26
REMARK    3  A    between atoms: N1_5  and  C4_6
REMARK    4  A    between atoms: C4_6  and  C5_7
REMARK    5  A    between atoms: C5_7  and  C6_8
REMARK    6  A    between atoms: C6_8  and  C7_9
REMARK    7  A    between atoms: C7_9  and  C8_10
REMARK    8  A    between atoms: C7_9  and  C14_17
REMARK    9  A    between atoms: C24_28  and  C28_33
REMARK                            x       y       z     vdW  Elec       q    Type
REMARK                         _______ _______ _______ _____ _____    ______ ____
ROOT
ATOM      1  C1  UNL     1      62.428  59.889 109.887  0.00  0.00    +0.000 C 
ATOM      2  C2  UNL     1      61.995  60.396 108.484  0.00  0.00    +0.000 C 
ATOM      3  C3  UNL     1      62.309  59.360 107.394  0.00  0.00    +0.000 C 
ATOM      4  N1  UNL     1      61.567  58.092 107.588  0.00  0.00    +0.000 NA
ATOM      5  C20 UNL     1      61.184  57.799 108.992  0.00  0.00    +0.000 C 
ATOM      6  C21 UNL     1      62.189  58.350 110.021  0.00  0.00    +0.000 C 
ENDROOT
BRANCH   1   7
ATOM      7  C22 UNL     1      61.665  60.699 110.950  0.00  0.00    +0.000 A 
ATOM      8  C23 UNL     1      61.228  62.022 110.706  0.00  0.00    +0.000 A 
ATOM      9  C24 UNL     1      60.565  62.771 111.700  0.00  0.00    +0.000 A 
ATOM     10  C25 UNL     1      60.350  62.183 112.968  0.00  0.00    +0.000 A 
ATOM     11 CL1  UNL     1      59.511  63.036 114.261  0.00  0.00    +0.000 Cl
ATOM     12  C26 UNL     1      60.816  60.892 113.232  0.00  0.00    +0.000 A 
ATOM     13  C27 UNL     1      61.478  60.165 112.244  0.00  0.00    +0.000 A 
BRANCH   9  14
ATOM     14  C28 UNL     1      60.091  64.183 111.409  0.00  0.00    +0.000 C 
ATOM     15  F3  UNL     1      60.546  65.091 112.355  0.00  0.00    +0.000 F 
ATOM     16  F4  UNL     1      60.558  64.581 110.167  0.00  0.00    +0.000 F 
ATOM     17  F5  UNL     1      58.706  64.218 111.412  0.00  0.00    +0.000 F 
ENDBRANCH   9  14
ENDBRANCH   1   7
BRANCH   1  18
ATOM     18  O1  UNL     1      63.810  60.131 110.071  0.00  0.00    +0.000 OA
ATOM     19  H1  UNL     1      64.063  60.958 109.587  0.00  0.00    +0.000 HD
ENDBRANCH   1  18
BRANCH   4  20
ATOM     20  C4  UNL     1      62.250  56.956 106.931  0.00  0.00    +0.000 C 
BRANCH  20  21
ATOM     21  C5  UNL     1      62.951  57.404 105.640  0.00  0.00    +0.000 C 
BRANCH  21  22
ATOM     22  C6  UNL     1      62.138  57.024 104.390  0.00  0.00    +0.000 C 
BRANCH  22  23
ATOM     23  C7  UNL     1      61.732  58.266 103.561  0.00  0.00    +0.000 C 
BRANCH  23  24
ATOM     24  C8  UNL     1      60.450  58.037 102.782  0.00  0.00    +0.000 A 
ATOM     25  C9  UNL     1      59.204  58.258 103.398  0.00  0.00    +0.000 A 
ATOM     26  C10 UNL     1      58.016  58.047 102.691  0.00  0.00    +0.000 A 
ATOM     27  C11 UNL     1      58.058  57.614 101.364  0.00  0.00    +0.000 A 
ATOM     28  F1  UNL     1      56.904  57.411 100.679  0.00  0.00    +0.000 F 
ATOM     29  C12 UNL     1      59.287  57.390 100.742  0.00  0.00    +0.000 A 
ATOM     30  C13 UNL     1      60.479  57.600 101.443  0.00  0.00    +0.000 A 
ENDBRANCH  23  24
BRANCH  23  31
ATOM     31  C14 UNL     1      62.835  58.755 102.635  0.00  0.00    +0.000 A 
ATOM     32  C15 UNL     1      62.764  60.061 102.113  0.00  0.00    +0.000 A 
ATOM     33  C16 UNL     1      63.749  60.535 101.241  0.00  0.00    +0.000 A 
ATOM     34  C17 UNL     1      64.811  59.707 100.870  0.00  0.00    +0.000 A 
ATOM     35  F2  UNL     1      65.768  60.169 100.026  0.00  0.00    +0.000 F 
ATOM     36  C18 UNL     1      64.885  58.403 101.364  0.00  0.00    +0.000 A 
ATOM     37  C19 UNL     1      63.902  57.924 102.235  0.00  0.00    +0.000 A 
ENDBRANCH  23  31
ENDBRANCH  22  23
ENDBRANCH  21  22
ENDBRANCH  20  21
ENDBRANCH   4  20
TORSDOF 9
ENDMDL
MODEL 14
REMARK VINA RESULT:      -8.3      3.648     10.872
REMARK  Name = ./S4151.pdb
REMARK  9 active torsions:
REMARK  status: ('A' for Active; 'I' for Inactive)
REMARK    1  A    between atoms: O1_1  and  C1_2
REMARK    2  A    between atoms: C1_2  and  C22_26
REMARK    3  A    between atoms: N1_5  and  C4_6
REMARK    4  A    between atoms: C4_6  and  C5_7
REMARK    5  A    between atoms: C5_7  and  C6_8
REMARK    6  A    between atoms: C6_8  and  C7_9
REMARK    7  A    between atoms: C7_9  and  C8_10
REMARK    8  A    between atoms: C7_9  and  C14_17
REMARK    9  A    between atoms: C24_28  and  C28_33
REMARK                            x       y       z     vdW  Elec       q    Type
REMARK                         _______ _______ _______ _____ _____    ______ ____
ROOT
ATOM      1  C1  UNL     1      63.312  59.403 109.556  0.00  0.00    +0.000 C 
ATOM      2  C2  UNL     1      62.505  58.076 109.539  0.00  0.00    +0.000 C 
ATOM      3  C3  UNL     1      62.292  57.570 108.104  0.00  0.00    +0.000 C 
ATOM      4  N1  UNL     1      63.568  57.250 107.421  0.00  0.00    +0.000 NA
ATOM      5  C20 UNL     1      64.751  57.996 107.922  0.00  0.00    +0.000 C 
ATOM      6  C21 UNL     1      64.403  59.406 108.435  0.00  0.00    +0.000 C 
ENDROOT
BRANCH   1   7
ATOM      7  C22 UNL     1      63.911  59.586 110.962  0.00  0.00    +0.000 A 
ATOM      8  C23 UNL     1      63.130  59.428 112.130  0.00  0.00    +0.000 A 
ATOM      9  C24 UNL     1      63.676  59.638 113.413  0.00  0.00    +0.000 A 
ATOM     10  C25 UNL     1      65.031  60.028 113.522  0.00  0.00    +0.000 A 
ATOM     11 CL1  UNL     1      65.803  60.290 115.084  0.00  0.00    +0.000 Cl
ATOM     12  C26 UNL     1      65.799  60.227 112.371  0.00  0.00    +0.000 A 
ATOM     13  C27 UNL     1      65.245  60.027 111.108  0.00  0.00    +0.000 A 
BRANCH   9  14
ATOM     14  C28 UNL     1      62.821  59.447 114.652  0.00  0.00    +0.000 C 
ATOM     15  F3  UNL     1      63.346  58.484 115.504  0.00  0.00    +0.000 F 
ATOM     16  F4  UNL     1      62.740  60.642 115.348  0.00  0.00    +0.000 F 
ATOM     17  F5  UNL     1      61.548  59.044 114.282  0.00  0.00    +0.000 F 
ENDBRANCH   9  14
ENDBRANCH   1   7
BRANCH   1  18
ATOM     18  O1  UNL     1      62.440  60.490 109.314  0.00  0.00    +0.000 OA
ATOM     19  H1  UNL     1      62.053  60.402 108.406  0.00  0.00    +0.000 HD
ENDBRANCH   1  18
BRANCH   4  20
ATOM     20  C4  UNL     1      63.430  57.316 105.950  0.00  0.00    +0.000 C 
BRANCH  20  21
ATOM     21  C5  UNL     1      61.953  57.270 105.531  0.00  0.00    +0.000 C 
BRANCH  21  22
ATOM     22  C6  UNL     1      61.638  58.310 104.442  0.00  0.00    +0.000 C 
BRANCH  22  23
ATOM     23  C7  UNL     1      61.795  57.726 103.018  0.00  0.00    +0.000 C 
BRANCH  23  24
ATOM     24  C8  UNL     1      62.888  58.425 102.233  0.00  0.00    +0.000 A 
ATOM     25  C9  UNL     1      64.047  57.717 101.857  0.00  0.00    +0.000 A 
ATOM     26  C10 UNL     1      65.063  58.352 101.137  0.00  0.00    +0.000 A 
ATOM     27  C11 UNL     1      64.936  59.697 100.783  0.00  0.00    +0.000 A 
ATOM     28  F1  UNL     1      65.923  60.312 100.082  0.00  0.00    +0.000 F 
ATOM     29  C12 UNL     1      63.794  60.411 101.150  0.00  0.00    +0.000 A 
ATOM     30  C13 UNL     1      62.773  59.782 101.870  0.00  0.00    +0.000 A 
ENDBRANCH  23  24
BRANCH  23  31
ATOM     31  C14 UNL     1      60.495  57.720 102.227  0.00  0.00    +0.000 A 
ATOM     32  C15 UNL     1      59.282  57.967 102.899  0.00  0.00    +0.000 A 
ATOM     33  C16 UNL     1      58.067  57.946 102.207  0.00  0.00    +0.000 A 
ATOM     34  C17 UNL     1      58.047  57.666 100.838  0.00  0.00    +0.000 A 
ATOM     35  F2  UNL     1      56.867  57.648 100.167  0.00  0.00    +0.000 F 
ATOM     36  C18 UNL     1      59.239  57.399 100.162  0.00  0.00    +0.000 A 
ATOM     37  C19 UNL     1      60.456  57.417 100.850  0.00  0.00    +0.000 A 
ENDBRANCH  23  31
ENDBRANCH  22  23
ENDBRANCH  21  22
ENDBRANCH  20  21
ENDBRANCH   4  20
TORSDOF 9
ENDMDL
MODEL 15
REMARK VINA RESULT:      -8.2      2.473      4.400
REMARK  Name = ./S4151.pdb
REMARK  9 active torsions:
REMARK  status: ('A' for Active; 'I' for Inactive)
REMARK    1  A    between atoms: O1_1  and  C1_2
REMARK    2  A    between atoms: C1_2  and  C22_26
REMARK    3  A    between atoms: N1_5  and  C4_6
REMARK    4  A    between atoms: C4_6  and  C5_7
REMARK    5  A    between atoms: C5_7  and  C6_8
REMARK    6  A    between atoms: C6_8  and  C7_9
REMARK    7  A    between atoms: C7_9  and  C8_10
REMARK    8  A    between atoms: C7_9  and  C14_17
REMARK    9  A    between atoms: C24_28  and  C28_33
REMARK                            x       y       z     vdW  Elec       q    Type
REMARK                         _______ _______ _______ _____ _____    ______ ____
ROOT
ATOM      1  C1  UNL     1      62.532  59.493 106.170  0.00  0.00    +0.000 C 
ATOM      2  C2  UNL     1      64.043  59.631 106.503  0.00  0.00    +0.000 C 
ATOM      3  C3  UNL     1      64.339  59.200 107.948  0.00  0.00    +0.000 C 
ATOM      4  N1  UNL     1      64.024  57.772 108.188  0.00  0.00    +0.000 NA
ATOM      5  C20 UNL     1      62.979  57.203 107.299  0.00  0.00    +0.000 C 
ATOM      6  C21 UNL     1      61.920  58.236 106.871  0.00  0.00    +0.000 C 
ENDROOT
BRANCH   1   7
ATOM      7  C22 UNL     1      62.378  59.448 104.640  0.00  0.00    +0.000 A 
ATOM      8  C23 UNL     1      61.608  58.451 103.998  0.00  0.00    +0.000 A 
ATOM      9  C24 UNL     1      61.506  58.393 102.593  0.00  0.00    +0.000 A 
ATOM     10  C25 UNL     1      62.202  59.349 101.818  0.00  0.00    +0.000 A 
ATOM     11 CL1  UNL     1      62.114  59.367 100.058  0.00  0.00    +0.000 Cl
ATOM     12  C26 UNL     1      63.000  60.312 102.442  0.00  0.00    +0.000 A 
ATOM     13  C27 UNL     1      63.101  60.353 103.831  0.00  0.00    +0.000 A 
BRANCH   9  14
ATOM     14  C28 UNL     1      60.660  57.322 101.928  0.00  0.00    +0.000 C 
ATOM     15  F3  UNL     1      60.062  56.479 102.854  0.00  0.00    +0.000 F 
ATOM     16  F4  UNL     1      59.660  57.922 101.179  0.00  0.00    +0.000 F 
ATOM     17  F5  UNL     1      61.455  56.551 101.095  0.00  0.00    +0.000 F 
ENDBRANCH   9  14
ENDBRANCH   1   7
BRANCH   1  18
ATOM     18  O1  UNL     1      61.838  60.633 106.640  0.00  0.00    +0.000 OA
ATOM     19  H1  UNL     1      60.866  60.444 106.642  0.00  0.00    +0.000 HD
ENDBRANCH   1  18
BRANCH   4  20
ATOM     20  C4  UNL     1      63.765  57.504 109.620  0.00  0.00    +0.000 C 
BRANCH  20  21
ATOM     21  C5  UNL     1      63.282  58.772 110.340  0.00  0.00    +0.000 C 
BRANCH  21  22
ATOM     22  C6  UNL     1      61.896  58.572 110.976  0.00  0.00    +0.000 C 
BRANCH  22  23
ATOM     23  C7  UNL     1      61.697  59.457 112.229  0.00  0.00    +0.000 C 
BRANCH  23  24
ATOM     24  C8  UNL     1      61.189  58.660 113.415  0.00  0.00    +0.000 A 
ATOM     25  C9  UNL     1      62.055  58.360 114.484  0.00  0.00    +0.000 A 
ATOM     26  C10 UNL     1      61.599  57.622 115.581  0.00  0.00    +0.000 A 
ATOM     27  C11 UNL     1      60.276  57.177 115.624  0.00  0.00    +0.000 A 
ATOM     28  F1  UNL     1      59.833  56.463 116.690  0.00  0.00    +0.000 F 
ATOM     29  C12 UNL     1      59.407  57.467 114.571  0.00  0.00    +0.000 A 
ATOM     30  C13 UNL     1      59.857  58.205 113.471  0.00  0.00    +0.000 A 
ENDBRANCH  23  24
BRANCH  23  31
ATOM     31  C14 UNL     1      60.802  60.661 111.976  0.00  0.00    +0.000 A 
ATOM     32  C15 UNL     1      60.706  61.662 112.962  0.00  0.00    +0.000 A 
ATOM     33  C16 UNL     1      59.875  62.771 112.772  0.00  0.00    +0.000 A 
ATOM     34  C17 UNL     1      59.121  62.888 111.601  0.00  0.00    +0.000 A 
ATOM     35  F2  UNL     1      58.317  63.966 111.417  0.00  0.00    +0.000 F 
ATOM     36  C18 UNL     1      59.192  61.893 110.624  0.00  0.00    +0.000 A 
ATOM     37  C19 UNL     1      60.019  60.782 110.810  0.00  0.00    +0.000 A 
ENDBRANCH  23  31
ENDBRANCH  22  23
ENDBRANCH  21  22
ENDBRANCH  20  21
ENDBRANCH   4  20
TORSDOF 9
ENDMDL
MODEL 16
REMARK VINA RESULT:      -8.2      3.410      8.943
REMARK  Name = ./S4151.pdb
REMARK  9 active torsions:
REMARK  status: ('A' for Active; 'I' for Inactive)
REMARK    1  A    between atoms: O1_1  and  C1_2
REMARK    2  A    between atoms: C1_2  and  C22_26
REMARK    3  A    between atoms: N1_5  and  C4_6
REMARK    4  A    between atoms: C4_6  and  C5_7
REMARK    5  A    between atoms: C5_7  and  C6_8
REMARK    6  A    between atoms: C6_8  and  C7_9
REMARK    7  A    between atoms: C7_9  and  C8_10
REMARK    8  A    between atoms: C7_9  and  C14_17
REMARK    9  A    between atoms: C24_28  and  C28_33
REMARK                            x       y       z     vdW  Elec       q    Type
REMARK                         _______ _______ _______ _____ _____    ______ ____
ROOT
ATOM      1  C1  UNL     1      62.751  59.185 110.021  0.00  0.00    +0.000 C 
ATOM      2  C2  UNL     1      64.189  59.192 110.609  0.00  0.00    +0.000 C 
ATOM      3  C3  UNL     1      65.201  58.602 109.616  0.00  0.00    +0.000 C 
ATOM      4  N1  UNL     1      65.296  59.394 108.366  0.00  0.00    +0.000 NA
ATOM      5  C20 UNL     1      64.075  60.165 108.020  0.00  0.00    +0.000 C 
ATOM      6  C21 UNL     1      62.776  59.483 108.486  0.00  0.00    +0.000 C 
ENDROOT
BRANCH   1   7
ATOM      7  C22 UNL     1      61.904  60.203 110.806  0.00  0.00    +0.000 A 
ATOM      8  C23 UNL     1      61.235  61.269 110.162  0.00  0.00    +0.000 A 
ATOM      9  C24 UNL     1      60.495  62.221 110.893  0.00  0.00    +0.000 A 
ATOM     10  C25 UNL     1      60.439  62.105 112.301  0.00  0.00    +0.000 A 
ATOM     11 CL1  UNL     1      59.520  63.235 113.293  0.00  0.00    +0.000 Cl
ATOM     12  C26 UNL     1      61.132  61.080 112.950  0.00  0.00    +0.000 A 
ATOM     13  C27 UNL     1      61.869  60.151 112.217  0.00  0.00    +0.000 A 
BRANCH   9  14
ATOM     14  C28 UNL     1      59.771  63.346 110.177  0.00  0.00    +0.000 C 
ATOM     15  F3  UNL     1      59.741  63.156 108.803  0.00  0.00    +0.000 F 
ATOM     16  F4  UNL     1      58.465  63.420 110.634  0.00  0.00    +0.000 F 
ATOM     17  F5  UNL     1      60.414  64.548 110.430  0.00  0.00    +0.000 F 
ENDBRANCH   9  14
ENDBRANCH   1   7
BRANCH   1  18
ATOM     18  O1  UNL     1      62.171  57.908 110.206  0.00  0.00    +0.000 OA
ATOM     19  H1  UNL     1      61.881  57.552 109.328  0.00  0.00    +0.000 HD
ENDBRANCH   1  18
BRANCH   4  20
ATOM     20  C4  UNL     1      65.795  58.575 107.239  0.00  0.00    +0.000 C 
BRANCH  20  21
ATOM     21  C5  UNL     1      65.139  57.186 107.232  0.00  0.00    +0.000 C 
BRANCH  21  22
ATOM     22  C6  UNL     1      64.521  56.855 105.863  0.00  0.00    +0.000 C 
BRANCH  22  23
ATOM     23  C7  UNL     1      63.218  57.649 105.606  0.00  0.00    +0.000 C 
BRANCH  23  24
ATOM     24  C8  UNL     1      61.996  56.750 105.595  0.00  0.00    +0.000 A 
ATOM     25  C9  UNL     1      61.485  56.272 104.373  0.00  0.00    +0.000 A 
ATOM     26  C10 UNL     1      60.356  55.447 104.350  0.00  0.00    +0.000 A 
ATOM     27  C11 UNL     1      59.726  55.089 105.544  0.00  0.00    +0.000 A 
ATOM     28  F1  UNL     1      58.632  54.286 105.521  0.00  0.00    +0.000 F 
ATOM     29  C12 UNL     1      60.222  55.557 106.762  0.00  0.00    +0.000 A 
ATOM     30  C13 UNL     1      61.350  56.382 106.792  0.00  0.00    +0.000 A 
ENDBRANCH  23  24
BRANCH  23  31
ATOM     31  C14 UNL     1      63.269  58.490 104.339  0.00  0.00    +0.000 A 
ATOM     32  C15 UNL     1      63.891  57.963 103.191  0.00  0.00    +0.000 A 
ATOM     33  C16 UNL     1      63.977  58.718 102.017  0.00  0.00    +0.000 A 
ATOM     34  C17 UNL     1      63.453  60.012 101.978  0.00  0.00    +0.000 A 
ATOM     35  F2  UNL     1      63.534  60.743 100.838  0.00  0.00    +0.000 F 
ATOM     36  C18 UNL     1      62.851  60.556 103.115  0.00  0.00    +0.000 A 
ATOM     37  C19 UNL     1      62.765  59.806 104.292  0.00  0.00    +0.000 A 
ENDBRANCH  23  31
ENDBRANCH  22  23
ENDBRANCH  21  22
ENDBRANCH  20  21
ENDBRANCH   4  20
TORSDOF 9
ENDMDL
MODEL 17
REMARK VINA RESULT:      -8.2     12.222     16.150
REMARK  Name = ./S4151.pdb
REMARK  9 active torsions:
REMARK  status: ('A' for Active; 'I' for Inactive)
REMARK    1  A    between atoms: O1_1  and  C1_2
REMARK    2  A    between atoms: C1_2  and  C22_26
REMARK    3  A    between atoms: N1_5  and  C4_6
REMARK    4  A    between atoms: C4_6  and  C5_7
REMARK    5  A    between atoms: C5_7  and  C6_8
REMARK    6  A    between atoms: C6_8  and  C7_9
REMARK    7  A    between atoms: C7_9  and  C8_10
REMARK    8  A    between atoms: C7_9  and  C14_17
REMARK    9  A    between atoms: C24_28  and  C28_33
REMARK                            x       y       z     vdW  Elec       q    Type
REMARK                         _______ _______ _______ _____ _____    ______ ____
ROOT
ATOM      1  C1  UNL     1      74.200  66.415 110.426  0.00  0.00    +0.000 C 
ATOM      2  C2  UNL     1      75.722  66.388 110.114  0.00  0.00    +0.000 C 
ATOM      3  C3  UNL     1      76.019  66.989 108.732  0.00  0.00    +0.000 C 
ATOM      4  N1  UNL     1      75.636  68.418 108.642  0.00  0.00    +0.000 NA
ATOM      5  C20 UNL     1      74.549  68.834 109.564  0.00  0.00    +0.000 C 
ATOM      6  C21 UNL     1      73.537  67.709 109.853  0.00  0.00    +0.000 C 
ENDROOT
BRANCH   1   7
ATOM      7  C22 UNL     1      74.018  66.284 111.949  0.00  0.00    +0.000 A 
ATOM      8  C23 UNL     1      74.809  67.021 112.860  0.00  0.00    +0.000 A 
ATOM      9  C24 UNL     1      74.663  66.864 114.254  0.00  0.00    +0.000 A 
ATOM     10  C25 UNL     1      73.713  65.936 114.740  0.00  0.00    +0.000 A 
ATOM     11 CL1  UNL     1      73.447  65.691 116.464  0.00  0.00    +0.000 Cl
ATOM     12  C26 UNL     1      72.957  65.172 113.847  0.00  0.00    +0.000 A 
ATOM     13  C27 UNL     1      73.117  65.329 112.471  0.00  0.00    +0.000 A 
BRANCH   9  14
ATOM     14  C28 UNL     1      75.512  67.680 115.212  0.00  0.00    +0.000 C 
ATOM     15  F3  UNL     1      74.742  68.510 116.014  0.00  0.00    +0.000 F 
ATOM     16  F4  UNL     1      76.230  66.827 116.034  0.00  0.00    +0.000 F 
ATOM     17  F5  UNL     1      76.392  68.473 114.493  0.00  0.00    +0.000 F 
ENDBRANCH   9  14
ENDBRANCH   1   7
BRANCH   1  18
ATOM     18  O1  UNL     1      73.574  65.301 109.820  0.00  0.00    +0.000 OA
ATOM     19  H1  UNL     1      72.593  65.438 109.822  0.00  0.00    +0.000 HD
ENDBRANCH   1  18
BRANCH   4  20
ATOM     20  C4  UNL     1      75.388  68.828 107.242  0.00  0.00    +0.000 C 
BRANCH  20  21
ATOM     21  C5  UNL     1      74.217  69.819 107.155  0.00  0.00    +0.000 C 
BRANCH  21  22
ATOM     22  C6  UNL     1      73.233  69.440 106.035  0.00  0.00    +0.000 C 
BRANCH  22  23
ATOM     23  C7  UNL     1      71.816  69.145 106.581  0.00  0.00    +0.000 C 
BRANCH  23  24
ATOM     24  C8  UNL     1      71.586  67.662 106.801  0.00  0.00    +0.000 A 
ATOM     25  C9  UNL     1      70.606  67.230 107.714  0.00  0.00    +0.000 A 
ATOM     26  C10 UNL     1      70.389  65.865 107.928  0.00  0.00    +0.000 A 
ATOM     27  C11 UNL     1      71.145  64.918 107.235  0.00  0.00    +0.000 A 
ATOM     28  F1  UNL     1      70.932  63.594 107.441  0.00  0.00    +0.000 F 
ATOM     29  C12 UNL     1      72.121  65.333 106.327  0.00  0.00    +0.000 A 
ATOM     30  C13 UNL     1      72.343  66.696 106.109  0.00  0.00    +0.000 A 
ENDBRANCH  23  24
BRANCH  23  31
ATOM     31  C14 UNL     1      70.708  69.732 105.719  0.00  0.00    +0.000 A 
ATOM     32  C15 UNL     1      70.958  69.976 104.355  0.00  0.00    +0.000 A 
ATOM     33  C16 UNL     1      69.970  70.536 103.539  0.00  0.00    +0.000 A 
ATOM     34  C17 UNL     1      68.724  70.869 104.077  0.00  0.00    +0.000 A 
ATOM     35  F2  UNL     1      67.765  71.409 103.283  0.00  0.00    +0.000 F 
ATOM     36  C18 UNL     1      68.468  70.650 105.432  0.00  0.00    +0.000 A 
ATOM     37  C19 UNL     1      69.454  70.093 106.252  0.00  0.00    +0.000 A 
ENDBRANCH  23  31
ENDBRANCH  22  23
ENDBRANCH  21  22
ENDBRANCH  20  21
ENDBRANCH   4  20
TORSDOF 9
ENDMDL
MODEL 18
REMARK VINA RESULT:      -8.2     10.217     14.359
REMARK  Name = ./S4151.pdb
REMARK  9 active torsions:
REMARK  status: ('A' for Active; 'I' for Inactive)
REMARK    1  A    between atoms: O1_1  and  C1_2
REMARK    2  A    between atoms: C1_2  and  C22_26
REMARK    3  A    between atoms: N1_5  and  C4_6
REMARK    4  A    between atoms: C4_6  and  C5_7
REMARK    5  A    between atoms: C5_7  and  C6_8
REMARK    6  A    between atoms: C6_8  and  C7_9
REMARK    7  A    between atoms: C7_9  and  C8_10
REMARK    8  A    between atoms: C7_9  and  C14_17
REMARK    9  A    between atoms: C24_28  and  C28_33
REMARK                            x       y       z     vdW  Elec       q    Type
REMARK                         _______ _______ _______ _____ _____    ______ ____
ROOT
ATOM      1  C1  UNL     1      73.581  65.419 111.119  0.00  0.00    +0.000 C 
ATOM      2  C2  UNL     1      72.239  64.765 111.549  0.00  0.00    +0.000 C 
ATOM      3  C3  UNL     1      71.104  65.129 110.580  0.00  0.00    +0.000 C 
ATOM      4  N1  UNL     1      71.351  64.627 109.207  0.00  0.00    +0.000 NA
ATOM      5  C20 UNL     1      72.782  64.446 108.854  0.00  0.00    +0.000 C 
ATOM      6  C21 UNL     1      73.712  65.449 109.562  0.00  0.00    +0.000 C 
ENDROOT
BRANCH   1   7
ATOM      7  C22 UNL     1      74.731  64.648 111.793  0.00  0.00    +0.000 A 
ATOM      8  C23 UNL     1      75.753  64.027 111.039  0.00  0.00    +0.000 A 
ATOM      9  C24 UNL     1      76.779  63.288 111.662  0.00  0.00    +0.000 A 
ATOM     10  C25 UNL     1      76.770  63.161 113.070  0.00  0.00    +0.000 A 
ATOM     11 CL1  UNL     1      78.024  62.276 113.935  0.00  0.00    +0.000 Cl
ATOM     12  C26 UNL     1      75.740  63.736 113.821  0.00  0.00    +0.000 A 
ATOM     13  C27 UNL     1      74.725  64.455 113.192  0.00  0.00    +0.000 A 
BRANCH   9  14
ATOM     14  C28 UNL     1      77.875  62.644 110.832  0.00  0.00    +0.000 C 
ATOM     15  F3  UNL     1      77.945  61.273 111.035  0.00  0.00    +0.000 F 
ATOM     16  F4  UNL     1      77.630  62.870 109.487  0.00  0.00    +0.000 F 
ATOM     17  F5  UNL     1      79.101  63.192 111.174  0.00  0.00    +0.000 F 
ENDBRANCH   9  14
ENDBRANCH   1   7
BRANCH   1  18
ATOM     18  O1  UNL     1      73.627  66.754 111.585  0.00  0.00    +0.000 OA
ATOM     19  H1  UNL     1      74.493  67.160 111.326  0.00  0.00    +0.000 HD
ENDBRANCH   1  18
BRANCH   4  20
ATOM     20  C4  UNL     1      70.608  65.414 108.198  0.00  0.00    +0.000 C 
BRANCH  20  21
ATOM     21  C5  UNL     1      71.110  65.109 106.779  0.00  0.00    +0.000 C 
BRANCH  21  22
ATOM     22  C6  UNL     1      70.465  63.835 106.209  0.00  0.00    +0.000 C 
BRANCH  22  23
ATOM     23  C7  UNL     1      71.505  62.908 105.536  0.00  0.00    +0.000 C 
BRANCH  23  24
ATOM     24  C8  UNL     1      71.247  62.745 104.050  0.00  0.00    +0.000 A 
ATOM     25  C9  UNL     1      72.327  62.573 103.163  0.00  0.00    +0.000 A 
ATOM     26  C10 UNL     1      72.101  62.426 101.791  0.00  0.00    +0.000 A 
ATOM     27  C11 UNL     1      70.798  62.448 101.289  0.00  0.00    +0.000 A 
ATOM     28  F1  UNL     1      70.580  62.303  99.957  0.00  0.00    +0.000 F 
ATOM     29  C12 UNL     1      69.718  62.619 102.158  0.00  0.00    +0.000 A 
ATOM     30  C13 UNL     1      69.937  62.766 103.531  0.00  0.00    +0.000 A 
ENDBRANCH  23  24
BRANCH  23  31
ATOM     31  C14 UNL     1      71.618  61.547 106.207  0.00  0.00    +0.000 A 
ATOM     32  C15 UNL     1      72.636  61.334 107.157  0.00  0.00    +0.000 A 
ATOM     33  C16 UNL     1      72.783  60.089 107.777  0.00  0.00    +0.000 A 
ATOM     34  C17 UNL     1      71.923  59.038 107.446  0.00  0.00    +0.000 A 
ATOM     35  F2  UNL     1      72.065  57.831 108.050  0.00  0.00    +0.000 F 
ATOM     36  C18 UNL     1      70.922  59.229 106.492  0.00  0.00    +0.000 A 
ATOM     37  C19 UNL     1      70.773  60.471 105.869  0.00  0.00    +0.000 A 
ENDBRANCH  23  31
ENDBRANCH  22  23
ENDBRANCH  21  22
ENDBRANCH  20  21
ENDBRANCH   4  20
TORSDOF 9
ENDMDL
MODEL 19
REMARK VINA RESULT:      -8.2      9.308     10.499
REMARK  Name = ./S4151.pdb
REMARK  9 active torsions:
REMARK  status: ('A' for Active; 'I' for Inactive)
REMARK    1  A    between atoms: O1_1  and  C1_2
REMARK    2  A    between atoms: C1_2  and  C22_26
REMARK    3  A    between atoms: N1_5  and  C4_6
REMARK    4  A    between atoms: C4_6  and  C5_7
REMARK    5  A    between atoms: C5_7  and  C6_8
REMARK    6  A    between atoms: C6_8  and  C7_9
REMARK    7  A    between atoms: C7_9  and  C8_10
REMARK    8  A    between atoms: C7_9  and  C14_17
REMARK    9  A    between atoms: C24_28  and  C28_33
REMARK                            x       y       z     vdW  Elec       q    Type
REMARK                         _______ _______ _______ _____ _____    ______ ____
ROOT
ATOM      1  C1  UNL     1      71.221  62.216 102.025  0.00  0.00    +0.000 C 
ATOM      2  C2  UNL     1      71.897  60.984 102.686  0.00  0.00    +0.000 C 
ATOM      3  C3  UNL     1      72.268  61.268 104.149  0.00  0.00    +0.000 C 
ATOM      4  N1  UNL     1      71.080  61.549 104.990  0.00  0.00    +0.000 NA
ATOM      5  C20 UNL     1      69.911  62.100 104.258  0.00  0.00    +0.000 C 
ATOM      6  C21 UNL     1      70.308  62.967 103.049  0.00  0.00    +0.000 C 
ENDROOT
BRANCH   1   7
ATOM      7  C22 UNL     1      70.445  61.734 100.786  0.00  0.00    +0.000 A 
ATOM      8  C23 UNL     1      71.016  61.758  99.493  0.00  0.00    +0.000 A 
ATOM      9  C24 UNL     1      70.284  61.353  98.359  0.00  0.00    +0.000 A 
ATOM     10  C25 UNL     1      68.945  60.928  98.527  0.00  0.00    +0.000 A 
ATOM     11 CL1  UNL     1      67.962  60.383  97.170  0.00  0.00    +0.000 Cl
ATOM     12  C26 UNL     1      68.358  60.941  99.795  0.00  0.00    +0.000 A 
ATOM     13  C27 UNL     1      69.090  61.353 100.908  0.00  0.00    +0.000 A 
BRANCH   9  14
ATOM     14  C28 UNL     1      70.925  61.373  96.983  0.00  0.00    +0.000 C 
ATOM     15  F3  UNL     1      70.948  60.113  96.401  0.00  0.00    +0.000 F 
ATOM     16  F4  UNL     1      70.211  62.221  96.152  0.00  0.00    +0.000 F 
ATOM     17  F5  UNL     1      72.231  61.823  97.085  0.00  0.00    +0.000 F 
ENDBRANCH   9  14
ENDBRANCH   1   7
BRANCH   1  18
ATOM     18  O1  UNL     1      72.215  63.121 101.584  0.00  0.00    +0.000 OA
ATOM     19  H1  UNL     1      72.511  62.862 100.675  0.00  0.00    +0.000 HD
ENDBRANCH   1  18
BRANCH   4  20
ATOM     20  C4  UNL     1      71.435  62.346 106.186  0.00  0.00    +0.000 C 
BRANCH  20  21
ATOM     21  C5  UNL     1      70.454  63.511 106.384  0.00  0.00    +0.000 C 
BRANCH  21  22
ATOM     22  C6  UNL     1      71.162  64.873 106.288  0.00  0.00    +0.000 C 
BRANCH  22  23
ATOM     23  C7  UNL     1      70.825  65.790 107.488  0.00  0.00    +0.000 C 
BRANCH  23  24
ATOM     24  C8  UNL     1      71.027  67.257 107.159  0.00  0.00    +0.000 A 
ATOM     25  C9  UNL     1      70.409  68.246 107.947  0.00  0.00    +0.000 A 
ATOM     26  C10 UNL     1      70.585  69.602 107.651  0.00  0.00    +0.000 A 
ATOM     27  C11 UNL     1      71.379  69.985 106.568  0.00  0.00    +0.000 A 
ATOM     28  F1  UNL     1      71.551  71.300 106.283  0.00  0.00    +0.000 F 
ATOM     29  C12 UNL     1      71.997  69.014 105.778  0.00  0.00    +0.000 A 
ATOM     30  C13 UNL     1      71.825  67.657 106.068  0.00  0.00    +0.000 A 
ENDBRANCH  23  24
BRANCH  23  31
ATOM     31  C14 UNL     1      71.581  65.421 108.755  0.00  0.00    +0.000 A 
ATOM     32  C15 UNL     1      72.958  65.135 108.673  0.00  0.00    +0.000 A 
ATOM     33  C16 UNL     1      73.679  64.770 109.815  0.00  0.00    +0.000 A 
ATOM     34  C17 UNL     1      73.032  64.674 111.049  0.00  0.00    +0.000 A 
ATOM     35  F2  UNL     1      73.733  64.322 112.156  0.00  0.00    +0.000 F 
ATOM     36  C18 UNL     1      71.663  64.935 111.142  0.00  0.00    +0.000 A 
ATOM     37  C19 UNL     1      70.938  65.299 110.004  0.00  0.00    +0.000 A 
ENDBRANCH  23  31
ENDBRANCH  22  23
ENDBRANCH  21  22
ENDBRANCH  20  21
ENDBRANCH   4  20
TORSDOF 9
ENDMDL
MODEL 20
REMARK VINA RESULT:      -8.1      3.426      9.264
REMARK  Name = ./S4151.pdb
REMARK  9 active torsions:
REMARK  status: ('A' for Active; 'I' for Inactive)
REMARK    1  A    between atoms: O1_1  and  C1_2
REMARK    2  A    between atoms: C1_2  and  C22_26
REMARK    3  A    between atoms: N1_5  and  C4_6
REMARK    4  A    between atoms: C4_6  and  C5_7
REMARK    5  A    between atoms: C5_7  and  C6_8
REMARK    6  A    between atoms: C6_8  and  C7_9
REMARK    7  A    between atoms: C7_9  and  C8_10
REMARK    8  A    between atoms: C7_9  and  C14_17
REMARK    9  A    between atoms: C24_28  and  C28_33
REMARK                            x       y       z     vdW  Elec       q    Type
REMARK                         _______ _______ _______ _____ _____    ______ ____
ROOT
ATOM      1  C1  UNL     1      62.232  59.357 109.663  0.00  0.00    +0.000 C 
ATOM      2  C2  UNL     1      63.180  58.379 110.409  0.00  0.00    +0.000 C 
ATOM      3  C3  UNL     1      64.184  57.730 109.444  0.00  0.00    +0.000 C 
ATOM      4  N1  UNL     1      65.083  58.723 108.810  0.00  0.00    +0.000 NA
ATOM      5  C20 UNL     1      64.523  60.094 108.702  0.00  0.00    +0.000 C 
ATOM      6  C21 UNL     1      62.993  60.111 108.525  0.00  0.00    +0.000 C 
ENDROOT
BRANCH   1   7
ATOM      7  C22 UNL     1      61.618  60.317 110.698  0.00  0.00    +0.000 A 
ATOM      8  C23 UNL     1      61.102  61.580 110.328  0.00  0.00    +0.000 A 
ATOM      9  C24 UNL     1      60.579  62.470 111.289  0.00  0.00    +0.000 A 
ATOM     10  C25 UNL     1      60.588  62.086 112.650  0.00  0.00    +0.000 A 
ATOM     11 CL1  UNL     1      59.935  63.124 113.915  0.00  0.00    +0.000 Cl
ATOM     12  C26 UNL     1      61.135  60.858 113.030  0.00  0.00    +0.000 A 
ATOM     13  C27 UNL     1      61.658  59.991 112.072  0.00  0.00    +0.000 A 
BRANCH   9  14
ATOM     14  C28 UNL     1      60.015  63.813 110.865  0.00  0.00    +0.000 C 
ATOM     15  F3  UNL     1      58.673  63.943 111.192  0.00  0.00    +0.000 F 
ATOM     16  F4  UNL     1      60.715  64.829 111.496  0.00  0.00    +0.000 F 
ATOM     17  F5  UNL     1      60.138  63.957 109.491  0.00  0.00    +0.000 F 
ENDBRANCH   9  14
ENDBRANCH   1   7
BRANCH   1  18
ATOM     18  O1  UNL     1      61.174  58.629 109.070  0.00  0.00    +0.000 OA
ATOM     19  H1  UNL     1      60.908  59.072 108.224  0.00  0.00    +0.000 HD
ENDBRANCH   1  18
BRANCH   4  20
ATOM     20  C4  UNL     1      65.628  58.224 107.528  0.00  0.00    +0.000 C 
BRANCH  20  21
ATOM     21  C5  UNL     1      64.602  57.347 106.795  0.00  0.00    +0.000 C 
BRANCH  21  22
ATOM     22  C6  UNL     1      63.847  58.137 105.713  0.00  0.00    +0.000 C 
BRANCH  22  23
ATOM     23  C7  UNL     1      63.319  57.220 104.585  0.00  0.00    +0.000 C 
BRANCH  23  24
ATOM     24  C8  UNL     1      63.075  57.982 103.296  0.00  0.00    +0.000 A 
ATOM     25  C9  UNL     1      63.108  59.390 103.295  0.00  0.00    +0.000 A 
ATOM     26  C10 UNL     1      62.880  60.104 102.114  0.00  0.00    +0.000 A 
ATOM     27  C11 UNL     1      62.618  59.423 100.924  0.00  0.00    +0.000 A 
ATOM     28  F1  UNL     1      62.399  60.117  99.778  0.00  0.00    +0.000 F 
ATOM     29  C12 UNL     1      62.581  58.027 100.911  0.00  0.00    +0.000 A 
ATOM     30  C13 UNL     1      62.808  57.308 102.088  0.00  0.00    +0.000 A 
ENDBRANCH  23  24
BRANCH  23  31
ATOM     31  C14 UNL     1      62.075  56.437 104.982  0.00  0.00    +0.000 A 
ATOM     32  C15 UNL     1      61.128  57.041 105.831  0.00  0.00    +0.000 A 
ATOM     33  C16 UNL     1      59.985  56.343 106.234  0.00  0.00    +0.000 A 
ATOM     34  C17 UNL     1      59.781  55.029 105.804  0.00  0.00    +0.000 A 
ATOM     35  F2  UNL     1      58.671  54.353 106.195  0.00  0.00    +0.000 F 
ATOM     36  C18 UNL     1      60.722  54.410 104.979  0.00  0.00    +0.000 A 
ATOM     37  C19 UNL     1      61.866  55.104 104.575  0.00  0.00    +0.000 A 
ENDBRANCH  23  31
ENDBRANCH  22  23
ENDBRANCH  21  22
ENDBRANCH  20  21
ENDBRANCH   4  20
TORSDOF 9
ENDMDL
