MODEL 1
REMARK VINA RESULT:      -9.0      0.000      0.000
REMARK  Name = ./S4227.pdb
REMARK  34 active torsions:
REMARK  status: ('A' for Active; 'I' for Inactive)
REMARK    1  A    between atoms: C1_1  and  C2_2
REMARK    2  A    between atoms: C2_2  and  C3_3
REMARK    3  A    between atoms: C5_5  and  C6_6
REMARK    4  A    between atoms: C7_7  and  O1_8
REMARK    5  A    between atoms: C12_13  and  C13_14
REMARK    6  A    between atoms: C13_14  and  O2_15
REMARK    7  A    between atoms: O2_15  and  C14_16
REMARK    8  A    between atoms: C15_18  and  C16_19
REMARK    9  A    between atoms: C17_20  and  O4_21
REMARK   10  A    between atoms: O4_21  and  C18_22
REMARK   11  A    between atoms: C18_22  and  C19_24
REMARK   12  A    between atoms: C20_25  and  C21_26
REMARK   13  A    between atoms: C21_26  and  C22_27
REMARK   14  A    between atoms: C24_29  and  O6_30
REMARK   15  A    between atoms: C26_32  and  O7_33
REMARK   16  A    between atoms: C27_36  and  O8_37
REMARK   17  A    between atoms: C28_38  and  O9_39
REMARK   18  A    between atoms: O9_39  and  C29_40
REMARK   19  A    between atoms: C31_44  and  C51_70
REMARK   20  A    between atoms: C34_47  and  C35_48
REMARK   21  A    between atoms: C37_50  and  C38_51
REMARK   22  A    between atoms: C39_52  and  O12_53
REMARK   23  A    between atoms: O12_53  and  C40_54
REMARK   24  A    between atoms: C41_56  and  C42_57
REMARK   25  A    between atoms: C41_56  and  C43_58
REMARK   26  A    between atoms: C44_59  and  O14_60
REMARK   27  A    between atoms: O14_60  and  C45_61
REMARK   28  A    between atoms: C45_61  and  C46_63
REMARK   29  A    between atoms: C46_63  and  C47_64
REMARK   30  A    between atoms: C46_63  and  C48_65
REMARK   31  A    between atoms: C49_66  and  O16_67
REMARK   32  A    between atoms: C50_68  and  O17_69
REMARK   33  A    between atoms: C51_70  and  C52_71
REMARK   34  A    between atoms: C51_70  and  O18_72
REMARK                            x       y       z     vdW  Elec       q    Type
REMARK                         _______ _______ _______ _____ _____    ______ ____
ROOT
ATOM      1  C3  UNL     1      72.340  60.470 105.150  0.00  0.00    +0.000 C 
ATOM      2  C4  UNL     1      73.060  59.194 104.757  0.00  0.00    +0.000 C 
ATOM      3  C5  UNL     1      74.211  58.695 105.282  0.00  0.00    +0.000 C 
ATOM      4  C6  UNL     1      74.700  57.389 104.706  0.00  0.00    +0.000 C 
ATOM      5  C7  UNL     1      75.052  59.373 106.364  0.00  0.00    +0.000 C 
ATOM      6  C8  UNL     1      74.404  59.284 107.778  0.00  0.00    +0.000 C 
ATOM      7  C9  UNL     1      73.791  60.575 108.249  0.00  0.00    +0.000 C 
ATOM      8  C10 UNL     1      74.528  61.596 108.691  0.00  0.00    +0.000 C 
ATOM      9  C11 UNL     1      73.915  62.926 108.856  0.00  0.00    +0.000 C 
ATOM     10  C12 UNL     1      74.526  63.991 109.409  0.00  0.00    +0.000 C 
ATOM     11  C30 UNL     1      73.847  65.303 109.336  0.00  0.00    +0.000 C 
ATOM     12  O10 UNL     1      74.157  66.240 110.124  0.00  0.00    +0.000 OA
ATOM     13  O11 UNL     1      72.876  65.496 108.353  0.00  0.00    +0.000 OA
ATOM     14  C31 UNL     1      72.212  66.729 108.063  0.00  0.00    +0.000 C 
ATOM     15  C32 UNL     1      71.851  66.790 106.549  0.00  0.00    +0.000 C 
ATOM     16  C33 UNL     1      71.829  65.412 105.917  0.00  0.00    +0.000 C 
ATOM     17  C34 UNL     1      72.738  64.959 105.028  0.00  0.00    +0.000 C 
ATOM     18  C35 UNL     1      73.859  65.825 104.517  0.00  0.00    +0.000 C 
ATOM     19  C36 UNL     1      72.798  63.515 104.692  0.00  0.00    +0.000 C 
ATOM     20  C37 UNL     1      71.789  62.784 104.170  0.00  0.00    +0.000 C 
ATOM     21  C38 UNL     1      70.493  63.456 103.756  0.00  0.00    +0.000 C 
ATOM     22  C39 UNL     1      72.058  61.306 103.858  0.00  0.00    +0.000 C 
ENDROOT
BRANCH   1  24
ATOM     23  C1  UNL     1      71.100  58.637 106.490  0.00  0.00    +0.000 C 
ATOM     24  C2  UNL     1      71.055  60.060 105.927  0.00  0.00    +0.000 C 
ENDBRANCH   1  24
BRANCH   5  25
ATOM     25  O1  UNL     1      75.364  60.689 105.980  0.00  0.00    +0.000 OA
ATOM     26  H12 UNL     1      74.608  61.267 106.270  0.00  0.00    +0.000 HD
ENDBRANCH   5  25
BRANCH  14  27
ATOM     27  C51 UNL     1      70.989  66.911 109.001  0.00  0.00    +0.000 C 
ATOM     28  C52 UNL     1      70.697  65.669 109.850  0.00  0.00    +0.000 C 
BRANCH  27  29
ATOM     29  O18 UNL     1      69.845  67.237 108.253  0.00  0.00    +0.000 OA
ATOM     30  H74 UNL     1      70.167  67.540 107.363  0.00  0.00    +0.000 HD
ENDBRANCH  27  29
ENDBRANCH  14  27
BRANCH  10  31
ATOM     31  C13 UNL     1      75.845  63.869 110.141  0.00  0.00    +0.000 C 
BRANCH  31  32
ATOM     32  O2  UNL     1      75.620  64.066 111.528  0.00  0.00    +0.000 OA
BRANCH  32  33
ATOM     33  C14 UNL     1      75.146  62.894 112.173  0.00  0.00    +0.000 C 
ATOM     34  O3  UNL     1      76.040  61.815 111.923  0.00  0.00    +0.000 OA
ATOM     35  C15 UNL     1      77.322  62.048 112.492  0.00  0.00    +0.000 C 
ATOM     36  C16 UNL     1      78.265  60.929 112.044  0.00  0.00    +0.000 C 
ATOM     37  C17 UNL     1      77.230  62.110 114.034  0.00  0.00    +0.000 C 
ATOM     38  C27 UNL     1      76.299  63.291 114.383  0.00  0.00    +0.000 C 
ATOM     39  C28 UNL     1      74.928  63.112 113.695  0.00  0.00    +0.000 C 
BRANCH  38  40
ATOM     40  O8  UNL     1      76.190  63.487 115.769  0.00  0.00    +0.000 OA
ATOM     41  H34 UNL     1      75.243  63.686 115.990  0.00  0.00    +0.000 HD
ENDBRANCH  38  40
BRANCH  39  42
ATOM     42  O9  UNL     1      74.272  61.970 114.225  0.00  0.00    +0.000 OA
ATOM     43  C29 UNL     1      73.039  62.315 114.815  0.00  0.00    +0.000 C 
ENDBRANCH  39  42
BRANCH  37  44
ATOM     44  O4  UNL     1      76.693  60.872 114.516  0.00  0.00    +0.000 OA
BRANCH  44  45
ATOM     45  C18 UNL     1      77.151  60.192 115.649  0.00  0.00    +0.000 C 
ATOM     46  O5  UNL     1      77.291  60.797 116.749  0.00  0.00    +0.000 OA
BRANCH  45  47
ATOM     47  C19 UNL     1      77.406  58.738 115.567  0.00  0.00    +0.000 A 
ATOM     48  C20 UNL     1      76.346  57.794 115.554  0.00  0.00    +0.000 A 
ATOM     49  C23 UNL     1      76.652  56.412 115.513  0.00  0.00    +0.000 A 
ATOM     50  C24 UNL     1      77.994  55.985 115.514  0.00  0.00    +0.000 A 
ATOM     51  C25 UNL     1      79.032  56.923 115.524  0.00  0.00    +0.000 A 
ATOM     52  C26 UNL     1      78.745  58.298 115.546  0.00  0.00    +0.000 A 
ATOM     53 CL1  UNL     1      80.701  56.349 115.525  0.00  0.00    +0.000 Cl
ATOM     54 CL2  UNL     1      75.363  55.206 115.444  0.00  0.00    +0.000 Cl
BRANCH  48  55
ATOM     55  C21 UNL     1      74.900  58.252 115.461  0.00  0.00    +0.000 C 
ATOM     56  C22 UNL     1      74.262  58.319 116.848  0.00  0.00    +0.000 C 
ENDBRANCH  48  55
BRANCH  50  57
ATOM     57  O6  UNL     1      78.326  54.628 115.496  0.00  0.00    +0.000 OA
ATOM     58  H31 UNL     1      77.694  53.895 115.793  0.00  0.00    +0.000 HD
ENDBRANCH  50  57
BRANCH  52  59
ATOM     59  O7  UNL     1      79.773  59.244 115.558  0.00  0.00    +0.000 OA
ATOM     60  H32 UNL     1      79.619  60.231 115.715  0.00  0.00    +0.000 HD
ENDBRANCH  52  59
ENDBRANCH  45  47
ENDBRANCH  44  45
ENDBRANCH  37  44
ENDBRANCH  32  33
ENDBRANCH  31  32
ENDBRANCH  10  31
BRANCH  22  61
ATOM     61  O12 UNL     1      70.965  60.702 103.176  0.00  0.00    +0.000 OA
BRANCH  61  62
ATOM     62  C40 UNL     1      70.692  61.268 101.908  0.00  0.00    +0.000 C 
ATOM     63  O13 UNL     1      69.400  60.831 101.503  0.00  0.00    +0.000 OA
ATOM     64  C41 UNL     1      69.211  60.376 100.167  0.00  0.00    +0.000 C 
ATOM     65  C42 UNL     1      67.721  60.640  99.868  0.00  0.00    +0.000 C 
ATOM     66  C43 UNL     1      69.429  58.841 100.101  0.00  0.00    +0.000 C 
ATOM     67  C44 UNL     1      70.086  61.136  99.120  0.00  0.00    +0.000 C 
ATOM     68  C49 UNL     1      71.583  61.230  99.511  0.00  0.00    +0.000 C 
ATOM     69  C50 UNL     1      71.862  60.887 100.983  0.00  0.00    +0.000 C 
BRANCH  68  70
ATOM     70  O16 UNL     1      72.059  62.527  99.244  0.00  0.00    +0.000 OA
ATOM     71  H67 UNL     1      71.344  63.160  99.523  0.00  0.00    +0.000 HD
ENDBRANCH  68  70
BRANCH  69  72
ATOM     72  O17 UNL     1      72.184  59.523 101.115  0.00  0.00    +0.000 OA
ATOM     73  H69 UNL     1      71.767  59.046 100.348  0.00  0.00    +0.000 HD
ENDBRANCH  69  72
BRANCH  67  74
ATOM     74  O14 UNL     1      70.010  60.490  97.843  0.00  0.00    +0.000 OA
BRANCH  74  75
ATOM     75  C45 UNL     1      69.953  61.141  96.605  0.00  0.00    +0.000 C 
ATOM     76  O15 UNL     1      70.608  62.202  96.401  0.00  0.00    +0.000 OA
BRANCH  75  77
ATOM     77  C46 UNL     1      69.044  60.581  95.543  0.00  0.00    +0.000 C 
ATOM     78  C47 UNL     1      68.012  59.606  96.120  0.00  0.00    +0.000 C 
ATOM     79  C48 UNL     1      69.877  59.908  94.447  0.00  0.00    +0.000 C 
ENDBRANCH  75  77
ENDBRANCH  74  75
ENDBRANCH  67  74
ENDBRANCH  61  62
ENDBRANCH  22  61
TORSDOF 22
ENDMDL
MODEL 2
REMARK VINA RESULT:      -8.5      5.747     12.642
REMARK  Name = ./S4227.pdb
REMARK  34 active torsions:
REMARK  status: ('A' for Active; 'I' for Inactive)
REMARK    1  A    between atoms: C1_1  and  C2_2
REMARK    2  A    between atoms: C2_2  and  C3_3
REMARK    3  A    between atoms: C5_5  and  C6_6
REMARK    4  A    between atoms: C7_7  and  O1_8
REMARK    5  A    between atoms: C12_13  and  C13_14
REMARK    6  A    between atoms: C13_14  and  O2_15
REMARK    7  A    between atoms: O2_15  and  C14_16
REMARK    8  A    between atoms: C15_18  and  C16_19
REMARK    9  A    between atoms: C17_20  and  O4_21
REMARK   10  A    between atoms: O4_21  and  C18_22
REMARK   11  A    between atoms: C18_22  and  C19_24
REMARK   12  A    between atoms: C20_25  and  C21_26
REMARK   13  A    between atoms: C21_26  and  C22_27
REMARK   14  A    between atoms: C24_29  and  O6_30
REMARK   15  A    between atoms: C26_32  and  O7_33
REMARK   16  A    between atoms: C27_36  and  O8_37
REMARK   17  A    between atoms: C28_38  and  O9_39
REMARK   18  A    between atoms: O9_39  and  C29_40
REMARK   19  A    between atoms: C31_44  and  C51_70
REMARK   20  A    between atoms: C34_47  and  C35_48
REMARK   21  A    between atoms: C37_50  and  C38_51
REMARK   22  A    between atoms: C39_52  and  O12_53
REMARK   23  A    between atoms: O12_53  and  C40_54
REMARK   24  A    between atoms: C41_56  and  C42_57
REMARK   25  A    between atoms: C41_56  and  C43_58
REMARK   26  A    between atoms: C44_59  and  O14_60
REMARK   27  A    between atoms: O14_60  and  C45_61
REMARK   28  A    between atoms: C45_61  and  C46_63
REMARK   29  A    between atoms: C46_63  and  C47_64
REMARK   30  A    between atoms: C46_63  and  C48_65
REMARK   31  A    between atoms: C49_66  and  O16_67
REMARK   32  A    between atoms: C50_68  and  O17_69
REMARK   33  A    between atoms: C51_70  and  C52_71
REMARK   34  A    between atoms: C51_70  and  O18_72
REMARK                            x       y       z     vdW  Elec       q    Type
REMARK                         _______ _______ _______ _____ _____    ______ ____
ROOT
ATOM      1  C3  UNL     1      73.641  62.908 106.629  0.00  0.00    +0.000 C 
ATOM      2  C4  UNL     1      72.146  62.742 106.432  0.00  0.00    +0.000 C 
ATOM      3  C5  UNL     1      71.503  61.766 105.738  0.00  0.00    +0.000 C 
ATOM      4  C6  UNL     1      69.996  61.838 105.718  0.00  0.00    +0.000 C 
ATOM      5  C7  UNL     1      72.188  60.646 104.954  0.00  0.00    +0.000 C 
ATOM      6  C8  UNL     1      72.796  59.547 105.878  0.00  0.00    +0.000 C 
ATOM      7  C9  UNL     1      74.295  59.609 105.990  0.00  0.00    +0.000 C 
ATOM      8  C10 UNL     1      75.102  59.185 105.016  0.00  0.00    +0.000 C 
ATOM      9  C11 UNL     1      76.533  59.536 105.044  0.00  0.00    +0.000 C 
ATOM     10  C12 UNL     1      77.458  59.063 104.187  0.00  0.00    +0.000 C 
ATOM     11  C30 UNL     1      78.816  59.650 104.229  0.00  0.00    +0.000 C 
ATOM     12  O10 UNL     1      79.805  59.033 103.743  0.00  0.00    +0.000 OA
ATOM     13  O11 UNL     1      78.976  60.917 104.789  0.00  0.00    +0.000 OA
ATOM     14  C31 UNL     1      80.186  61.680 104.801  0.00  0.00    +0.000 C 
ATOM     15  C32 UNL     1      79.851  63.200 104.760  0.00  0.00    +0.000 C 
ATOM     16  C33 UNL     1      78.429  63.479 105.209  0.00  0.00    +0.000 C 
ATOM     17  C34 UNL     1      77.432  63.888 104.396  0.00  0.00    +0.000 C 
ATOM     18  C35 UNL     1      77.658  64.175 102.934  0.00  0.00    +0.000 C 
ATOM     19  C36 UNL     1      76.026  63.853 104.864  0.00  0.00    +0.000 C 
ATOM     20  C37 UNL     1      75.537  64.506 105.942  0.00  0.00    +0.000 C 
ATOM     21  C38 UNL     1      76.417  65.467 106.717  0.00  0.00    +0.000 C 
ATOM     22  C39 UNL     1      74.038  64.372 106.246  0.00  0.00    +0.000 C 
ENDROOT
BRANCH   1  24
ATOM     23  C1  UNL     1      75.386  62.016 108.317  0.00  0.00    +0.000 C 
ATOM     24  C2  UNL     1      73.961  62.534 108.105  0.00  0.00    +0.000 C 
ENDBRANCH   1  24
BRANCH   5  25
ATOM     25  O1  UNL     1      73.119  61.186 104.050  0.00  0.00    +0.000 OA
ATOM     26  H12 UNL     1      72.781  60.999 103.134  0.00  0.00    +0.000 HD
ENDBRANCH   5  25
BRANCH  14  27
ATOM     27  C51 UNL     1      81.063  61.270 106.015  0.00  0.00    +0.000 C 
ATOM     28  C52 UNL     1      82.326  62.127 106.156  0.00  0.00    +0.000 C 
BRANCH  27  29
ATOM     29  O18 UNL     1      81.431  59.918 105.916  0.00  0.00    +0.000 OA
ATOM     30  H74 UNL     1      82.002  59.839 105.107  0.00  0.00    +0.000 HD
ENDBRANCH  27  29
ENDBRANCH  14  27
BRANCH  10  31
ATOM     31  C13 UNL     1      77.162  57.925 103.235  0.00  0.00    +0.000 C 
BRANCH  31  32
ATOM     32  O2  UNL     1      76.916  58.459 101.943  0.00  0.00    +0.000 OA
BRANCH  32  33
ATOM     33  C14 UNL     1      75.535  58.473 101.616  0.00  0.00    +0.000 C 
ATOM     34  O3  UNL     1      74.988  59.756 101.906  0.00  0.00    +0.000 OA
ATOM     35  C15 UNL     1      75.564  60.771 101.094  0.00  0.00    +0.000 C 
ATOM     36  C16 UNL     1      75.048  62.130 101.574  0.00  0.00    +0.000 C 
ATOM     37  C17 UNL     1      75.215  60.542  99.606  0.00  0.00    +0.000 C 
ATOM     38  C27 UNL     1      75.814  59.175  99.208  0.00  0.00    +0.000 C 
ATOM     39  C28 UNL     1      75.280  58.066 100.140  0.00  0.00    +0.000 C 
BRANCH  38  40
ATOM     40  O8  UNL     1      75.615  58.886  97.848  0.00  0.00    +0.000 OA
ATOM     41  H34 UNL     1      74.790  58.342  97.755  0.00  0.00    +0.000 HD
ENDBRANCH  38  40
BRANCH  39  42
ATOM     42  O9  UNL     1      73.881  57.913  99.949  0.00  0.00    +0.000 OA
ATOM     43  C29 UNL     1      73.381  56.817 100.682  0.00  0.00    +0.000 C 
ENDBRANCH  39  42
BRANCH  37  44
ATOM     44  O4  UNL     1      73.790  60.541  99.458  0.00  0.00    +0.000 OA
BRANCH  44  45
ATOM     45  C18 UNL     1      73.042  61.596  98.928  0.00  0.00    +0.000 C 
ATOM     46  O5  UNL     1      73.587  62.707  98.674  0.00  0.00    +0.000 OA
BRANCH  45  47
ATOM     47  C19 UNL     1      71.616  61.380  98.600  0.00  0.00    +0.000 A 
ATOM     48  C20 UNL     1      70.644  61.157  99.610  0.00  0.00    +0.000 A 
ATOM     49  C23 UNL     1      69.301  60.917  99.236  0.00  0.00    +0.000 A 
ATOM     50  C24 UNL     1      68.944  60.874  97.873  0.00  0.00    +0.000 A 
ATOM     51  C25 UNL     1      69.909  61.098  96.885  0.00  0.00    +0.000 A 
ATOM     52  C26 UNL     1      71.242  61.355  97.242  0.00  0.00    +0.000 A 
ATOM     53 CL1  UNL     1      69.423  61.035  95.189  0.00  0.00    +0.000 Cl
ATOM     54 CL2  UNL     1      68.051  60.685 100.462  0.00  0.00    +0.000 Cl
BRANCH  48  55
ATOM     55  C21 UNL     1      71.007  61.293 101.080  0.00  0.00    +0.000 C 
ATOM     56  C22 UNL     1      70.694  62.699 101.588  0.00  0.00    +0.000 C 
ENDBRANCH  48  55
BRANCH  50  57
ATOM     57  O6  UNL     1      67.630  60.617  97.472  0.00  0.00    +0.000 OA
ATOM     58  H31 UNL     1      66.818  60.959  97.972  0.00  0.00    +0.000 HD
ENDBRANCH  50  57
BRANCH  52  59
ATOM     59  O7  UNL     1      72.215  61.578  96.263  0.00  0.00    +0.000 OA
ATOM     60  H32 UNL     1      72.008  61.635  95.275  0.00  0.00    +0.000 HD
ENDBRANCH  52  59
ENDBRANCH  45  47
ENDBRANCH  44  45
ENDBRANCH  37  44
ENDBRANCH  32  33
ENDBRANCH  31  32
ENDBRANCH  10  31
BRANCH  22  61
ATOM     61  O12 UNL     1      73.637  65.226 107.310  0.00  0.00    +0.000 OA
BRANCH  61  62
ATOM     62  C40 UNL     1      72.458  65.964 107.045  0.00  0.00    +0.000 C 
ATOM     63  O13 UNL     1      72.784  66.988 106.112  0.00  0.00    +0.000 OA
ATOM     64  C41 UNL     1      72.295  68.307 106.335  0.00  0.00    +0.000 C 
ATOM     65  C42 UNL     1      72.213  68.939 104.931  0.00  0.00    +0.000 C 
ATOM     66  C43 UNL     1      73.338  69.121 107.146  0.00  0.00    +0.000 C 
ATOM     67  C44 UNL     1      70.881  68.345 106.998  0.00  0.00    +0.000 C 
ATOM     68  C49 UNL     1      70.757  67.444 108.253  0.00  0.00    +0.000 C 
ATOM     69  C50 UNL     1      71.902  66.429 108.402  0.00  0.00    +0.000 C 
BRANCH  68  70
ATOM     70  O16 UNL     1      69.533  66.751 108.217  0.00  0.00    +0.000 OA
ATOM     71  H67 UNL     1      68.871  67.359 107.790  0.00  0.00    +0.000 HD
ENDBRANCH  68  70
BRANCH  69  72
ATOM     72  O17 UNL     1      72.926  66.962 109.209  0.00  0.00    +0.000 OA
ATOM     73  H69 UNL     1      73.489  66.200 109.513  0.00  0.00    +0.000 HD
ENDBRANCH  69  72
BRANCH  67  74
ATOM     74  O14 UNL     1      70.549  69.682 107.389  0.00  0.00    +0.000 OA
BRANCH  74  75
ATOM     75  C45 UNL     1      69.651  70.525 106.722  0.00  0.00    +0.000 C 
ATOM     76  O15 UNL     1      68.755  70.050 105.968  0.00  0.00    +0.000 OA
BRANCH  75  77
ATOM     77  C46 UNL     1      69.816  72.014 106.876  0.00  0.00    +0.000 C 
ATOM     78  C47 UNL     1      70.806  72.374 107.989  0.00  0.00    +0.000 C 
ATOM     79  C48 UNL     1      68.453  72.665 107.129  0.00  0.00    +0.000 C 
ENDBRANCH  75  77
ENDBRANCH  74  75
ENDBRANCH  67  74
ENDBRANCH  61  62
ENDBRANCH  22  61
TORSDOF 22
ENDMDL
MODEL 3
REMARK VINA RESULT:      -8.5      5.038     14.421
REMARK  Name = ./S4227.pdb
REMARK  34 active torsions:
REMARK  status: ('A' for Active; 'I' for Inactive)
REMARK    1  A    between atoms: C1_1  and  C2_2
REMARK    2  A    between atoms: C2_2  and  C3_3
REMARK    3  A    between atoms: C5_5  and  C6_6
REMARK    4  A    between atoms: C7_7  and  O1_8
REMARK    5  A    between atoms: C12_13  and  C13_14
REMARK    6  A    between atoms: C13_14  and  O2_15
REMARK    7  A    between atoms: O2_15  and  C14_16
REMARK    8  A    between atoms: C15_18  and  C16_19
REMARK    9  A    between atoms: C17_20  and  O4_21
REMARK   10  A    between atoms: O4_21  and  C18_22
REMARK   11  A    between atoms: C18_22  and  C19_24
REMARK   12  A    between atoms: C20_25  and  C21_26
REMARK   13  A    between atoms: C21_26  and  C22_27
REMARK   14  A    between atoms: C24_29  and  O6_30
REMARK   15  A    between atoms: C26_32  and  O7_33
REMARK   16  A    between atoms: C27_36  and  O8_37
REMARK   17  A    between atoms: C28_38  and  O9_39
REMARK   18  A    between atoms: O9_39  and  C29_40
REMARK   19  A    between atoms: C31_44  and  C51_70
REMARK   20  A    between atoms: C34_47  and  C35_48
REMARK   21  A    between atoms: C37_50  and  C38_51
REMARK   22  A    between atoms: C39_52  and  O12_53
REMARK   23  A    between atoms: O12_53  and  C40_54
REMARK   24  A    between atoms: C41_56  and  C42_57
REMARK   25  A    between atoms: C41_56  and  C43_58
REMARK   26  A    between atoms: C44_59  and  O14_60
REMARK   27  A    between atoms: O14_60  and  C45_61
REMARK   28  A    between atoms: C45_61  and  C46_63
REMARK   29  A    between atoms: C46_63  and  C47_64
REMARK   30  A    between atoms: C46_63  and  C48_65
REMARK   31  A    between atoms: C49_66  and  O16_67
REMARK   32  A    between atoms: C50_68  and  O17_69
REMARK   33  A    between atoms: C51_70  and  C52_71
REMARK   34  A    between atoms: C51_70  and  O18_72
REMARK                            x       y       z     vdW  Elec       q    Type
REMARK                         _______ _______ _______ _____ _____    ______ ____
ROOT
ATOM      1  C3  UNL     1      73.550  63.790 108.129  0.00  0.00    +0.000 C 
ATOM      2  C4  UNL     1      72.289  64.573 108.441  0.00  0.00    +0.000 C 
ATOM      3  C5  UNL     1      71.355  65.026 107.564  0.00  0.00    +0.000 C 
ATOM      4  C6  UNL     1      70.184  65.772 108.156  0.00  0.00    +0.000 C 
ATOM      5  C7  UNL     1      71.427  64.875 106.044  0.00  0.00    +0.000 C 
ATOM      6  C8  UNL     1      71.126  63.423 105.567  0.00  0.00    +0.000 C 
ATOM      7  C9  UNL     1      72.348  62.662 105.128  0.00  0.00    +0.000 C 
ATOM      8  C10 UNL     1      72.946  62.885 103.956  0.00  0.00    +0.000 C 
ATOM      9  C11 UNL     1      74.291  62.338 103.703  0.00  0.00    +0.000 C 
ATOM     10  C12 UNL     1      74.933  62.393 102.521  0.00  0.00    +0.000 C 
ATOM     11  C30 UNL     1      76.349  61.966 102.473  0.00  0.00    +0.000 C 
ATOM     12  O10 UNL     1      76.892  61.641 101.380  0.00  0.00    +0.000 OA
ATOM     13  O11 UNL     1      77.082  61.959 103.659  0.00  0.00    +0.000 OA
ATOM     14  C31 UNL     1      78.483  61.694 103.776  0.00  0.00    +0.000 C 
ATOM     15  C32 UNL     1      79.073  62.494 104.974  0.00  0.00    +0.000 C 
ATOM     16  C33 UNL     1      77.999  62.914 105.959  0.00  0.00    +0.000 C 
ATOM     17  C34 UNL     1      77.579  64.182 106.144  0.00  0.00    +0.000 C 
ATOM     18  C35 UNL     1      78.197  65.346 105.414  0.00  0.00    +0.000 C 
ATOM     19  C36 UNL     1      76.336  64.453 106.908  0.00  0.00    +0.000 C 
ATOM     20  C37 UNL     1      76.104  64.093 108.190  0.00  0.00    +0.000 C 
ATOM     21  C38 UNL     1      77.206  63.459 109.017  0.00  0.00    +0.000 C 
ATOM     22  C39 UNL     1      74.764  64.496 108.819  0.00  0.00    +0.000 C 
ENDROOT
BRANCH   1  24
ATOM     23  C1  UNL     1      74.154  61.290 107.848  0.00  0.00    +0.000 C 
ATOM     24  C2  UNL     1      73.319  62.326 108.605  0.00  0.00    +0.000 C 
ENDBRANCH   1  24
BRANCH   5  25
ATOM     25  O1  UNL     1      72.651  65.373 105.565  0.00  0.00    +0.000 OA
ATOM     26  H12 UNL     1      72.666  66.349 105.755  0.00  0.00    +0.000 HD
ENDBRANCH   5  25
BRANCH  14  27
ATOM     27  C51 UNL     1      78.731  60.164 103.868  0.00  0.00    +0.000 C 
ATOM     28  C52 UNL     1      77.583  59.413 104.551  0.00  0.00    +0.000 C 
BRANCH  27  29
ATOM     29  O18 UNL     1      79.927  59.905 104.559  0.00  0.00    +0.000 OA
ATOM     30  H74 UNL     1      80.105  58.933 104.459  0.00  0.00    +0.000 HD
ENDBRANCH  27  29
ENDBRANCH  14  27
BRANCH  10  31
ATOM     31  C13 UNL     1      74.237  62.824 101.248  0.00  0.00    +0.000 C 
BRANCH  31  32
ATOM     32  O2  UNL     1      73.392  61.772 100.809  0.00  0.00    +0.000 OA
BRANCH  32  33
ATOM     33  C14 UNL     1      72.031  62.167 100.724  0.00  0.00    +0.000 C 
ATOM     34  O3  UNL     1      71.767  62.696  99.428  0.00  0.00    +0.000 OA
ATOM     35  C15 UNL     1      71.922  61.711  98.414  0.00  0.00    +0.000 C 
ATOM     36  C16 UNL     1      71.782  62.391  97.050  0.00  0.00    +0.000 C 
ATOM     37  C17 UNL     1      70.875  60.587  98.582  0.00  0.00    +0.000 C 
ATOM     38  C27 UNL     1      71.127  59.938  99.960  0.00  0.00    +0.000 C 
ATOM     39  C28 UNL     1      71.062  61.006 101.074  0.00  0.00    +0.000 C 
BRANCH  38  40
ATOM     40  O8  UNL     1      70.271  58.851 100.199  0.00  0.00    +0.000 OA
ATOM     41  H34 UNL     1      69.353  59.196 100.353  0.00  0.00    +0.000 HD
ENDBRANCH  38  40
BRANCH  39  42
ATOM     42  O9  UNL     1      69.745  61.528 101.160  0.00  0.00    +0.000 OA
ATOM     43  C29 UNL     1      69.646  62.505 102.171  0.00  0.00    +0.000 C 
ENDBRANCH  39  42
BRANCH  37  44
ATOM     44  O4  UNL     1      69.563  61.161  98.517  0.00  0.00    +0.000 OA
BRANCH  44  45
ATOM     45  C18 UNL     1      68.508  60.653  97.752  0.00  0.00    +0.000 C 
ATOM     46  O5  UNL     1      68.226  61.158  96.630  0.00  0.00    +0.000 OA
BRANCH  45  47
ATOM     47  C19 UNL     1      67.765  59.472  98.240  0.00  0.00    +0.000 A 
ATOM     48  C20 UNL     1      67.811  58.227  97.559  0.00  0.00    +0.000 A 
ATOM     49  C23 UNL     1      67.048  57.141  98.051  0.00  0.00    +0.000 A 
ATOM     50  C24 UNL     1      66.231  57.309  99.187  0.00  0.00    +0.000 A 
ATOM     51  C25 UNL     1      66.194  58.539  99.853  0.00  0.00    +0.000 A 
ATOM     52  C26 UNL     1      66.960  59.620  99.388  0.00  0.00    +0.000 A 
ATOM     53 CL1  UNL     1      65.158  58.709 101.272  0.00  0.00    +0.000 Cl
ATOM     54 CL2  UNL     1      67.117  55.562  97.264  0.00  0.00    +0.000 Cl
BRANCH  48  55
ATOM     55  C21 UNL     1      68.759  58.018  96.390  0.00  0.00    +0.000 C 
ATOM     56  C22 UNL     1      70.067  57.382  96.859  0.00  0.00    +0.000 C 
ENDBRANCH  48  55
BRANCH  50  57
ATOM     57  O6  UNL     1      65.450  56.262  99.682  0.00  0.00    +0.000 OA
ATOM     58  H31 UNL     1      65.798  55.563 100.326  0.00  0.00    +0.000 HD
ENDBRANCH  50  57
BRANCH  52  59
ATOM     59  O7  UNL     1      66.929  60.854 100.043  0.00  0.00    +0.000 OA
ATOM     60  H32 UNL     1      66.344  61.625  99.751  0.00  0.00    +0.000 HD
ENDBRANCH  52  59
ENDBRANCH  45  47
ENDBRANCH  44  45
ENDBRANCH  37  44
ENDBRANCH  32  33
ENDBRANCH  31  32
ENDBRANCH  10  31
BRANCH  22  61
ATOM     61  O12 UNL     1      74.718  64.188 110.207  0.00  0.00    +0.000 OA
BRANCH  61  62
ATOM     62  C40 UNL     1      75.198  65.223 111.045  0.00  0.00    +0.000 C 
ATOM     63  O13 UNL     1      75.403  64.675 112.341  0.00  0.00    +0.000 OA
ATOM     64  C41 UNL     1      74.951  65.403 113.479  0.00  0.00    +0.000 C 
ATOM     65  C42 UNL     1      75.873  64.949 114.629  0.00  0.00    +0.000 C 
ATOM     66  C43 UNL     1      73.509  64.962 113.843  0.00  0.00    +0.000 C 
ATOM     67  C44 UNL     1      75.065  66.952 113.313  0.00  0.00    +0.000 C 
ATOM     68  C49 UNL     1      74.460  67.483 111.988  0.00  0.00    +0.000 C 
ATOM     69  C50 UNL     1      74.193  66.385 110.946  0.00  0.00    +0.000 C 
BRANCH  68  70
ATOM     70  O16 UNL     1      75.321  68.446 111.430  0.00  0.00    +0.000 OA
ATOM     71  H67 UNL     1      75.759  68.916 112.190  0.00  0.00    +0.000 HD
ENDBRANCH  68  70
BRANCH  69  72
ATOM     72  O17 UNL     1      72.870  65.917 111.056  0.00  0.00    +0.000 OA
ATOM     73  H69 UNL     1      72.552  65.713 110.136  0.00  0.00    +0.000 HD
ENDBRANCH  69  72
BRANCH  67  74
ATOM     74  O14 UNL     1      74.399  67.620 114.392  0.00  0.00    +0.000 OA
BRANCH  74  75
ATOM     75  C45 UNL     1      75.026  68.185 115.510  0.00  0.00    +0.000 C 
ATOM     76  O15 UNL     1      76.174  68.704 115.414  0.00  0.00    +0.000 OA
BRANCH  75  77
ATOM     77  C46 UNL     1      74.327  68.103 116.841  0.00  0.00    +0.000 C 
ATOM     78  C47 UNL     1      74.697  66.829 117.610  0.00  0.00    +0.000 C 
ATOM     79  C48 UNL     1      72.811  68.196 116.640  0.00  0.00    +0.000 C 
ENDBRANCH  75  77
ENDBRANCH  74  75
ENDBRANCH  67  74
ENDBRANCH  61  62
ENDBRANCH  22  61
TORSDOF 22
ENDMDL
MODEL 4
REMARK VINA RESULT:      -8.5      6.314     12.027
REMARK  Name = ./S4227.pdb
REMARK  34 active torsions:
REMARK  status: ('A' for Active; 'I' for Inactive)
REMARK    1  A    between atoms: C1_1  and  C2_2
REMARK    2  A    between atoms: C2_2  and  C3_3
REMARK    3  A    between atoms: C5_5  and  C6_6
REMARK    4  A    between atoms: C7_7  and  O1_8
REMARK    5  A    between atoms: C12_13  and  C13_14
REMARK    6  A    between atoms: C13_14  and  O2_15
REMARK    7  A    between atoms: O2_15  and  C14_16
REMARK    8  A    between atoms: C15_18  and  C16_19
REMARK    9  A    between atoms: C17_20  and  O4_21
REMARK   10  A    between atoms: O4_21  and  C18_22
REMARK   11  A    between atoms: C18_22  and  C19_24
REMARK   12  A    between atoms: C20_25  and  C21_26
REMARK   13  A    between atoms: C21_26  and  C22_27
REMARK   14  A    between atoms: C24_29  and  O6_30
REMARK   15  A    between atoms: C26_32  and  O7_33
REMARK   16  A    between atoms: C27_36  and  O8_37
REMARK   17  A    between atoms: C28_38  and  O9_39
REMARK   18  A    between atoms: O9_39  and  C29_40
REMARK   19  A    between atoms: C31_44  and  C51_70
REMARK   20  A    between atoms: C34_47  and  C35_48
REMARK   21  A    between atoms: C37_50  and  C38_51
REMARK   22  A    between atoms: C39_52  and  O12_53
REMARK   23  A    between atoms: O12_53  and  C40_54
REMARK   24  A    between atoms: C41_56  and  C42_57
REMARK   25  A    between atoms: C41_56  and  C43_58
REMARK   26  A    between atoms: C44_59  and  O14_60
REMARK   27  A    between atoms: O14_60  and  C45_61
REMARK   28  A    between atoms: C45_61  and  C46_63
REMARK   29  A    between atoms: C46_63  and  C47_64
REMARK   30  A    between atoms: C46_63  and  C48_65
REMARK   31  A    between atoms: C49_66  and  O16_67
REMARK   32  A    between atoms: C50_68  and  O17_69
REMARK   33  A    between atoms: C51_70  and  C52_71
REMARK   34  A    between atoms: C51_70  and  O18_72
REMARK                            x       y       z     vdW  Elec       q    Type
REMARK                         _______ _______ _______ _____ _____    ______ ____
ROOT
ATOM      1  C3  UNL     1      68.497  59.880  99.458  0.00  0.00    +0.000 C 
ATOM      2  C4  UNL     1      68.609  60.921 100.555  0.00  0.00    +0.000 C 
ATOM      3  C5  UNL     1      69.743  61.483 101.054  0.00  0.00    +0.000 C 
ATOM      4  C6  UNL     1      69.560  62.512 102.142  0.00  0.00    +0.000 C 
ATOM      5  C7  UNL     1      71.166  61.120 100.629  0.00  0.00    +0.000 C 
ATOM      6  C8  UNL     1      71.540  61.685  99.225  0.00  0.00    +0.000 C 
ATOM      7  C9  UNL     1      71.561  60.647  98.137  0.00  0.00    +0.000 C 
ATOM      8  C10 UNL     1      72.556  59.767  98.008  0.00  0.00    +0.000 C 
ATOM      9  C11 UNL     1      72.392  58.597  97.128  0.00  0.00    +0.000 C 
ATOM     10  C12 UNL     1      73.367  57.718  96.826  0.00  0.00    +0.000 C 
ATOM     11  C30 UNL     1      73.000  56.495  96.079  0.00  0.00    +0.000 C 
ATOM     12  O10 UNL     1      73.873  55.831  95.452  0.00  0.00    +0.000 OA
ATOM     13  O11 UNL     1      71.672  56.071  96.109  0.00  0.00    +0.000 OA
ATOM     14  C31 UNL     1      71.169  54.854  95.549  0.00  0.00    +0.000 C 
ATOM     15  C32 UNL     1      69.956  54.351  96.386  0.00  0.00    +0.000 C 
ATOM     16  C33 UNL     1      69.335  55.463  97.208  0.00  0.00    +0.000 C 
ATOM     17  C34 UNL     1      69.406  55.558  98.552  0.00  0.00    +0.000 C 
ATOM     18  C35 UNL     1      70.078  54.505  99.395  0.00  0.00    +0.000 C 
ATOM     19  C36 UNL     1      69.024  56.819  99.233  0.00  0.00    +0.000 C 
ATOM     20  C37 UNL     1      67.813  57.417  99.164  0.00  0.00    +0.000 C 
ATOM     21  C38 UNL     1      66.665  56.736  98.445  0.00  0.00    +0.000 C 
ATOM     22  C39 UNL     1      67.600  58.705  99.971  0.00  0.00    +0.000 C 
ENDROOT
BRANCH   1  24
ATOM     23  C1  UNL     1      68.327  59.917  96.876  0.00  0.00    +0.000 C 
ATOM     24  C2  UNL     1      67.937  60.593  98.193  0.00  0.00    +0.000 C 
ENDBRANCH   1  24
BRANCH   5  25
ATOM     25  O1  UNL     1      71.365  59.732 100.737  0.00  0.00    +0.000 OA
ATOM     26  H12 UNL     1      70.466  59.308 100.769  0.00  0.00    +0.000 HD
ENDBRANCH   5  25
BRANCH  14  27
ATOM     27  C51 UNL     1      70.846  55.052  94.044  0.00  0.00    +0.000 C 
ATOM     28  C52 UNL     1      69.660  54.204  93.571  0.00  0.00    +0.000 C 
BRANCH  27  29
ATOM     29  O18 UNL     1      71.972  54.748  93.260  0.00  0.00    +0.000 OA
ATOM     30  H74 UNL     1      72.158  53.782  93.394  0.00  0.00    +0.000 HD
ENDBRANCH  27  29
ENDBRANCH  14  27
BRANCH  10  31
ATOM     31  C13 UNL     1      74.816  57.975  97.179  0.00  0.00    +0.000 C 
BRANCH  31  32
ATOM     32  O2  UNL     1      75.162  57.183  98.305  0.00  0.00    +0.000 OA
BRANCH  32  33
ATOM     33  C14 UNL     1      75.247  57.945  99.500  0.00  0.00    +0.000 C 
ATOM     34  O3  UNL     1      74.031  57.826 100.231  0.00  0.00    +0.000 OA
ATOM     35  C15 UNL     1      73.805  56.492 100.667  0.00  0.00    +0.000 C 
ATOM     36  C16 UNL     1      72.413  56.415 101.298  0.00  0.00    +0.000 C 
ATOM     37  C17 UNL     1      74.894  56.058 101.675  0.00  0.00    +0.000 C 
ATOM     38  C27 UNL     1      76.247  56.126 100.935  0.00  0.00    +0.000 C 
ATOM     39  C28 UNL     1      76.473  57.542 100.363  0.00  0.00    +0.000 C 
BRANCH  38  40
ATOM     40  O8  UNL     1      77.312  55.687 101.738  0.00  0.00    +0.000 OA
ATOM     41  H34 UNL     1      77.906  55.108 101.192  0.00  0.00    +0.000 HD
ENDBRANCH  38  40
BRANCH  39  42
ATOM     42  O9  UNL     1      76.600  58.474 101.428  0.00  0.00    +0.000 OA
ATOM     43  C29 UNL     1      77.006  59.738 100.956  0.00  0.00    +0.000 C 
ENDBRANCH  39  42
BRANCH  37  44
ATOM     44  O4  UNL     1      74.874  56.953 102.794  0.00  0.00    +0.000 OA
BRANCH  44  45
ATOM     45  C18 UNL     1      74.685  56.564 104.123  0.00  0.00    +0.000 C 
ATOM     46  O5  UNL     1      75.085  55.437 104.527  0.00  0.00    +0.000 OA
BRANCH  45  47
ATOM     47  C19 UNL     1      74.071  57.515 105.075  0.00  0.00    +0.000 A 
ATOM     48  C20 UNL     1      74.824  58.554 105.684  0.00  0.00    +0.000 A 
ATOM     49  C23 UNL     1      74.192  59.410 106.616  0.00  0.00    +0.000 A 
ATOM     50  C24 UNL     1      72.839  59.212 106.954  0.00  0.00    +0.000 A 
ATOM     51  C25 UNL     1      72.104  58.187 106.347  0.00  0.00    +0.000 A 
ATOM     52  C26 UNL     1      72.712  57.340 105.406  0.00  0.00    +0.000 A 
ATOM     53 CL1  UNL     1      70.411  57.970 106.798  0.00  0.00    +0.000 Cl
ATOM     54 CL2  UNL     1      75.079  60.746 107.358  0.00  0.00    +0.000 Cl
BRANCH  48  55
ATOM     55  C21 UNL     1      76.256  58.827 105.254  0.00  0.00    +0.000 C 
ATOM     56  C22 UNL     1      76.343  60.122 104.448  0.00  0.00    +0.000 C 
ENDBRANCH  48  55
BRANCH  50  57
ATOM     57  O6  UNL     1      72.195  60.027 107.888  0.00  0.00    +0.000 OA
ATOM     58  H31 UNL     1      71.541  60.757 107.634  0.00  0.00    +0.000 HD
ENDBRANCH  50  57
BRANCH  52  59
ATOM     59  O7  UNL     1      71.989  56.313 104.795  0.00  0.00    +0.000 OA
ATOM     60  H32 UNL     1      71.097  55.980 105.137  0.00  0.00    +0.000 HD
ENDBRANCH  52  59
ENDBRANCH  45  47
ENDBRANCH  44  45
ENDBRANCH  37  44
ENDBRANCH  32  33
ENDBRANCH  31  32
ENDBRANCH  10  31
BRANCH  22  61
ATOM     61  O12 UNL     1      66.246  59.137  99.928  0.00  0.00    +0.000 OA
BRANCH  61  62
ATOM     62  C40 UNL     1      65.593  59.119 101.183  0.00  0.00    +0.000 C 
ATOM     63  O13 UNL     1      65.743  57.817 101.736  0.00  0.00    +0.000 OA
ATOM     64  C41 UNL     1      64.613  57.182 102.326  0.00  0.00    +0.000 C 
ATOM     65  C42 UNL     1      65.207  56.209 103.366  0.00  0.00    +0.000 C 
ATOM     66  C43 UNL     1      63.879  56.326 101.261  0.00  0.00    +0.000 C 
ATOM     67  C44 UNL     1      63.646  58.174 103.046  0.00  0.00    +0.000 C 
ATOM     68  C49 UNL     1      63.256  59.401 102.183  0.00  0.00    +0.000 C 
ATOM     69  C50 UNL     1      64.150  59.599 100.948  0.00  0.00    +0.000 C 
BRANCH  68  70
ATOM     70  O16 UNL     1      63.299  60.566 102.972  0.00  0.00    +0.000 OA
ATOM     71  H67 UNL     1      62.882  61.292 102.435  0.00  0.00    +0.000 HD
ENDBRANCH  68  70
BRANCH  69  72
ATOM     72  O17 UNL     1      63.584  58.961  99.828  0.00  0.00    +0.000 OA
ATOM     73  H69 UNL     1      62.905  58.318 100.166  0.00  0.00    +0.000 HD
ENDBRANCH  69  72
BRANCH  67  74
ATOM     74  O14 UNL     1      62.436  57.506 103.423  0.00  0.00    +0.000 OA
BRANCH  74  75
ATOM     75  C45 UNL     1      61.718  57.729 104.605  0.00  0.00    +0.000 C 
ATOM     76  O15 UNL     1      61.308  58.886 104.904  0.00  0.00    +0.000 OA
BRANCH  75  77
ATOM     77  C46 UNL     1      61.499  56.570 105.540  0.00  0.00    +0.000 C 
ATOM     78  C47 UNL     1      62.443  56.615 106.748  0.00  0.00    +0.000 C 
ATOM     79  C48 UNL     1      61.654  55.250 104.778  0.00  0.00    +0.000 C 
ENDBRANCH  75  77
ENDBRANCH  74  75
ENDBRANCH  67  74
ENDBRANCH  61  62
ENDBRANCH  22  61
TORSDOF 22
ENDMDL
MODEL 5
REMARK VINA RESULT:      -8.5      6.792     11.196
REMARK  Name = ./S4227.pdb
REMARK  34 active torsions:
REMARK  status: ('A' for Active; 'I' for Inactive)
REMARK    1  A    between atoms: C1_1  and  C2_2
REMARK    2  A    between atoms: C2_2  and  C3_3
REMARK    3  A    between atoms: C5_5  and  C6_6
REMARK    4  A    between atoms: C7_7  and  O1_8
REMARK    5  A    between atoms: C12_13  and  C13_14
REMARK    6  A    between atoms: C13_14  and  O2_15
REMARK    7  A    between atoms: O2_15  and  C14_16
REMARK    8  A    between atoms: C15_18  and  C16_19
REMARK    9  A    between atoms: C17_20  and  O4_21
REMARK   10  A    between atoms: O4_21  and  C18_22
REMARK   11  A    between atoms: C18_22  and  C19_24
REMARK   12  A    between atoms: C20_25  and  C21_26
REMARK   13  A    between atoms: C21_26  and  C22_27
REMARK   14  A    between atoms: C24_29  and  O6_30
REMARK   15  A    between atoms: C26_32  and  O7_33
REMARK   16  A    between atoms: C27_36  and  O8_37
REMARK   17  A    between atoms: C28_38  and  O9_39
REMARK   18  A    between atoms: O9_39  and  C29_40
REMARK   19  A    between atoms: C31_44  and  C51_70
REMARK   20  A    between atoms: C34_47  and  C35_48
REMARK   21  A    between atoms: C37_50  and  C38_51
REMARK   22  A    between atoms: C39_52  and  O12_53
REMARK   23  A    between atoms: O12_53  and  C40_54
REMARK   24  A    between atoms: C41_56  and  C42_57
REMARK   25  A    between atoms: C41_56  and  C43_58
REMARK   26  A    between atoms: C44_59  and  O14_60
REMARK   27  A    between atoms: O14_60  and  C45_61
REMARK   28  A    between atoms: C45_61  and  C46_63
REMARK   29  A    between atoms: C46_63  and  C47_64
REMARK   30  A    between atoms: C46_63  and  C48_65
REMARK   31  A    between atoms: C49_66  and  O16_67
REMARK   32  A    between atoms: C50_68  and  O17_69
REMARK   33  A    between atoms: C51_70  and  C52_71
REMARK   34  A    between atoms: C51_70  and  O18_72
REMARK                            x       y       z     vdW  Elec       q    Type
REMARK                         _______ _______ _______ _____ _____    ______ ____
ROOT
ATOM      1  C3  UNL     1      78.711  63.499 104.312  0.00  0.00    +0.000 C 
ATOM      2  C4  UNL     1      79.532  64.749 104.569  0.00  0.00    +0.000 C 
ATOM      3  C5  UNL     1      79.329  65.693 105.525  0.00  0.00    +0.000 C 
ATOM      4  C6  UNL     1      80.316  66.834 105.564  0.00  0.00    +0.000 C 
ATOM      5  C7  UNL     1      78.166  65.705 106.519  0.00  0.00    +0.000 C 
ATOM      6  C8  UNL     1      78.325  64.641 107.646  0.00  0.00    +0.000 C 
ATOM      7  C9  UNL     1      77.427  63.444 107.485  0.00  0.00    +0.000 C 
ATOM      8  C10 UNL     1      76.122  63.488 107.760  0.00  0.00    +0.000 C 
ATOM      9  C11 UNL     1      75.240  62.398 107.308  0.00  0.00    +0.000 C 
ATOM     10  C12 UNL     1      73.939  62.276 107.634  0.00  0.00    +0.000 C 
ATOM     11  C30 UNL     1      73.142  61.231 106.955  0.00  0.00    +0.000 C 
ATOM     12  O10 UNL     1      72.058  60.815 107.452  0.00  0.00    +0.000 OA
ATOM     13  O11 UNL     1      73.598  60.735 105.734  0.00  0.00    +0.000 OA
ATOM     14  C31 UNL     1      72.897  59.820 104.888  0.00  0.00    +0.000 C 
ATOM     15  C32 UNL     1      73.262  60.093 103.399  0.00  0.00    +0.000 C 
ATOM     16  C33 UNL     1      74.564  60.858 103.266  0.00  0.00    +0.000 C 
ATOM     17  C34 UNL     1      74.665  62.141 102.861  0.00  0.00    +0.000 C 
ATOM     18  C35 UNL     1      73.463  62.942 102.432  0.00  0.00    +0.000 C 
ATOM     19  C36 UNL     1      75.936  62.883 103.041  0.00  0.00    +0.000 C 
ATOM     20  C37 UNL     1      77.134  62.531 102.523  0.00  0.00    +0.000 C 
ATOM     21  C38 UNL     1      77.240  61.355 101.572  0.00  0.00    +0.000 C 
ATOM     22  C39 UNL     1      78.333  63.451 102.794  0.00  0.00    +0.000 C 
ENDROOT
BRANCH   1  24
ATOM     23  C1  UNL     1      80.806  62.666 105.582  0.00  0.00    +0.000 C 
ATOM     24  C2  UNL     1      79.554  62.281 104.789  0.00  0.00    +0.000 C 
ENDBRANCH   1  24
BRANCH   5  25
ATOM     25  O1  UNL     1      76.943  65.606 105.834  0.00  0.00    +0.000 OA
ATOM     26  H12 UNL     1      76.983  64.783 105.277  0.00  0.00    +0.000 HD
ENDBRANCH   5  25
BRANCH  14  27
ATOM     27  C51 UNL     1      73.173  58.360 105.337  0.00  0.00    +0.000 C 
ATOM     28  C52 UNL     1      74.645  58.109 105.684  0.00  0.00    +0.000 C 
BRANCH  27  29
ATOM     29  O18 UNL     1      72.775  57.458 104.335  0.00  0.00    +0.000 OA
ATOM     30  H74 UNL     1      72.240  57.980 103.681  0.00  0.00    +0.000 HD
ENDBRANCH  27  29
ENDBRANCH  14  27
BRANCH  10  31
ATOM     31  C13 UNL     1      73.296  63.133 108.703  0.00  0.00    +0.000 C 
BRANCH  31  32
ATOM     32  O2  UNL     1      72.543  64.160 108.077  0.00  0.00    +0.000 OA
BRANCH  32  33
ATOM     33  C14 UNL     1      73.047  65.455 108.365  0.00  0.00    +0.000 C 
ATOM     34  O3  UNL     1      73.623  66.016 107.189  0.00  0.00    +0.000 OA
ATOM     35  C15 UNL     1      72.651  66.222 106.171  0.00  0.00    +0.000 C 
ATOM     36  C16 UNL     1      73.369  66.669 104.896  0.00  0.00    +0.000 C 
ATOM     37  C17 UNL     1      71.611  67.275 106.618  0.00  0.00    +0.000 C 
ATOM     38  C27 UNL     1      70.915  66.713 107.877  0.00  0.00    +0.000 C 
ATOM     39  C28 UNL     1      71.960  66.386 108.965  0.00  0.00    +0.000 C 
BRANCH  38  40
ATOM     40  O8  UNL     1      69.895  67.561 108.340  0.00  0.00    +0.000 OA
ATOM     41  H34 UNL     1      70.305  68.398 108.680  0.00  0.00    +0.000 HD
ENDBRANCH  38  40
BRANCH  39  42
ATOM     42  O9  UNL     1      72.584  67.584 109.405  0.00  0.00    +0.000 OA
ATOM     43  C29 UNL     1      73.592  67.317 110.354  0.00  0.00    +0.000 C 
ENDBRANCH  39  42
BRANCH  37  44
ATOM     44  O4  UNL     1      72.289  68.503 106.910  0.00  0.00    +0.000 OA
BRANCH  44  45
ATOM     45  C18 UNL     1      71.784  69.777 106.636  0.00  0.00    +0.000 C 
ATOM     46  O5  UNL     1      71.730  70.656 107.540  0.00  0.00    +0.000 OA
BRANCH  45  47
ATOM     47  C19 UNL     1      71.375  70.111 105.254  0.00  0.00    +0.000 A 
ATOM     48  C20 UNL     1      70.007  70.205 104.883  0.00  0.00    +0.000 A 
ATOM     49  C23 UNL     1      69.675  70.489 103.537  0.00  0.00    +0.000 A 
ATOM     50  C24 UNL     1      70.692  70.647 102.576  0.00  0.00    +0.000 A 
ATOM     51  C25 UNL     1      72.037  70.555 102.952  0.00  0.00    +0.000 A 
ATOM     52  C26 UNL     1      72.383  70.292 104.287  0.00  0.00    +0.000 A 
ATOM     53 CL1  UNL     1      73.283  70.759 101.718  0.00  0.00    +0.000 Cl
ATOM     54 CL2  UNL     1      67.988  70.666 103.044  0.00  0.00    +0.000 Cl
BRANCH  48  55
ATOM     55  C21 UNL     1      68.912  70.125 105.933  0.00  0.00    +0.000 C 
ATOM     56  C22 UNL     1      68.503  71.522 106.399  0.00  0.00    +0.000 C 
ENDBRANCH  48  55
BRANCH  50  57
ATOM     57  O6  UNL     1      70.394  70.907 101.236  0.00  0.00    +0.000 OA
ATOM     58  H31 UNL     1      71.094  70.938 100.505  0.00  0.00    +0.000 HD
ENDBRANCH  50  57
BRANCH  52  59
ATOM     59  O7  UNL     1      73.723  70.196 104.674  0.00  0.00    +0.000 OA
ATOM     60  H32 UNL     1      74.388  69.580 104.227  0.00  0.00    +0.000 HD
ENDBRANCH  52  59
ENDBRANCH  45  47
ENDBRANCH  44  45
ENDBRANCH  37  44
ENDBRANCH  32  33
ENDBRANCH  31  32
ENDBRANCH  10  31
BRANCH  22  61
ATOM     61  O12 UNL     1      79.486  63.043 102.069  0.00  0.00    +0.000 OA
BRANCH  61  62
ATOM     62  C40 UNL     1      79.966  64.011 101.154  0.00  0.00    +0.000 C 
ATOM     63  O13 UNL     1      79.014  65.067 101.095  0.00  0.00    +0.000 OA
ATOM     64  C41 UNL     1      78.641  65.591  99.825  0.00  0.00    +0.000 C 
ATOM     65  C42 UNL     1      78.206  67.043 100.110  0.00  0.00    +0.000 C 
ATOM     66  C43 UNL     1      77.397  64.834  99.292  0.00  0.00    +0.000 C 
ATOM     67  C44 UNL     1      79.808  65.601  98.787  0.00  0.00    +0.000 C 
ATOM     68  C49 UNL     1      80.554  64.247  98.677  0.00  0.00    +0.000 C 
ATOM     69  C50 UNL     1      80.255  63.278  99.832  0.00  0.00    +0.000 C 
BRANCH  68  70
ATOM     70  O16 UNL     1      81.942  64.477  98.618  0.00  0.00    +0.000 OA
ATOM     71  H67 UNL     1      82.328  64.123  99.464  0.00  0.00    +0.000 HD
ENDBRANCH  68  70
BRANCH  69  72
ATOM     72  O17 UNL     1      79.193  62.421  99.489  0.00  0.00    +0.000 OA
ATOM     73  H69 UNL     1      78.724  62.180 100.333  0.00  0.00    +0.000 HD
ENDBRANCH  69  72
BRANCH  67  74
ATOM     74  O14 UNL     1      79.315  65.932  97.483  0.00  0.00    +0.000 OA
BRANCH  74  75
ATOM     75  C45 UNL     1      80.104  66.200  96.358  0.00  0.00    +0.000 C 
ATOM     76  O15 UNL     1      81.280  66.645  96.484  0.00  0.00    +0.000 OA
BRANCH  75  77
ATOM     77  C46 UNL     1      79.497  66.006  94.994  0.00  0.00    +0.000 C 
ATOM     78  C47 UNL     1      80.502  65.427  93.991  0.00  0.00    +0.000 C 
ATOM     79  C48 UNL     1      78.923  67.332  94.486  0.00  0.00    +0.000 C 
ENDBRANCH  75  77
ENDBRANCH  74  75
ENDBRANCH  67  74
ENDBRANCH  61  62
ENDBRANCH  22  61
TORSDOF 22
ENDMDL
MODEL 6
REMARK VINA RESULT:      -8.4      5.533      9.807
REMARK  Name = ./S4227.pdb
REMARK  34 active torsions:
REMARK  status: ('A' for Active; 'I' for Inactive)
REMARK    1  A    between atoms: C1_1  and  C2_2
REMARK    2  A    between atoms: C2_2  and  C3_3
REMARK    3  A    between atoms: C5_5  and  C6_6
REMARK    4  A    between atoms: C7_7  and  O1_8
REMARK    5  A    between atoms: C12_13  and  C13_14
REMARK    6  A    between atoms: C13_14  and  O2_15
REMARK    7  A    between atoms: O2_15  and  C14_16
REMARK    8  A    between atoms: C15_18  and  C16_19
REMARK    9  A    between atoms: C17_20  and  O4_21
REMARK   10  A    between atoms: O4_21  and  C18_22
REMARK   11  A    between atoms: C18_22  and  C19_24
REMARK   12  A    between atoms: C20_25  and  C21_26
REMARK   13  A    between atoms: C21_26  and  C22_27
REMARK   14  A    between atoms: C24_29  and  O6_30
REMARK   15  A    between atoms: C26_32  and  O7_33
REMARK   16  A    between atoms: C27_36  and  O8_37
REMARK   17  A    between atoms: C28_38  and  O9_39
REMARK   18  A    between atoms: O9_39  and  C29_40
REMARK   19  A    between atoms: C31_44  and  C51_70
REMARK   20  A    between atoms: C34_47  and  C35_48
REMARK   21  A    between atoms: C37_50  and  C38_51
REMARK   22  A    between atoms: C39_52  and  O12_53
REMARK   23  A    between atoms: O12_53  and  C40_54
REMARK   24  A    between atoms: C41_56  and  C42_57
REMARK   25  A    between atoms: C41_56  and  C43_58
REMARK   26  A    between atoms: C44_59  and  O14_60
REMARK   27  A    between atoms: O14_60  and  C45_61
REMARK   28  A    between atoms: C45_61  and  C46_63
REMARK   29  A    between atoms: C46_63  and  C47_64
REMARK   30  A    between atoms: C46_63  and  C48_65
REMARK   31  A    between atoms: C49_66  and  O16_67
REMARK   32  A    between atoms: C50_68  and  O17_69
REMARK   33  A    between atoms: C51_70  and  C52_71
REMARK   34  A    between atoms: C51_70  and  O18_72
REMARK                            x       y       z     vdW  Elec       q    Type
REMARK                         _______ _______ _______ _____ _____    ______ ____
ROOT
ATOM      1  C3  UNL     1      75.988  61.057 101.660  0.00  0.00    +0.000 C 
ATOM      2  C4  UNL     1      76.672  62.014 100.703  0.00  0.00    +0.000 C 
ATOM      3  C5  UNL     1      77.123  63.269 100.965  0.00  0.00    +0.000 C 
ATOM      4  C6  UNL     1      77.783  63.999  99.820  0.00  0.00    +0.000 C 
ATOM      5  C7  UNL     1      76.974  63.999 102.301  0.00  0.00    +0.000 C 
ATOM      6  C8  UNL     1      77.939  63.455 103.396  0.00  0.00    +0.000 C 
ATOM      7  C9  UNL     1      77.262  62.604 104.436  0.00  0.00    +0.000 C 
ATOM      8  C10 UNL     1      76.511  63.125 105.408  0.00  0.00    +0.000 C 
ATOM      9  C11 UNL     1      75.638  62.250 106.210  0.00  0.00    +0.000 C 
ATOM     10  C12 UNL     1      74.936  62.645 107.289  0.00  0.00    +0.000 C 
ATOM     11  C30 UNL     1      73.964  61.697 107.877  0.00  0.00    +0.000 C 
ATOM     12  O10 UNL     1      73.556  61.838 109.064  0.00  0.00    +0.000 OA
ATOM     13  O11 UNL     1      73.481  60.660 107.079  0.00  0.00    +0.000 OA
ATOM     14  C31 UNL     1      72.453  59.734 107.443  0.00  0.00    +0.000 C 
ATOM     15  C32 UNL     1      71.667  59.294 106.172  0.00  0.00    +0.000 C 
ATOM     16  C33 UNL     1      72.460  59.537 104.903  0.00  0.00    +0.000 C 
ATOM     17  C34 UNL     1      72.166  60.476 103.980  0.00  0.00    +0.000 C 
ATOM     18  C35 UNL     1      70.951  61.359 104.096  0.00  0.00    +0.000 C 
ATOM     19  C36 UNL     1      73.155  60.828 102.932  0.00  0.00    +0.000 C 
ATOM     20  C37 UNL     1      73.682  59.975 102.027  0.00  0.00    +0.000 C 
ATOM     21  C38 UNL     1      73.180  58.547 101.940  0.00  0.00    +0.000 C 
ATOM     22  C39 UNL     1      74.669  60.539 100.996  0.00  0.00    +0.000 C 
ENDROOT
BRANCH   1  24
ATOM     23  C1  UNL     1      76.792  59.298 103.378  0.00  0.00    +0.000 C 
ATOM     24  C2  UNL     1      77.006  59.931 102.000  0.00  0.00    +0.000 C 
ENDBRANCH   1  24
BRANCH   5  25
ATOM     25  O1  UNL     1      75.627  64.001 102.703  0.00  0.00    +0.000 OA
ATOM     26  H12 UNL     1      75.595  64.379 103.622  0.00  0.00    +0.000 HD
ENDBRANCH   5  25
BRANCH  14  27
ATOM     27  C51 UNL     1      73.060  58.548 108.239  0.00  0.00    +0.000 C 
ATOM     28  C52 UNL     1      73.082  58.792 109.752  0.00  0.00    +0.000 C 
BRANCH  27  29
ATOM     29  O18 UNL     1      74.367  58.282 107.796  0.00  0.00    +0.000 OA
ATOM     30  H74 UNL     1      74.299  58.068 106.828  0.00  0.00    +0.000 HD
ENDBRANCH  27  29
ENDBRANCH  14  27
BRANCH  10  31
ATOM     31  C13 UNL     1      75.155  63.994 107.940  0.00  0.00    +0.000 C 
BRANCH  31  32
ATOM     32  O2  UNL     1      73.898  64.531 108.318  0.00  0.00    +0.000 OA
BRANCH  32  33
ATOM     33  C14 UNL     1      73.249  65.201 107.249  0.00  0.00    +0.000 C 
ATOM     34  O3  UNL     1      71.930  65.566 107.643  0.00  0.00    +0.000 OA
ATOM     35  C15 UNL     1      71.938  66.506 108.709  0.00  0.00    +0.000 C 
ATOM     36  C16 UNL     1      70.498  66.722 109.180  0.00  0.00    +0.000 C 
ATOM     37  C17 UNL     1      72.575  67.839 108.254  0.00  0.00    +0.000 C 
ATOM     38  C27 UNL     1      74.031  67.526 107.845  0.00  0.00    +0.000 C 
ATOM     39  C28 UNL     1      74.056  66.432 106.755  0.00  0.00    +0.000 C 
BRANCH  38  40
ATOM     40  O8  UNL     1      74.737  68.681 107.471  0.00  0.00    +0.000 OA
ATOM     41  H34 UNL     1      75.606  68.692 107.949  0.00  0.00    +0.000 HD
ENDBRANCH  38  40
BRANCH  39  42
ATOM     42  O9  UNL     1      73.449  66.923 105.569  0.00  0.00    +0.000 OA
ATOM     43  C29 UNL     1      73.563  65.996 104.513  0.00  0.00    +0.000 C 
ENDBRANCH  39  42
BRANCH  37  44
ATOM     44  O4  UNL     1      71.830  68.355 107.144  0.00  0.00    +0.000 OA
BRANCH  44  45
ATOM     45  C18 UNL     1      71.791  69.701 106.767  0.00  0.00    +0.000 C 
ATOM     46  O5  UNL     1      72.148  70.605 107.573  0.00  0.00    +0.000 OA
BRANCH  45  47
ATOM     47  C19 UNL     1      71.390  70.055 105.388  0.00  0.00    +0.000 A 
ATOM     48  C20 UNL     1      70.028  70.236 105.030  0.00  0.00    +0.000 A 
ATOM     49  C23 UNL     1      69.702  70.535 103.686  0.00  0.00    +0.000 A 
ATOM     50  C24 UNL     1      70.718  70.623 102.714  0.00  0.00    +0.000 A 
ATOM     51  C25 UNL     1      72.057  70.445 103.078  0.00  0.00    +0.000 A 
ATOM     52  C26 UNL     1      72.399  70.165 104.411  0.00  0.00    +0.000 A 
ATOM     53 CL1  UNL     1      73.302  70.562 101.831  0.00  0.00    +0.000 Cl
ATOM     54 CL2  UNL     1      68.025  70.819 103.208  0.00  0.00    +0.000 Cl
BRANCH  48  55
ATOM     55  C21 UNL     1      68.940  70.232 106.091  0.00  0.00    +0.000 C 
ATOM     56  C22 UNL     1      68.649  71.652 106.575  0.00  0.00    +0.000 C 
ENDBRANCH  48  55
BRANCH  50  57
ATOM     57  O6  UNL     1      70.424  70.895 101.375  0.00  0.00    +0.000 OA
ATOM     58  H31 UNL     1      69.503  71.164 101.050  0.00  0.00    +0.000 HD
ENDBRANCH  50  57
BRANCH  52  59
ATOM     59  O7  UNL     1      73.733  69.984 104.785  0.00  0.00    +0.000 OA
ATOM     60  H32 UNL     1      74.516  70.244 104.199  0.00  0.00    +0.000 HD
ENDBRANCH  52  59
ENDBRANCH  45  47
ENDBRANCH  44  45
ENDBRANCH  37  44
ENDBRANCH  32  33
ENDBRANCH  31  32
ENDBRANCH  10  31
BRANCH  22  61
ATOM     61  O12 UNL     1      75.024  59.569 100.018  0.00  0.00    +0.000 OA
BRANCH  61  62
ATOM     62  C40 UNL     1      74.418  59.772  98.756  0.00  0.00    +0.000 C 
ATOM     63  O13 UNL     1      73.442  60.797  98.899  0.00  0.00    +0.000 OA
ATOM     64  C41 UNL     1      72.160  60.618  98.306  0.00  0.00    +0.000 C 
ATOM     65  C42 UNL     1      71.645  62.048  98.042  0.00  0.00    +0.000 C 
ATOM     66  C43 UNL     1      71.196  59.964  99.331  0.00  0.00    +0.000 C 
ATOM     67  C44 UNL     1      72.200  59.831  96.957  0.00  0.00    +0.000 C 
ATOM     68  C49 UNL     1      73.011  58.513  97.030  0.00  0.00    +0.000 C 
ATOM     69  C50 UNL     1      73.904  58.402  98.277  0.00  0.00    +0.000 C 
BRANCH  68  70
ATOM     70  O16 UNL     1      73.812  58.388  95.880  0.00  0.00    +0.000 OA
ATOM     71  H67 UNL     1      73.239  57.988  95.172  0.00  0.00    +0.000 HD
ENDBRANCH  68  70
BRANCH  69  72
ATOM     72  O17 UNL     1      73.222  57.732  99.309  0.00  0.00    +0.000 OA
ATOM     73  H69 UNL     1      73.166  58.357 100.081  0.00  0.00    +0.000 HD
ENDBRANCH  69  72
BRANCH  67  74
ATOM     74  O14 UNL     1      70.872  59.501  96.532  0.00  0.00    +0.000 OA
BRANCH  74  75
ATOM     75  C45 UNL     1      70.178  60.118  95.484  0.00  0.00    +0.000 C 
ATOM     76  O15 UNL     1      70.784  60.506  94.446  0.00  0.00    +0.000 OA
BRANCH  75  77
ATOM     77  C46 UNL     1      68.701  60.363  95.650  0.00  0.00    +0.000 C 
ATOM     78  C47 UNL     1      68.368  60.988  97.010  0.00  0.00    +0.000 C 
ATOM     79  C48 UNL     1      67.930  59.055  95.449  0.00  0.00    +0.000 C 
ENDBRANCH  75  77
ENDBRANCH  74  75
ENDBRANCH  67  74
ENDBRANCH  61  62
ENDBRANCH  22  61
TORSDOF 22
ENDMDL
MODEL 7
REMARK VINA RESULT:      -8.4      4.659      7.119
REMARK  Name = ./S4227.pdb
REMARK  34 active torsions:
REMARK  status: ('A' for Active; 'I' for Inactive)
REMARK    1  A    between atoms: C1_1  and  C2_2
REMARK    2  A    between atoms: C2_2  and  C3_3
REMARK    3  A    between atoms: C5_5  and  C6_6
REMARK    4  A    between atoms: C7_7  and  O1_8
REMARK    5  A    between atoms: C12_13  and  C13_14
REMARK    6  A    between atoms: C13_14  and  O2_15
REMARK    7  A    between atoms: O2_15  and  C14_16
REMARK    8  A    between atoms: C15_18  and  C16_19
REMARK    9  A    between atoms: C17_20  and  O4_21
REMARK   10  A    between atoms: O4_21  and  C18_22
REMARK   11  A    between atoms: C18_22  and  C19_24
REMARK   12  A    between atoms: C20_25  and  C21_26
REMARK   13  A    between atoms: C21_26  and  C22_27
REMARK   14  A    between atoms: C24_29  and  O6_30
REMARK   15  A    between atoms: C26_32  and  O7_33
REMARK   16  A    between atoms: C27_36  and  O8_37
REMARK   17  A    between atoms: C28_38  and  O9_39
REMARK   18  A    between atoms: O9_39  and  C29_40
REMARK   19  A    between atoms: C31_44  and  C51_70
REMARK   20  A    between atoms: C34_47  and  C35_48
REMARK   21  A    between atoms: C37_50  and  C38_51
REMARK   22  A    between atoms: C39_52  and  O12_53
REMARK   23  A    between atoms: O12_53  and  C40_54
REMARK   24  A    between atoms: C41_56  and  C42_57
REMARK   25  A    between atoms: C41_56  and  C43_58
REMARK   26  A    between atoms: C44_59  and  O14_60
REMARK   27  A    between atoms: O14_60  and  C45_61
REMARK   28  A    between atoms: C45_61  and  C46_63
REMARK   29  A    between atoms: C46_63  and  C47_64
REMARK   30  A    between atoms: C46_63  and  C48_65
REMARK   31  A    between atoms: C49_66  and  O16_67
REMARK   32  A    between atoms: C50_68  and  O17_69
REMARK   33  A    between atoms: C51_70  and  C52_71
REMARK   34  A    between atoms: C51_70  and  O18_72
REMARK                            x       y       z     vdW  Elec       q    Type
REMARK                         _______ _______ _______ _____ _____    ______ ____
ROOT
ATOM      1  C3  UNL     1      72.510  60.448 104.810  0.00  0.00    +0.000 C 
ATOM      2  C4  UNL     1      73.226  59.236 104.245  0.00  0.00    +0.000 C 
ATOM      3  C5  UNL     1      74.449  58.758 104.594  0.00  0.00    +0.000 C 
ATOM      4  C6  UNL     1      74.916  57.516 103.874  0.00  0.00    +0.000 C 
ATOM      5  C7  UNL     1      75.389  59.401 105.616  0.00  0.00    +0.000 C 
ATOM      6  C8  UNL     1      74.918  59.187 107.086  0.00  0.00    +0.000 C 
ATOM      7  C9  UNL     1      74.318  60.414 107.717  0.00  0.00    +0.000 C 
ATOM      8  C10 UNL     1      75.063  61.436 108.142  0.00  0.00    +0.000 C 
ATOM      9  C11 UNL     1      74.423  62.722 108.472  0.00  0.00    +0.000 C 
ATOM     10  C12 UNL     1      75.055  63.775 109.025  0.00  0.00    +0.000 C 
ATOM     11  C30 UNL     1      74.322  65.057 109.126  0.00  0.00    +0.000 C 
ATOM     12  O10 UNL     1      74.689  65.952 109.938  0.00  0.00    +0.000 OA
ATOM     13  O11 UNL     1      73.234  65.269 108.280  0.00  0.00    +0.000 OA
ATOM     14  C31 UNL     1      72.494  66.487 108.159  0.00  0.00    +0.000 C 
ATOM     15  C32 UNL     1      71.951  66.631 106.706  0.00  0.00    +0.000 C 
ATOM     16  C33 UNL     1      71.906  65.299 105.983  0.00  0.00    +0.000 C 
ATOM     17  C34 UNL     1      72.718  64.949 104.964  0.00  0.00    +0.000 C 
ATOM     18  C35 UNL     1      73.736  65.899 104.389  0.00  0.00    +0.000 C 
ATOM     19  C36 UNL     1      72.793  63.536 104.521  0.00  0.00    +0.000 C 
ATOM     20  C37 UNL     1      71.757  62.795 104.069  0.00  0.00    +0.000 C 
ATOM     21  C38 UNL     1      70.397  63.431 103.860  0.00  0.00    +0.000 C 
ATOM     22  C39 UNL     1      72.043  61.354 103.623  0.00  0.00    +0.000 C 
ENDROOT
BRANCH   1  24
ATOM     23  C1  UNL     1      71.514  58.476 106.156  0.00  0.00    +0.000 C 
ATOM     24  C2  UNL     1      71.345  59.928 105.701  0.00  0.00    +0.000 C 
ENDBRANCH   1  24
BRANCH   5  25
ATOM     25  O1  UNL     1      75.602  60.752 105.294  0.00  0.00    +0.000 OA
ATOM     26  H12 UNL     1      74.738  61.114 104.957  0.00  0.00    +0.000 HD
ENDBRANCH   5  25
BRANCH  14  27
ATOM     27  C51 UNL     1      71.386  66.549 109.244  0.00  0.00    +0.000 C 
ATOM     28  C52 UNL     1      70.302  67.587 108.933  0.00  0.00    +0.000 C 
BRANCH  27  29
ATOM     29  O18 UNL     1      71.949  66.832 110.500  0.00  0.00    +0.000 OA
ATOM     30  H74 UNL     1      71.918  67.819 110.607  0.00  0.00    +0.000 HD
ENDBRANCH  27  29
ENDBRANCH  14  27
BRANCH  10  31
ATOM     31  C13 UNL     1      76.456  63.667 109.587  0.00  0.00    +0.000 C 
BRANCH  31  32
ATOM     32  O2  UNL     1      77.320  64.502 108.832  0.00  0.00    +0.000 OA
BRANCH  32  33
ATOM     33  C14 UNL     1      78.245  63.762 108.050  0.00  0.00    +0.000 C 
ATOM     34  O3  UNL     1      77.603  63.293 106.868  0.00  0.00    +0.000 OA
ATOM     35  C15 UNL     1      77.192  64.365 106.029  0.00  0.00    +0.000 C 
ATOM     36  C16 UNL     1      76.373  63.790 104.870  0.00  0.00    +0.000 C 
ATOM     37  C17 UNL     1      78.419  65.146 105.504  0.00  0.00    +0.000 C 
ATOM     38  C27 UNL     1      79.148  65.720 106.738  0.00  0.00    +0.000 C 
ATOM     39  C28 UNL     1      79.518  64.585 107.717  0.00  0.00    +0.000 C 
BRANCH  38  40
ATOM     40  O8  UNL     1      80.251  66.511 106.380  0.00  0.00    +0.000 OA
ATOM     41  H34 UNL     1      79.934  67.429 106.177  0.00  0.00    +0.000 HD
ENDBRANCH  38  40
BRANCH  39  42
ATOM     42  O9  UNL     1      80.468  63.721 107.111  0.00  0.00    +0.000 OA
ATOM     43  C29 UNL     1      80.890  62.716 108.004  0.00  0.00    +0.000 C 
ENDBRANCH  39  42
BRANCH  37  44
ATOM     44  O4  UNL     1      79.266  64.246 104.779  0.00  0.00    +0.000 OA
BRANCH  44  45
ATOM     45  C18 UNL     1      79.185  64.009 103.404  0.00  0.00    +0.000 C 
ATOM     46  O5  UNL     1      79.557  64.888 102.577  0.00  0.00    +0.000 OA
BRANCH  45  47
ATOM     47  C19 UNL     1      78.723  62.689 102.923  0.00  0.00    +0.000 A 
ATOM     48  C20 UNL     1      77.891  62.561 101.780  0.00  0.00    +0.000 A 
ATOM     49  C23 UNL     1      77.447  61.275 101.389  0.00  0.00    +0.000 A 
ATOM     50  C24 UNL     1      77.806  60.143 102.147  0.00  0.00    +0.000 A 
ATOM     51  C25 UNL     1      78.629  60.279 103.271  0.00  0.00    +0.000 A 
ATOM     52  C26 UNL     1      79.092  61.546 103.660  0.00  0.00    +0.000 A 
ATOM     53 CL1  UNL     1      79.056  58.837 104.195  0.00  0.00    +0.000 Cl
ATOM     54 CL2  UNL     1      76.454  61.065  99.944  0.00  0.00    +0.000 Cl
BRANCH  48  55
ATOM     55  C21 UNL     1      77.577  63.766 100.910  0.00  0.00    +0.000 C 
ATOM     56  C22 UNL     1      76.205  64.343 101.255  0.00  0.00    +0.000 C 
ENDBRANCH  48  55
BRANCH  50  57
ATOM     57  O6  UNL     1      77.365  58.864 101.799  0.00  0.00    +0.000 OA
ATOM     58  H31 UNL     1      76.388  58.604 101.754  0.00  0.00    +0.000 HD
ENDBRANCH  50  57
BRANCH  52  59
ATOM     59  O7  UNL     1      79.912  61.695 104.782  0.00  0.00    +0.000 OA
ATOM     60  H32 UNL     1      79.585  62.064 105.665  0.00  0.00    +0.000 HD
ENDBRANCH  52  59
ENDBRANCH  45  47
ENDBRANCH  44  45
ENDBRANCH  37  44
ENDBRANCH  32  33
ENDBRANCH  31  32
ENDBRANCH  10  31
BRANCH  22  61
ATOM     61  O12 UNL     1      70.900  60.747 103.033  0.00  0.00    +0.000 OA
BRANCH  61  62
ATOM     62  C40 UNL     1      70.599  61.224 101.734  0.00  0.00    +0.000 C 
ATOM     63  O13 UNL     1      69.309  60.740 101.380  0.00  0.00    +0.000 OA
ATOM     64  C41 UNL     1      69.108  60.195 100.079  0.00  0.00    +0.000 C 
ATOM     65  C42 UNL     1      67.609  60.415  99.787  0.00  0.00    +0.000 C 
ATOM     66  C43 UNL     1      69.351  58.663 100.111  0.00  0.00    +0.000 C 
ATOM     67  C44 UNL     1      69.955  60.899  98.971  0.00  0.00    +0.000 C 
ATOM     68  C49 UNL     1      71.455  61.042  99.331  0.00  0.00    +0.000 C 
ATOM     69  C50 UNL     1      71.761  60.802 100.818  0.00  0.00    +0.000 C 
BRANCH  68  70
ATOM     70  O16 UNL     1      71.906  62.327  98.972  0.00  0.00    +0.000 OA
ATOM     71  H67 UNL     1      72.624  62.570  99.616  0.00  0.00    +0.000 HD
ENDBRANCH  68  70
BRANCH  69  72
ATOM     72  O17 UNL     1      72.109  59.455 101.034  0.00  0.00    +0.000 OA
ATOM     73  H69 UNL     1      71.286  58.982 101.335  0.00  0.00    +0.000 HD
ENDBRANCH  69  72
BRANCH  67  74
ATOM     74  O14 UNL     1      69.871  60.169  97.741  0.00  0.00    +0.000 OA
BRANCH  74  75
ATOM     75  C45 UNL     1      69.832  60.735  96.461  0.00  0.00    +0.000 C 
ATOM     76  O15 UNL     1      70.146  61.945  96.278  0.00  0.00    +0.000 OA
BRANCH  75  77
ATOM     77  C46 UNL     1      69.346  59.886  95.316  0.00  0.00    +0.000 C 
ATOM     78  C47 UNL     1      70.212  60.054  94.063  0.00  0.00    +0.000 C 
ATOM     79  C48 UNL     1      67.880  60.211  95.012  0.00  0.00    +0.000 C 
ENDBRANCH  75  77
ENDBRANCH  74  75
ENDBRANCH  67  74
ENDBRANCH  61  62
ENDBRANCH  22  61
TORSDOF 22
ENDMDL
MODEL 8
REMARK VINA RESULT:      -8.4      2.937      4.228
REMARK  Name = ./S4227.pdb
REMARK  34 active torsions:
REMARK  status: ('A' for Active; 'I' for Inactive)
REMARK    1  A    between atoms: C1_1  and  C2_2
REMARK    2  A    between atoms: C2_2  and  C3_3
REMARK    3  A    between atoms: C5_5  and  C6_6
REMARK    4  A    between atoms: C7_7  and  O1_8
REMARK    5  A    between atoms: C12_13  and  C13_14
REMARK    6  A    between atoms: C13_14  and  O2_15
REMARK    7  A    between atoms: O2_15  and  C14_16
REMARK    8  A    between atoms: C15_18  and  C16_19
REMARK    9  A    between atoms: C17_20  and  O4_21
REMARK   10  A    between atoms: O4_21  and  C18_22
REMARK   11  A    between atoms: C18_22  and  C19_24
REMARK   12  A    between atoms: C20_25  and  C21_26
REMARK   13  A    between atoms: C21_26  and  C22_27
REMARK   14  A    between atoms: C24_29  and  O6_30
REMARK   15  A    between atoms: C26_32  and  O7_33
REMARK   16  A    between atoms: C27_36  and  O8_37
REMARK   17  A    between atoms: C28_38  and  O9_39
REMARK   18  A    between atoms: O9_39  and  C29_40
REMARK   19  A    between atoms: C31_44  and  C51_70
REMARK   20  A    between atoms: C34_47  and  C35_48
REMARK   21  A    between atoms: C37_50  and  C38_51
REMARK   22  A    between atoms: C39_52  and  O12_53
REMARK   23  A    between atoms: O12_53  and  C40_54
REMARK   24  A    between atoms: C41_56  and  C42_57
REMARK   25  A    between atoms: C41_56  and  C43_58
REMARK   26  A    between atoms: C44_59  and  O14_60
REMARK   27  A    between atoms: O14_60  and  C45_61
REMARK   28  A    between atoms: C45_61  and  C46_63
REMARK   29  A    between atoms: C46_63  and  C47_64
REMARK   30  A    between atoms: C46_63  and  C48_65
REMARK   31  A    between atoms: C49_66  and  O16_67
REMARK   32  A    between atoms: C50_68  and  O17_69
REMARK   33  A    between atoms: C51_70  and  C52_71
REMARK   34  A    between atoms: C51_70  and  O18_72
REMARK                            x       y       z     vdW  Elec       q    Type
REMARK                         _______ _______ _______ _____ _____    ______ ____
ROOT
ATOM      1  C3  UNL     1      72.339  60.200 105.219  0.00  0.00    +0.000 C 
ATOM      2  C4  UNL     1      72.959  58.913 104.710  0.00  0.00    +0.000 C 
ATOM      3  C5  UNL     1      74.078  58.292 105.170  0.00  0.00    +0.000 C 
ATOM      4  C6  UNL     1      74.463  57.006 104.482  0.00  0.00    +0.000 C 
ATOM      5  C7  UNL     1      74.981  58.819 106.287  0.00  0.00    +0.000 C 
ATOM      6  C8  UNL     1      74.347  58.660 107.701  0.00  0.00    +0.000 C 
ATOM      7  C9  UNL     1      73.836  59.948 108.287  0.00  0.00    +0.000 C 
ATOM      8  C10 UNL     1      74.651  60.875 108.795  0.00  0.00    +0.000 C 
ATOM      9  C11 UNL     1      74.138  62.227 109.078  0.00  0.00    +0.000 C 
ATOM     10  C12 UNL     1      74.832  63.198 109.703  0.00  0.00    +0.000 C 
ATOM     11  C30 UNL     1      74.249  64.557 109.749  0.00  0.00    +0.000 C 
ATOM     12  O10 UNL     1      74.637  65.401 110.604  0.00  0.00    +0.000 OA
ATOM     13  O11 UNL     1      73.281  64.897 108.804  0.00  0.00    +0.000 OA
ATOM     14  C31 UNL     1      72.704  66.194 108.627  0.00  0.00    +0.000 C 
ATOM     15  C32 UNL     1      72.328  66.403 107.131  0.00  0.00    +0.000 C 
ATOM     16  C33 UNL     1      72.197  65.087 106.390  0.00  0.00    +0.000 C 
ATOM     17  C34 UNL     1      73.059  64.644 105.450  0.00  0.00    +0.000 C 
ATOM     18  C35 UNL     1      74.233  65.468 104.989  0.00  0.00    +0.000 C 
ATOM     19  C36 UNL     1      73.010  63.233 104.998  0.00  0.00    +0.000 C 
ATOM     20  C37 UNL     1      71.943  62.620 104.438  0.00  0.00    +0.000 C 
ATOM     21  C38 UNL     1      70.694  63.414 104.106  0.00  0.00    +0.000 C 
ATOM     22  C39 UNL     1      72.100  61.157 104.003  0.00  0.00    +0.000 C 
ENDROOT
BRANCH   1  24
ATOM     23  C1  UNL     1      71.017  58.375 106.490  0.00  0.00    +0.000 C 
ATOM     24  C2  UNL     1      71.039  59.820 105.985  0.00  0.00    +0.000 C 
ENDBRANCH   1  24
BRANCH   5  25
ATOM     25  O1  UNL     1      75.382  60.136 106.005  0.00  0.00    +0.000 OA
ATOM     26  H12 UNL     1      74.559  60.693 105.971  0.00  0.00    +0.000 HD
ENDBRANCH   5  25
BRANCH  14  27
ATOM     27  C51 UNL     1      71.510  66.385 109.600  0.00  0.00    +0.000 C 
ATOM     28  C52 UNL     1      70.496  67.422 109.106  0.00  0.00    +0.000 C 
BRANCH  27  29
ATOM     29  O18 UNL     1      71.974  66.763 110.872  0.00  0.00    +0.000 OA
ATOM     30  H74 UNL     1      72.810  67.279 110.726  0.00  0.00    +0.000 HD
ENDBRANCH  27  29
ENDBRANCH  14  27
BRANCH  10  31
ATOM     31  C13 UNL     1      76.149  62.923 110.397  0.00  0.00    +0.000 C 
BRANCH  31  32
ATOM     32  O2  UNL     1      75.903  62.140 111.555  0.00  0.00    +0.000 OA
BRANCH  32  33
ATOM     33  C14 UNL     1      74.977  62.753 112.438  0.00  0.00    +0.000 C 
ATOM     34  O3  UNL     1      74.141  61.757 113.021  0.00  0.00    +0.000 OA
ATOM     35  C15 UNL     1      74.881  60.858 113.837  0.00  0.00    +0.000 C 
ATOM     36  C16 UNL     1      73.949  59.733 114.291  0.00  0.00    +0.000 C 
ATOM     37  C17 UNL     1      75.486  61.599 115.052  0.00  0.00    +0.000 C 
ATOM     38  C27 UNL     1      76.439  62.677 114.494  0.00  0.00    +0.000 C 
ATOM     39  C28 UNL     1      75.682  63.610 113.524  0.00  0.00    +0.000 C 
BRANCH  38  40
ATOM     40  O8  UNL     1      77.103  63.377 115.514  0.00  0.00    +0.000 OA
ATOM     41  H34 UNL     1      78.079  63.227 115.422  0.00  0.00    +0.000 HD
ENDBRANCH  38  40
BRANCH  39  42
ATOM     42  O9  UNL     1      74.694  64.340 114.235  0.00  0.00    +0.000 OA
ATOM     43  C29 UNL     1      74.904  65.729 114.124  0.00  0.00    +0.000 C 
ENDBRANCH  39  42
BRANCH  37  44
ATOM     44  O4  UNL     1      74.424  62.194 115.808  0.00  0.00    +0.000 OA
BRANCH  44  45
ATOM     45  C18 UNL     1      74.522  62.588 117.146  0.00  0.00    +0.000 C 
ATOM     46  O5  UNL     1      75.388  62.073 117.907  0.00  0.00    +0.000 OA
BRANCH  45  47
ATOM     47  C19 UNL     1      73.644  63.668 117.648  0.00  0.00    +0.000 A 
ATOM     48  C20 UNL     1      72.273  63.441 117.938  0.00  0.00    +0.000 A 
ATOM     49  C23 UNL     1      71.472  64.521 118.379  0.00  0.00    +0.000 A 
ATOM     50  C24 UNL     1      72.027  65.809 118.499  0.00  0.00    +0.000 A 
ATOM     51  C25 UNL     1      73.381  66.023 118.214  0.00  0.00    +0.000 A 
ATOM     52  C26 UNL     1      74.193  64.958 117.792  0.00  0.00    +0.000 A 
ATOM     53 CL1  UNL     1      74.040  67.653 118.375  0.00  0.00    +0.000 Cl
ATOM     54 CL2  UNL     1      69.775  64.270 118.800  0.00  0.00    +0.000 Cl
BRANCH  48  55
ATOM     55  C21 UNL     1      71.694  62.036 117.897  0.00  0.00    +0.000 C 
ATOM     56  C22 UNL     1      71.822  61.356 119.260  0.00  0.00    +0.000 C 
ENDBRANCH  48  55
BRANCH  50  57
ATOM     57  O6  UNL     1      71.256  66.899 118.911  0.00  0.00    +0.000 OA
ATOM     58  H31 UNL     1      70.393  66.806 119.432  0.00  0.00    +0.000 HD
ENDBRANCH  50  57
BRANCH  52  59
ATOM     59  O7  UNL     1      75.545  65.159 117.502  0.00  0.00    +0.000 OA
ATOM     60  H32 UNL     1      76.276  65.116 118.200  0.00  0.00    +0.000 HD
ENDBRANCH  52  59
ENDBRANCH  45  47
ENDBRANCH  44  45
ENDBRANCH  37  44
ENDBRANCH  32  33
ENDBRANCH  31  32
ENDBRANCH  10  31
BRANCH  22  61
ATOM     61  O12 UNL     1      70.957  60.690 103.297  0.00  0.00    +0.000 OA
BRANCH  61  62
ATOM     62  C40 UNL     1      70.777  61.291 102.028  0.00  0.00    +0.000 C 
ATOM     63  O13 UNL     1      69.492  60.918 101.546  0.00  0.00    +0.000 OA
ATOM     64  C41 UNL     1      69.356  60.497 100.193  0.00  0.00    +0.000 C 
ATOM     65  C42 UNL     1      67.897  60.831  99.821  0.00  0.00    +0.000 C 
ATOM     66  C43 UNL     1      69.512  58.956 100.106  0.00  0.00    +0.000 C 
ATOM     67  C44 UNL     1      70.318  61.238  99.210  0.00  0.00    +0.000 C 
ATOM     68  C49 UNL     1      71.794  61.260  99.682  0.00  0.00    +0.000 C 
ATOM     69  C50 UNL     1      71.978  60.877 101.159  0.00  0.00    +0.000 C 
BRANCH  68  70
ATOM     70  O16 UNL     1      72.338  62.540  99.468  0.00  0.00    +0.000 OA
ATOM     71  H67 UNL     1      71.693  63.035  98.894  0.00  0.00    +0.000 HD
ENDBRANCH  68  70
BRANCH  69  72
ATOM     72  O17 UNL     1      72.235  59.499 101.279  0.00  0.00    +0.000 OA
ATOM     73  H69 UNL     1      71.975  59.229 102.201  0.00  0.00    +0.000 HD
ENDBRANCH  69  72
BRANCH  67  74
ATOM     74  O14 UNL     1      70.284  60.620  97.918  0.00  0.00    +0.000 OA
BRANCH  74  75
ATOM     75  C45 UNL     1      70.336  61.296  96.692  0.00  0.00    +0.000 C 
ATOM     76  O15 UNL     1      71.024  62.347  96.561  0.00  0.00    +0.000 OA
BRANCH  75  77
ATOM     77  C46 UNL     1      69.503  60.775  95.551  0.00  0.00    +0.000 C 
ATOM     78  C47 UNL     1      68.063  60.470  95.979  0.00  0.00    +0.000 C 
ATOM     79  C48 UNL     1      70.166  59.533  94.947  0.00  0.00    +0.000 C 
ENDBRANCH  75  77
ENDBRANCH  74  75
ENDBRANCH  67  74
ENDBRANCH  61  62
ENDBRANCH  22  61
TORSDOF 22
ENDMDL
MODEL 9
REMARK VINA RESULT:      -8.3      5.961     15.289
REMARK  Name = ./S4227.pdb
REMARK  34 active torsions:
REMARK  status: ('A' for Active; 'I' for Inactive)
REMARK    1  A    between atoms: C1_1  and  C2_2
REMARK    2  A    between atoms: C2_2  and  C3_3
REMARK    3  A    between atoms: C5_5  and  C6_6
REMARK    4  A    between atoms: C7_7  and  O1_8
REMARK    5  A    between atoms: C12_13  and  C13_14
REMARK    6  A    between atoms: C13_14  and  O2_15
REMARK    7  A    between atoms: O2_15  and  C14_16
REMARK    8  A    between atoms: C15_18  and  C16_19
REMARK    9  A    between atoms: C17_20  and  O4_21
REMARK   10  A    between atoms: O4_21  and  C18_22
REMARK   11  A    between atoms: C18_22  and  C19_24
REMARK   12  A    between atoms: C20_25  and  C21_26
REMARK   13  A    between atoms: C21_26  and  C22_27
REMARK   14  A    between atoms: C24_29  and  O6_30
REMARK   15  A    between atoms: C26_32  and  O7_33
REMARK   16  A    between atoms: C27_36  and  O8_37
REMARK   17  A    between atoms: C28_38  and  O9_39
REMARK   18  A    between atoms: O9_39  and  C29_40
REMARK   19  A    between atoms: C31_44  and  C51_70
REMARK   20  A    between atoms: C34_47  and  C35_48
REMARK   21  A    between atoms: C37_50  and  C38_51
REMARK   22  A    between atoms: C39_52  and  O12_53
REMARK   23  A    between atoms: O12_53  and  C40_54
REMARK   24  A    between atoms: C41_56  and  C42_57
REMARK   25  A    between atoms: C41_56  and  C43_58
REMARK   26  A    between atoms: C44_59  and  O14_60
REMARK   27  A    between atoms: O14_60  and  C45_61
REMARK   28  A    between atoms: C45_61  and  C46_63
REMARK   29  A    between atoms: C46_63  and  C47_64
REMARK   30  A    between atoms: C46_63  and  C48_65
REMARK   31  A    between atoms: C49_66  and  O16_67
REMARK   32  A    between atoms: C50_68  and  O17_69
REMARK   33  A    between atoms: C51_70  and  C52_71
REMARK   34  A    between atoms: C51_70  and  O18_72
REMARK                            x       y       z     vdW  Elec       q    Type
REMARK                         _______ _______ _______ _____ _____    ______ ____
ROOT
ATOM      1  C3  UNL     1      75.224  63.763 113.399  0.00  0.00    +0.000 C 
ATOM      2  C4  UNL     1      75.403  64.415 114.756  0.00  0.00    +0.000 C 
ATOM      3  C5  UNL     1      75.183  65.714 115.088  0.00  0.00    +0.000 C 
ATOM      4  C6  UNL     1      75.430  66.091 116.529  0.00  0.00    +0.000 C 
ATOM      5  C7  UNL     1      74.753  66.812 114.114  0.00  0.00    +0.000 C 
ATOM      6  C8  UNL     1      73.256  66.697 113.697  0.00  0.00    +0.000 C 
ATOM      7  C9  UNL     1      73.051  66.170 112.303  0.00  0.00    +0.000 C 
ATOM      8  C10 UNL     1      73.258  66.921 111.218  0.00  0.00    +0.000 C 
ATOM      9  C11 UNL     1      73.335  66.286 109.891  0.00  0.00    +0.000 C 
ATOM     10  C12 UNL     1      73.414  66.953 108.723  0.00  0.00    +0.000 C 
ATOM     11  C30 UNL     1      73.671  66.177 107.490  0.00  0.00    +0.000 C 
ATOM     12  O10 UNL     1      73.396  66.654 106.354  0.00  0.00    +0.000 OA
ATOM     13  O11 UNL     1      74.254  64.915 107.608  0.00  0.00    +0.000 OA
ATOM     14  C31 UNL     1      74.681  64.087 106.522  0.00  0.00    +0.000 C 
ATOM     15  C32 UNL     1      75.901  63.226 106.965  0.00  0.00    +0.000 C 
ATOM     16  C33 UNL     1      75.995  63.111 108.474  0.00  0.00    +0.000 C 
ATOM     17  C34 UNL     1      76.945  63.697 109.233  0.00  0.00    +0.000 C 
ATOM     18  C35 UNL     1      78.071  64.495 108.629  0.00  0.00    +0.000 C 
ATOM     19  C36 UNL     1      76.787  63.766 110.705  0.00  0.00    +0.000 C 
ATOM     20  C37 UNL     1      76.650  62.707 111.535  0.00  0.00    +0.000 C 
ATOM     21  C38 UNL     1      76.778  61.295 110.998  0.00  0.00    +0.000 C 
ATOM     22  C39 UNL     1      76.533  62.983 113.040  0.00  0.00    +0.000 C 
ENDROOT
BRANCH   1  24
ATOM     23  C1  UNL     1      73.299  62.837 114.859  0.00  0.00    +0.000 C 
ATOM     24  C2  UNL     1      73.957  62.862 113.477  0.00  0.00    +0.000 C 
ENDBRANCH   1  24
BRANCH   5  25
ATOM     25  O1  UNL     1      75.631  66.857 113.017  0.00  0.00    +0.000 OA
ATOM     26  H12 UNL     1      76.520  66.549 113.339  0.00  0.00    +0.000 HD
ENDBRANCH   5  25
BRANCH  14  27
ATOM     27  C51 UNL     1      73.489  63.246 105.992  0.00  0.00    +0.000 C 
ATOM     28  C52 UNL     1      73.912  61.866 105.477  0.00  0.00    +0.000 C 
BRANCH  27  29
ATOM     29  O18 UNL     1      72.824  63.938 104.965  0.00  0.00    +0.000 OA
ATOM     30  H74 UNL     1      73.452  63.974 104.196  0.00  0.00    +0.000 HD
ENDBRANCH  27  29
ENDBRANCH  14  27
BRANCH  10  31
ATOM     31  C13 UNL     1      73.196  68.448 108.636  0.00  0.00    +0.000 C 
BRANCH  31  32
ATOM     32  O2  UNL     1      71.968  68.695 107.969  0.00  0.00    +0.000 OA
BRANCH  32  33
ATOM     33  C14 UNL     1      71.858  70.032 107.509  0.00  0.00    +0.000 C 
ATOM     34  O3  UNL     1      72.600  70.185 106.302  0.00  0.00    +0.000 OA
ATOM     35  C15 UNL     1      72.065  69.393 105.249  0.00  0.00    +0.000 C 
ATOM     36  C16 UNL     1      73.004  69.485 104.045  0.00  0.00    +0.000 C 
ATOM     37  C17 UNL     1      70.642  69.872 104.878  0.00  0.00    +0.000 C 
ATOM     38  C27 UNL     1      69.766  69.699 106.138  0.00  0.00    +0.000 C 
ATOM     39  C28 UNL     1      70.380  70.469 107.327  0.00  0.00    +0.000 C 
BRANCH  38  40
ATOM     40  O8  UNL     1      68.425  70.043 105.901  0.00  0.00    +0.000 OA
ATOM     41  H34 UNL     1      68.387  70.984 105.590  0.00  0.00    +0.000 HD
ENDBRANCH  38  40
BRANCH  39  42
ATOM     42  O9  UNL     1      70.351  71.864 107.060  0.00  0.00    +0.000 OA
ATOM     43  C29 UNL     1      70.921  72.600 108.118  0.00  0.00    +0.000 C 
ENDBRANCH  39  42
BRANCH  37  44
ATOM     44  O4  UNL     1      70.704  71.247 104.481  0.00  0.00    +0.000 OA
BRANCH  44  45
ATOM     45  C18 UNL     1      70.142  71.765 103.310  0.00  0.00    +0.000 C 
ATOM     46  O5  UNL     1      68.890  71.767 103.144  0.00  0.00    +0.000 OA
BRANCH  45  47
ATOM     47  C19 UNL     1      71.024  72.375 102.292  0.00  0.00    +0.000 A 
ATOM     48  C20 UNL     1      71.631  73.643 102.493  0.00  0.00    +0.000 A 
ATOM     49  C23 UNL     1      72.434  74.195 101.467  0.00  0.00    +0.000 A 
ATOM     50  C24 UNL     1      72.603  73.503 100.252  0.00  0.00    +0.000 A 
ATOM     51  C25 UNL     1      72.003  72.253 100.064  0.00  0.00    +0.000 A 
ATOM     52  C26 UNL     1      71.218  71.684 101.079  0.00  0.00    +0.000 A 
ATOM     53 CL1  UNL     1      72.238  71.417  98.527  0.00  0.00    +0.000 Cl
ATOM     54 CL2  UNL     1      73.249  75.745 101.697  0.00  0.00    +0.000 Cl
BRANCH  48  55
ATOM     55  C21 UNL     1      71.525  74.349 103.835  0.00  0.00    +0.000 C 
ATOM     56  C22 UNL     1      72.716  74.000 104.727  0.00  0.00    +0.000 C 
ENDBRANCH  48  55
BRANCH  50  57
ATOM     57  O6  UNL     1      73.372  74.033  99.213  0.00  0.00    +0.000 OA
ATOM     58  H31 UNL     1      73.103  73.983  98.239  0.00  0.00    +0.000 HD
ENDBRANCH  50  57
BRANCH  52  59
ATOM     59  O7  UNL     1      70.612  70.436 100.902  0.00  0.00    +0.000 OA
ATOM     60  H32 UNL     1      70.674  69.687 101.578  0.00  0.00    +0.000 HD
ENDBRANCH  52  59
ENDBRANCH  45  47
ENDBRANCH  44  45
ENDBRANCH  37  44
ENDBRANCH  32  33
ENDBRANCH  31  32
ENDBRANCH  10  31
BRANCH  22  61
ATOM     61  O12 UNL     1      76.548  61.781 113.800  0.00  0.00    +0.000 OA
BRANCH  61  62
ATOM     62  C40 UNL     1      77.839  61.375 114.213  0.00  0.00    +0.000 C 
ATOM     63  O13 UNL     1      78.008  60.012 113.844  0.00  0.00    +0.000 OA
ATOM     64  C41 UNL     1      78.576  59.106 114.785  0.00  0.00    +0.000 C 
ATOM     65  C42 UNL     1      79.229  58.004 113.926  0.00  0.00    +0.000 C 
ATOM     66  C43 UNL     1      77.447  58.437 115.613  0.00  0.00    +0.000 C 
ATOM     67  C44 UNL     1      79.664  59.756 115.698  0.00  0.00    +0.000 C 
ATOM     68  C49 UNL     1      79.214  61.088 116.350  0.00  0.00    +0.000 C 
ATOM     69  C50 UNL     1      77.954  61.695 115.714  0.00  0.00    +0.000 C 
BRANCH  68  70
ATOM     70  O16 UNL     1      80.262  62.025 116.278  0.00  0.00    +0.000 OA
ATOM     71  H67 UNL     1      80.108  62.685 117.007  0.00  0.00    +0.000 HD
ENDBRANCH  68  70
BRANCH  69  72
ATOM     72  O17 UNL     1      76.804  61.272 116.408  0.00  0.00    +0.000 OA
ATOM     73  H69 UNL     1      76.370  60.566 115.857  0.00  0.00    +0.000 HD
ENDBRANCH  69  72
BRANCH  67  74
ATOM     74  O14 UNL     1      80.032  58.858 116.752  0.00  0.00    +0.000 OA
BRANCH  74  75
ATOM     75  C45 UNL     1      81.061  57.910 116.692  0.00  0.00    +0.000 C 
ATOM     76  O15 UNL     1      82.050  58.077 115.924  0.00  0.00    +0.000 OA
BRANCH  75  77
ATOM     77  C46 UNL     1      80.930  56.657 117.516  0.00  0.00    +0.000 C 
ATOM     78  C47 UNL     1      82.139  55.728 117.352  0.00  0.00    +0.000 C 
ATOM     79  C48 UNL     1      79.632  55.929 117.154  0.00  0.00    +0.000 C 
ENDBRANCH  75  77
ENDBRANCH  74  75
ENDBRANCH  67  74
ENDBRANCH  61  62
ENDBRANCH  22  61
TORSDOF 22
ENDMDL
MODEL 10
REMARK VINA RESULT:      -8.3      5.362     13.367
REMARK  Name = ./S4227.pdb
REMARK  34 active torsions:
REMARK  status: ('A' for Active; 'I' for Inactive)
REMARK    1  A    between atoms: C1_1  and  C2_2
REMARK    2  A    between atoms: C2_2  and  C3_3
REMARK    3  A    between atoms: C5_5  and  C6_6
REMARK    4  A    between atoms: C7_7  and  O1_8
REMARK    5  A    between atoms: C12_13  and  C13_14
REMARK    6  A    between atoms: C13_14  and  O2_15
REMARK    7  A    between atoms: O2_15  and  C14_16
REMARK    8  A    between atoms: C15_18  and  C16_19
REMARK    9  A    between atoms: C17_20  and  O4_21
REMARK   10  A    between atoms: O4_21  and  C18_22
REMARK   11  A    between atoms: C18_22  and  C19_24
REMARK   12  A    between atoms: C20_25  and  C21_26
REMARK   13  A    between atoms: C21_26  and  C22_27
REMARK   14  A    between atoms: C24_29  and  O6_30
REMARK   15  A    between atoms: C26_32  and  O7_33
REMARK   16  A    between atoms: C27_36  and  O8_37
REMARK   17  A    between atoms: C28_38  and  O9_39
REMARK   18  A    between atoms: O9_39  and  C29_40
REMARK   19  A    between atoms: C31_44  and  C51_70
REMARK   20  A    between atoms: C34_47  and  C35_48
REMARK   21  A    between atoms: C37_50  and  C38_51
REMARK   22  A    between atoms: C39_52  and  O12_53
REMARK   23  A    between atoms: O12_53  and  C40_54
REMARK   24  A    between atoms: C41_56  and  C42_57
REMARK   25  A    between atoms: C41_56  and  C43_58
REMARK   26  A    between atoms: C44_59  and  O14_60
REMARK   27  A    between atoms: O14_60  and  C45_61
REMARK   28  A    between atoms: C45_61  and  C46_63
REMARK   29  A    between atoms: C46_63  and  C47_64
REMARK   30  A    between atoms: C46_63  and  C48_65
REMARK   31  A    between atoms: C49_66  and  O16_67
REMARK   32  A    between atoms: C50_68  and  O17_69
REMARK   33  A    between atoms: C51_70  and  C52_71
REMARK   34  A    between atoms: C51_70  and  O18_72
REMARK                            x       y       z     vdW  Elec       q    Type
REMARK                         _______ _______ _______ _____ _____    ______ ____
ROOT
ATOM      1  C3  UNL     1      75.053  63.878 113.164  0.00  0.00    +0.000 C 
ATOM      2  C4  UNL     1      75.395  64.635 114.433  0.00  0.00    +0.000 C 
ATOM      3  C5  UNL     1      75.221  65.960 114.681  0.00  0.00    +0.000 C 
ATOM      4  C6  UNL     1      75.639  66.449 116.046  0.00  0.00    +0.000 C 
ATOM      5  C7  UNL     1      74.683  66.981 113.677  0.00  0.00    +0.000 C 
ATOM      6  C8  UNL     1      73.147  66.853 113.451  0.00  0.00    +0.000 C 
ATOM      7  C9  UNL     1      72.776  66.219 112.138  0.00  0.00    +0.000 C 
ATOM      8  C10 UNL     1      72.855  66.876 110.979  0.00  0.00    +0.000 C 
ATOM      9  C11 UNL     1      72.772  66.135 109.708  0.00  0.00    +0.000 C 
ATOM     10  C12 UNL     1      72.715  66.704 108.489  0.00  0.00    +0.000 C 
ATOM     11  C30 UNL     1      72.820  65.827 107.302  0.00  0.00    +0.000 C 
ATOM     12  O10 UNL     1      72.414  66.215 106.171  0.00  0.00    +0.000 OA
ATOM     13  O11 UNL     1      73.408  64.572 107.453  0.00  0.00    +0.000 OA
ATOM     14  C31 UNL     1      73.700  63.652 106.396  0.00  0.00    +0.000 C 
ATOM     15  C32 UNL     1      74.960  62.813 106.761  0.00  0.00    +0.000 C 
ATOM     16  C33 UNL     1      75.232  62.819 108.253  0.00  0.00    +0.000 C 
ATOM     17  C34 UNL     1      76.268  63.452 108.844  0.00  0.00    +0.000 C 
ATOM     18  C35 UNL     1      77.318  64.183 108.048  0.00  0.00    +0.000 C 
ATOM     19  C36 UNL     1      76.286  63.642 110.314  0.00  0.00    +0.000 C 
ATOM     20  C37 UNL     1      76.244  62.656 111.238  0.00  0.00    +0.000 C 
ATOM     21  C38 UNL     1      76.302  61.203 110.807  0.00  0.00    +0.000 C 
ATOM     22  C39 UNL     1      76.307  63.054 112.719  0.00  0.00    +0.000 C 
ENDROOT
BRANCH   1  24
ATOM     23  C1  UNL     1      73.315  63.097 114.913  0.00  0.00    +0.000 C 
ATOM     24  C2  UNL     1      73.801  63.005 113.465  0.00  0.00    +0.000 C 
ENDBRANCH   1  24
BRANCH   5  25
ATOM     25  O1  UNL     1      75.424  66.925 112.485  0.00  0.00    +0.000 OA
ATOM     26  H12 UNL     1      74.772  66.893 111.734  0.00  0.00    +0.000 HD
ENDBRANCH   5  25
BRANCH  14  27
ATOM     27  C51 UNL     1      72.449  62.788 106.081  0.00  0.00    +0.000 C 
ATOM     28  C52 UNL     1      71.720  63.235 104.809  0.00  0.00    +0.000 C 
BRANCH  27  29
ATOM     29  O18 UNL     1      71.552  62.817 107.161  0.00  0.00    +0.000 OA
ATOM     30  H74 UNL     1      71.875  62.143 107.815  0.00  0.00    +0.000 HD
ENDBRANCH  27  29
ENDBRANCH  14  27
BRANCH  10  31
ATOM     31  C13 UNL     1      72.494  68.190 108.306  0.00  0.00    +0.000 C 
BRANCH  31  32
ATOM     32  O2  UNL     1      73.701  68.782 107.853  0.00  0.00    +0.000 OA
BRANCH  32  33
ATOM     33  C14 UNL     1      74.432  69.398 108.902  0.00  0.00    +0.000 C 
ATOM     34  O3  UNL     1      75.688  68.745 109.057  0.00  0.00    +0.000 OA
ATOM     35  C15 UNL     1      76.508  68.897 107.905  0.00  0.00    +0.000 C 
ATOM     36  C16 UNL     1      77.762  68.039 108.084  0.00  0.00    +0.000 C 
ATOM     37  C17 UNL     1      76.880  70.383 107.695  0.00  0.00    +0.000 C 
ATOM     38  C27 UNL     1      75.559  71.153 107.480  0.00  0.00    +0.000 C 
ATOM     39  C28 UNL     1      74.607  70.924 108.674  0.00  0.00    +0.000 C 
BRANCH  38  40
ATOM     40  O8  UNL     1      75.777  72.514 107.212  0.00  0.00    +0.000 OA
ATOM     41  H34 UNL     1      75.237  73.054 107.845  0.00  0.00    +0.000 HD
ENDBRANCH  38  40
BRANCH  39  42
ATOM     42  O9  UNL     1      75.167  71.493 109.849  0.00  0.00    +0.000 OA
ATOM     43  C29 UNL     1      74.346  72.518 110.362  0.00  0.00    +0.000 C 
ENDBRANCH  39  42
BRANCH  37  44
ATOM     44  O4  UNL     1      77.569  70.858 108.858  0.00  0.00    +0.000 OA
BRANCH  44  45
ATOM     45  C18 UNL     1      78.459  71.936 108.873  0.00  0.00    +0.000 C 
ATOM     46  O5  UNL     1      78.079  73.089 108.527  0.00  0.00    +0.000 OA
BRANCH  45  47
ATOM     47  C19 UNL     1      79.839  71.728 109.364  0.00  0.00    +0.000 A 
ATOM     48  C20 UNL     1      80.958  72.317 108.719  0.00  0.00    +0.000 A 
ATOM     49  C23 UNL     1      82.258  72.051 109.210  0.00  0.00    +0.000 A 
ATOM     50  C24 UNL     1      82.435  71.189 110.310  0.00  0.00    +0.000 A 
ATOM     51  C25 UNL     1      81.326  70.615 110.942  0.00  0.00    +0.000 A 
ATOM     52  C26 UNL     1      80.028  70.884 110.477  0.00  0.00    +0.000 A 
ATOM     53 CL1  UNL     1      81.589  69.540 112.316  0.00  0.00    +0.000 Cl
ATOM     54 CL2  UNL     1      83.673  72.804 108.468  0.00  0.00    +0.000 Cl
BRANCH  48  55
ATOM     55  C21 UNL     1      80.764  73.317 107.591  0.00  0.00    +0.000 C 
ATOM     56  C22 UNL     1      80.874  72.631 106.231  0.00  0.00    +0.000 C 
ENDBRANCH  48  55
BRANCH  50  57
ATOM     57  O6  UNL     1      83.708  70.890 110.804  0.00  0.00    +0.000 OA
ATOM     58  H31 UNL     1      83.901  70.729 111.784  0.00  0.00    +0.000 HD
ENDBRANCH  50  57
BRANCH  52  59
ATOM     59  O7  UNL     1      78.913  70.315 111.098  0.00  0.00    +0.000 OA
ATOM     60  H32 UNL     1      78.449  69.484 110.757  0.00  0.00    +0.000 HD
ENDBRANCH  52  59
ENDBRANCH  45  47
ENDBRANCH  44  45
ENDBRANCH  37  44
ENDBRANCH  32  33
ENDBRANCH  31  32
ENDBRANCH  10  31
BRANCH  22  61
ATOM     61  O12 UNL     1      76.408  61.917 113.567  0.00  0.00    +0.000 OA
BRANCH  61  62
ATOM     62  C40 UNL     1      77.724  61.638 114.006  0.00  0.00    +0.000 C 
ATOM     63  O13 UNL     1      78.026  60.294 113.655  0.00  0.00    +0.000 OA
ATOM     64  C41 UNL     1      78.660  59.454 114.615  0.00  0.00    +0.000 C 
ATOM     65  C42 UNL     1      79.428  58.410 113.779  0.00  0.00    +0.000 C 
ATOM     66  C43 UNL     1      77.585  58.689 115.432  0.00  0.00    +0.000 C 
ATOM     67  C44 UNL     1      79.666  60.212 115.539  0.00  0.00    +0.000 C 
ATOM     68  C49 UNL     1      79.082  61.502 116.169  0.00  0.00    +0.000 C 
ATOM     69  C50 UNL     1      77.781  61.982 115.505  0.00  0.00    +0.000 C 
BRANCH  68  70
ATOM     70  O16 UNL     1      80.038  62.533 116.103  0.00  0.00    +0.000 OA
ATOM     71  H67 UNL     1      79.852  63.147 116.864  0.00  0.00    +0.000 HD
ENDBRANCH  68  70
BRANCH  69  72
ATOM     72  O17 UNL     1      76.664  61.459 116.185  0.00  0.00    +0.000 OA
ATOM     73  H69 UNL     1      75.940  61.342 115.513  0.00  0.00    +0.000 HD
ENDBRANCH  69  72
BRANCH  67  74
ATOM     74  O14 UNL     1      80.098  59.363 116.609  0.00  0.00    +0.000 OA
BRANCH  74  75
ATOM     75  C45 UNL     1      81.096  58.385 116.519  0.00  0.00    +0.000 C 
ATOM     76  O15 UNL     1      82.116  58.566 115.796  0.00  0.00    +0.000 OA
BRANCH  75  77
ATOM     77  C46 UNL     1      80.896  57.087 117.255  0.00  0.00    +0.000 C 
ATOM     78  C47 UNL     1      80.762  55.895 116.300  0.00  0.00    +0.000 C 
ATOM     79  C48 UNL     1      79.672  57.191 118.170  0.00  0.00    +0.000 C 
ENDBRANCH  75  77
ENDBRANCH  74  75
ENDBRANCH  67  74
ENDBRANCH  61  62
ENDBRANCH  22  61
TORSDOF 22
ENDMDL
MODEL 11
REMARK VINA RESULT:      -8.2      6.709     11.263
REMARK  Name = ./S4227.pdb
REMARK  34 active torsions:
REMARK  status: ('A' for Active; 'I' for Inactive)
REMARK    1  A    between atoms: C1_1  and  C2_2
REMARK    2  A    between atoms: C2_2  and  C3_3
REMARK    3  A    between atoms: C5_5  and  C6_6
REMARK    4  A    between atoms: C7_7  and  O1_8
REMARK    5  A    between atoms: C12_13  and  C13_14
REMARK    6  A    between atoms: C13_14  and  O2_15
REMARK    7  A    between atoms: O2_15  and  C14_16
REMARK    8  A    between atoms: C15_18  and  C16_19
REMARK    9  A    between atoms: C17_20  and  O4_21
REMARK   10  A    between atoms: O4_21  and  C18_22
REMARK   11  A    between atoms: C18_22  and  C19_24
REMARK   12  A    between atoms: C20_25  and  C21_26
REMARK   13  A    between atoms: C21_26  and  C22_27
REMARK   14  A    between atoms: C24_29  and  O6_30
REMARK   15  A    between atoms: C26_32  and  O7_33
REMARK   16  A    between atoms: C27_36  and  O8_37
REMARK   17  A    between atoms: C28_38  and  O9_39
REMARK   18  A    between atoms: O9_39  and  C29_40
REMARK   19  A    between atoms: C31_44  and  C51_70
REMARK   20  A    between atoms: C34_47  and  C35_48
REMARK   21  A    between atoms: C37_50  and  C38_51
REMARK   22  A    between atoms: C39_52  and  O12_53
REMARK   23  A    between atoms: O12_53  and  C40_54
REMARK   24  A    between atoms: C41_56  and  C42_57
REMARK   25  A    between atoms: C41_56  and  C43_58
REMARK   26  A    between atoms: C44_59  and  O14_60
REMARK   27  A    between atoms: O14_60  and  C45_61
REMARK   28  A    between atoms: C45_61  and  C46_63
REMARK   29  A    between atoms: C46_63  and  C47_64
REMARK   30  A    between atoms: C46_63  and  C48_65
REMARK   31  A    between atoms: C49_66  and  O16_67
REMARK   32  A    between atoms: C50_68  and  O17_69
REMARK   33  A    between atoms: C51_70  and  C52_71
REMARK   34  A    between atoms: C51_70  and  O18_72
REMARK                            x       y       z     vdW  Elec       q    Type
REMARK                         _______ _______ _______ _____ _____    ______ ____
ROOT
ATOM      1  C3  UNL     1      78.715  63.748 104.470  0.00  0.00    +0.000 C 
ATOM      2  C4  UNL     1      79.466  65.040 104.726  0.00  0.00    +0.000 C 
ATOM      3  C5  UNL     1      79.248  65.944 105.718  0.00  0.00    +0.000 C 
ATOM      4  C6  UNL     1      80.162  67.145 105.745  0.00  0.00    +0.000 C 
ATOM      5  C7  UNL     1      78.135  65.855 106.763  0.00  0.00    +0.000 C 
ATOM      6  C8  UNL     1      78.414  64.774 107.850  0.00  0.00    +0.000 C 
ATOM      7  C9  UNL     1      77.587  63.526 107.694  0.00  0.00    +0.000 C 
ATOM      8  C10 UNL     1      76.296  63.479 108.029  0.00  0.00    +0.000 C 
ATOM      9  C11 UNL     1      75.465  62.345 107.586  0.00  0.00    +0.000 C 
ATOM     10  C12 UNL     1      74.191  62.131 107.967  0.00  0.00    +0.000 C 
ATOM     11  C30 UNL     1      73.431  61.055 107.294  0.00  0.00    +0.000 C 
ATOM     12  O10 UNL     1      72.400  60.557 107.827  0.00  0.00    +0.000 OA
ATOM     13  O11 UNL     1      73.860  60.622 106.040  0.00  0.00    +0.000 OA
ATOM     14  C31 UNL     1      73.179  59.685 105.199  0.00  0.00    +0.000 C 
ATOM     15  C32 UNL     1      73.456  60.020 103.704  0.00  0.00    +0.000 C 
ATOM     16  C33 UNL     1      74.700  60.871 103.535  0.00  0.00    +0.000 C 
ATOM     17  C34 UNL     1      74.699  62.169 103.164  0.00  0.00    +0.000 C 
ATOM     18  C35 UNL     1      73.430  62.901 102.813  0.00  0.00    +0.000 C 
ATOM     19  C36 UNL     1      75.928  62.986 103.308  0.00  0.00    +0.000 C 
ATOM     20  C37 UNL     1      77.121  62.727 102.727  0.00  0.00    +0.000 C 
ATOM     21  C38 UNL     1      77.256  61.585 101.738  0.00  0.00    +0.000 C 
ATOM     22  C39 UNL     1      78.270  63.715 102.970  0.00  0.00    +0.000 C 
ENDROOT
BRANCH   1  24
ATOM     23  C1  UNL     1      81.038  63.025 105.351  0.00  0.00    +0.000 C 
ATOM     24  C2  UNL     1      79.655  62.574 104.873  0.00  0.00    +0.000 C 
ENDBRANCH   1  24
BRANCH   5  25
ATOM     25  O1  UNL     1      76.889  65.695 106.131  0.00  0.00    +0.000 OA
ATOM     26  H12 UNL     1      77.052  65.723 105.150  0.00  0.00    +0.000 HD
ENDBRANCH   5  25
BRANCH  14  27
ATOM     27  C51 UNL     1      73.568  58.235 105.593  0.00  0.00    +0.000 C 
ATOM     28  C52 UNL     1      73.524  57.262 104.409  0.00  0.00    +0.000 C 
BRANCH  27  29
ATOM     29  O18 UNL     1      72.722  57.762 106.610  0.00  0.00    +0.000 OA
ATOM     30  H74 UNL     1      72.147  57.065 106.198  0.00  0.00    +0.000 HD
ENDBRANCH  27  29
ENDBRANCH  14  27
BRANCH  10  31
ATOM     31  C13 UNL     1      73.545  62.916 109.088  0.00  0.00    +0.000 C 
BRANCH  31  32
ATOM     32  O2  UNL     1      72.634  63.850 108.530  0.00  0.00    +0.000 OA
BRANCH  32  33
ATOM     33  C14 UNL     1      73.088  65.189 108.647  0.00  0.00    +0.000 C 
ATOM     34  O3  UNL     1      73.610  65.628 107.397  0.00  0.00    +0.000 OA
ATOM     35  C15 UNL     1      72.607  65.672 106.391  0.00  0.00    +0.000 C 
ATOM     36  C16 UNL     1      73.273  65.993 105.052  0.00  0.00    +0.000 C 
ATOM     37  C17 UNL     1      71.532  66.727 106.740  0.00  0.00    +0.000 C 
ATOM     38  C27 UNL     1      70.891  66.293 108.076  0.00  0.00    +0.000 C 
ATOM     39  C28 UNL     1      71.975  66.140 109.165  0.00  0.00    +0.000 C 
BRANCH  38  40
ATOM     40  O8  UNL     1      69.846  67.147 108.465  0.00  0.00    +0.000 OA
ATOM     41  H34 UNL     1      69.104  67.062 107.812  0.00  0.00    +0.000 HD
ENDBRANCH  38  40
BRANCH  39  42
ATOM     42  O9  UNL     1      72.556  67.406 109.442  0.00  0.00    +0.000 OA
ATOM     43  C29 UNL     1      73.569  67.302 110.417  0.00  0.00    +0.000 C 
ENDBRANCH  39  42
BRANCH  37  44
ATOM     44  O4  UNL     1      72.163  68.008 106.866  0.00  0.00    +0.000 OA
BRANCH  44  45
ATOM     45  C18 UNL     1      71.505  69.236 106.742  0.00  0.00    +0.000 C 
ATOM     46  O5  UNL     1      71.181  69.898 107.767  0.00  0.00    +0.000 OA
BRANCH  45  47
ATOM     47  C19 UNL     1      71.251  69.788 105.394  0.00  0.00    +0.000 A 
ATOM     48  C20 UNL     1      72.310  70.072 104.492  0.00  0.00    +0.000 A 
ATOM     49  C23 UNL     1      72.010  70.635 103.229  0.00  0.00    +0.000 A 
ATOM     50  C24 UNL     1      70.677  70.936 102.888  0.00  0.00    +0.000 A 
ATOM     51  C25 UNL     1      69.639  70.650 103.782  0.00  0.00    +0.000 A 
ATOM     52  C26 UNL     1      69.920  70.074 105.032  0.00  0.00    +0.000 A 
ATOM     53 CL1  UNL     1      67.982  71.041 103.319  0.00  0.00    +0.000 Cl
ATOM     54 CL2  UNL     1      73.293  70.956 102.058  0.00  0.00    +0.000 Cl
BRANCH  48  55
ATOM     55  C21 UNL     1      73.738  69.666 104.820  0.00  0.00    +0.000 C 
ATOM     56  C22 UNL     1      74.499  70.826 105.461  0.00  0.00    +0.000 C 
ENDBRANCH  48  55
BRANCH  50  57
ATOM     57  O6  UNL     1      70.352  71.513 101.657  0.00  0.00    +0.000 OA
ATOM     58  H31 UNL     1      70.416  72.506 101.474  0.00  0.00    +0.000 HD
ENDBRANCH  50  57
BRANCH  52  59
ATOM     59  O7  UNL     1      68.892  69.785 105.934  0.00  0.00    +0.000 OA
ATOM     60  H32 UNL     1      69.029  69.731 106.935  0.00  0.00    +0.000 HD
ENDBRANCH  52  59
ENDBRANCH  45  47
ENDBRANCH  44  45
ENDBRANCH  37  44
ENDBRANCH  32  33
ENDBRANCH  31  32
ENDBRANCH  10  31
BRANCH  22  61
ATOM     61  O12 UNL     1      79.411  63.401 102.182  0.00  0.00    +0.000 OA
BRANCH  61  62
ATOM     62  C40 UNL     1      79.894  64.484 101.408  0.00  0.00    +0.000 C 
ATOM     63  O13 UNL     1      78.846  65.438 101.289  0.00  0.00    +0.000 OA
ATOM     64  C41 UNL     1      78.584  66.022 100.017  0.00  0.00    +0.000 C 
ATOM     65  C42 UNL     1      77.956  67.394 100.335  0.00  0.00    +0.000 C 
ATOM     66  C43 UNL     1      77.511  65.187  99.269  0.00  0.00    +0.000 C 
ATOM     67  C44 UNL     1      79.867  66.234  99.152  0.00  0.00    +0.000 C 
ATOM     68  C49 UNL     1      80.768  64.977  99.055  0.00  0.00    +0.000 C 
ATOM     69  C50 UNL     1      80.432  63.893 100.092  0.00  0.00    +0.000 C 
BRANCH  68  70
ATOM     70  O16 UNL     1      82.117  65.351  99.203  0.00  0.00    +0.000 OA
ATOM     71  H67 UNL     1      82.598  64.556  99.558  0.00  0.00    +0.000 HD
ENDBRANCH  68  70
BRANCH  69  72
ATOM     72  O17 UNL     1      79.525  62.962  99.551  0.00  0.00    +0.000 OA
ATOM     73  H69 UNL     1      79.929  62.060  99.660  0.00  0.00    +0.000 HD
ENDBRANCH  69  72
BRANCH  67  74
ATOM     74  O14 UNL     1      79.512  66.617  97.818  0.00  0.00    +0.000 OA
BRANCH  74  75
ATOM     75  C45 UNL     1      80.392  67.131  96.857  0.00  0.00    +0.000 C 
ATOM     76  O15 UNL     1      81.182  68.075  97.143  0.00  0.00    +0.000 OA
BRANCH  75  77
ATOM     77  C46 UNL     1      80.330  66.576  95.459  0.00  0.00    +0.000 C 
ATOM     78  C47 UNL     1      79.645  67.540  94.484  0.00  0.00    +0.000 C 
ATOM     79  C48 UNL     1      79.623  65.218  95.469  0.00  0.00    +0.000 C 
ENDBRANCH  75  77
ENDBRANCH  74  75
ENDBRANCH  67  74
ENDBRANCH  61  62
ENDBRANCH  22  61
TORSDOF 22
ENDMDL
MODEL 12
REMARK VINA RESULT:      -8.2      5.560     10.689
REMARK  Name = ./S4227.pdb
REMARK  34 active torsions:
REMARK  status: ('A' for Active; 'I' for Inactive)
REMARK    1  A    between atoms: C1_1  and  C2_2
REMARK    2  A    between atoms: C2_2  and  C3_3
REMARK    3  A    between atoms: C5_5  and  C6_6
REMARK    4  A    between atoms: C7_7  and  O1_8
REMARK    5  A    between atoms: C12_13  and  C13_14
REMARK    6  A    between atoms: C13_14  and  O2_15
REMARK    7  A    between atoms: O2_15  and  C14_16
REMARK    8  A    between atoms: C15_18  and  C16_19
REMARK    9  A    between atoms: C17_20  and  O4_21
REMARK   10  A    between atoms: O4_21  and  C18_22
REMARK   11  A    between atoms: C18_22  and  C19_24
REMARK   12  A    between atoms: C20_25  and  C21_26
REMARK   13  A    between atoms: C21_26  and  C22_27
REMARK   14  A    between atoms: C24_29  and  O6_30
REMARK   15  A    between atoms: C26_32  and  O7_33
REMARK   16  A    between atoms: C27_36  and  O8_37
REMARK   17  A    between atoms: C28_38  and  O9_39
REMARK   18  A    between atoms: O9_39  and  C29_40
REMARK   19  A    between atoms: C31_44  and  C51_70
REMARK   20  A    between atoms: C34_47  and  C35_48
REMARK   21  A    between atoms: C37_50  and  C38_51
REMARK   22  A    between atoms: C39_52  and  O12_53
REMARK   23  A    between atoms: O12_53  and  C40_54
REMARK   24  A    between atoms: C41_56  and  C42_57
REMARK   25  A    between atoms: C41_56  and  C43_58
REMARK   26  A    between atoms: C44_59  and  O14_60
REMARK   27  A    between atoms: O14_60  and  C45_61
REMARK   28  A    between atoms: C45_61  and  C46_63
REMARK   29  A    between atoms: C46_63  and  C47_64
REMARK   30  A    between atoms: C46_63  and  C48_65
REMARK   31  A    between atoms: C49_66  and  O16_67
REMARK   32  A    between atoms: C50_68  and  O17_69
REMARK   33  A    between atoms: C51_70  and  C52_71
REMARK   34  A    between atoms: C51_70  and  O18_72
REMARK                            x       y       z     vdW  Elec       q    Type
REMARK                         _______ _______ _______ _____ _____    ______ ____
ROOT
ATOM      1  C3  UNL     1      75.483  64.924 104.783  0.00  0.00    +0.000 C 
ATOM      2  C4  UNL     1      76.050  65.454 103.480  0.00  0.00    +0.000 C 
ATOM      3  C5  UNL     1      76.674  66.643 103.269  0.00  0.00    +0.000 C 
ATOM      4  C6  UNL     1      77.155  66.910 101.864  0.00  0.00    +0.000 C 
ATOM      5  C7  UNL     1      76.879  67.729 104.326  0.00  0.00    +0.000 C 
ATOM      6  C8  UNL     1      77.988  67.365 105.358  0.00  0.00    +0.000 C 
ATOM      7  C9  UNL     1      77.456  66.957 106.705  0.00  0.00    +0.000 C 
ATOM      8  C10 UNL     1      76.979  67.841 107.583  0.00  0.00    +0.000 C 
ATOM      9  C11 UNL     1      76.204  67.376 108.746  0.00  0.00    +0.000 C 
ATOM     10  C12 UNL     1      75.785  68.162 109.756  0.00  0.00    +0.000 C 
ATOM     11  C30 UNL     1      74.861  67.584 110.757  0.00  0.00    +0.000 C 
ATOM     12  O10 UNL     1      74.723  68.113 111.895  0.00  0.00    +0.000 OA
ATOM     13  O11 UNL     1      74.119  66.457 110.404  0.00  0.00    +0.000 OA
ATOM     14  C31 UNL     1      73.097  65.846 111.197  0.00  0.00    +0.000 C 
ATOM     15  C32 UNL     1      72.025  65.201 110.270  0.00  0.00    +0.000 C 
ATOM     16  C33 UNL     1      72.561  64.951 108.873  0.00  0.00    +0.000 C 
ATOM     17  C34 UNL     1      72.182  65.631 107.771  0.00  0.00    +0.000 C 
ATOM     18  C35 UNL     1      71.115  66.694 107.813  0.00  0.00    +0.000 C 
ATOM     19  C36 UNL     1      72.965  65.515 106.517  0.00  0.00    +0.000 C 
ATOM     20  C37 UNL     1      73.202  64.369 105.839  0.00  0.00    +0.000 C 
ATOM     21  C38 UNL     1      72.547  63.073 106.275  0.00  0.00    +0.000 C 
ATOM     22  C39 UNL     1      74.009  64.459 104.536  0.00  0.00    +0.000 C 
ENDROOT
BRANCH   1  24
ATOM     23  C1  UNL     1      76.421  63.593 106.793  0.00  0.00    +0.000 C 
ATOM     24  C2  UNL     1      76.426  63.788 105.275  0.00  0.00    +0.000 C 
ENDBRANCH   1  24
BRANCH   5  25
ATOM     25  O1  UNL     1      75.652  68.060 104.926  0.00  0.00    +0.000 OA
ATOM     26  H12 UNL     1      75.205  68.724 104.336  0.00  0.00    +0.000 HD
ENDBRANCH   5  25
BRANCH  14  27
ATOM     27  C51 UNL     1      73.729  64.847 112.203  0.00  0.00    +0.000 C 
ATOM     28  C52 UNL     1      74.906  64.065 111.610  0.00  0.00    +0.000 C 
BRANCH  27  29
ATOM     29  O18 UNL     1      72.759  63.941 112.665  0.00  0.00    +0.000 OA
ATOM     30  H74 UNL     1      72.247  64.412 113.373  0.00  0.00    +0.000 HD
ENDBRANCH  27  29
ENDBRANCH  14  27
BRANCH  10  31
ATOM     31  C13 UNL     1      76.272  69.586 109.920  0.00  0.00    +0.000 C 
BRANCH  31  32
ATOM     32  O2  UNL     1      75.161  70.464 109.836  0.00  0.00    +0.000 OA
BRANCH  32  33
ATOM     33  C14 UNL     1      75.231  71.324 108.709  0.00  0.00    +0.000 C 
ATOM     34  O3  UNL     1      74.735  70.647 107.559  0.00  0.00    +0.000 OA
ATOM     35  C15 UNL     1      73.354  70.329 107.688  0.00  0.00    +0.000 C 
ATOM     36  C16 UNL     1      72.940  69.467 106.494  0.00  0.00    +0.000 C 
ATOM     37  C17 UNL     1      72.505  71.619 107.760  0.00  0.00    +0.000 C 
ATOM     38  C27 UNL     1      72.965  72.392 109.015  0.00  0.00    +0.000 C 
ATOM     39  C28 UNL     1      74.483  72.663 108.948  0.00  0.00    +0.000 C 
BRANCH  38  40
ATOM     40  O8  UNL     1      72.213  73.559 109.223  0.00  0.00    +0.000 OA
ATOM     41  H34 UNL     1      72.322  74.154 108.437  0.00  0.00    +0.000 HD
ENDBRANCH  38  40
BRANCH  39  42
ATOM     42  O9  UNL     1      74.767  73.537 107.865  0.00  0.00    +0.000 OA
ATOM     43  C29 UNL     1      75.464  74.682 108.300  0.00  0.00    +0.000 C 
ENDBRANCH  39  42
BRANCH  37  44
ATOM     44  O4  UNL     1      72.726  72.388 106.572  0.00  0.00    +0.000 OA
BRANCH  44  45
ATOM     45  C18 UNL     1      71.718  72.990 105.812  0.00  0.00    +0.000 C 
ATOM     46  O5  UNL     1      71.178  74.064 106.196  0.00  0.00    +0.000 OA
BRANCH  45  47
ATOM     47  C19 UNL     1      71.335  72.391 104.516  0.00  0.00    +0.000 A 
ATOM     48  C20 UNL     1      70.131  71.654 104.360  0.00  0.00    +0.000 A 
ATOM     49  C23 UNL     1      69.835  71.071 103.105  0.00  0.00    +0.000 A 
ATOM     50  C24 UNL     1      70.742  71.198 102.035  0.00  0.00    +0.000 A 
ATOM     51  C25 UNL     1      71.925  71.927 102.197  0.00  0.00    +0.000 A 
ATOM     52  C26 UNL     1      72.224  72.528 103.431  0.00  0.00    +0.000 A 
ATOM     53 CL1  UNL     1      73.037  72.063 100.833  0.00  0.00    +0.000 Cl
ATOM     54 CL2  UNL     1      68.324  70.191 102.855  0.00  0.00    +0.000 Cl
BRANCH  48  55
ATOM     55  C21 UNL     1      69.110  71.592 105.484  0.00  0.00    +0.000 C 
ATOM     56  C22 UNL     1      69.259  70.299 106.283  0.00  0.00    +0.000 C 
ENDBRANCH  48  55
BRANCH  50  57
ATOM     57  O6  UNL     1      70.488  70.614 100.792  0.00  0.00    +0.000 OA
ATOM     58  H31 UNL     1      69.689  70.019 100.608  0.00  0.00    +0.000 HD
ENDBRANCH  50  57
BRANCH  52  59
ATOM     59  O7  UNL     1      73.404  73.257 103.605  0.00  0.00    +0.000 OA
ATOM     60  H32 UNL     1      74.279  73.014 103.162  0.00  0.00    +0.000 HD
ENDBRANCH  52  59
ENDBRANCH  45  47
ENDBRANCH  44  45
ENDBRANCH  37  44
ENDBRANCH  32  33
ENDBRANCH  31  32
ENDBRANCH  10  31
BRANCH  22  61
ATOM     61  O12 UNL     1      74.052  63.211 103.855  0.00  0.00    +0.000 OA
BRANCH  61  62
ATOM     62  C40 UNL     1      73.405  63.217 102.596  0.00  0.00    +0.000 C 
ATOM     63  O13 UNL     1      72.002  63.177 102.825  0.00  0.00    +0.000 OA
ATOM     64  C41 UNL     1      71.199  62.292 102.050  0.00  0.00    +0.000 C 
ATOM     65  C42 UNL     1      69.802  62.944 102.028  0.00  0.00    +0.000 C 
ATOM     66  C43 UNL     1      71.062  60.932 102.785  0.00  0.00    +0.000 C 
ATOM     67  C44 UNL     1      71.705  62.115 100.583  0.00  0.00    +0.000 C 
ATOM     68  C49 UNL     1      73.217  61.792 100.481  0.00  0.00    +0.000 C 
ATOM     69  C50 UNL     1      73.997  62.054 101.779  0.00  0.00    +0.000 C 
BRANCH  68  70
ATOM     70  O16 UNL     1      73.792  62.547  99.441  0.00  0.00    +0.000 OA
ATOM     71  H67 UNL     1      74.476  61.968  99.009  0.00  0.00    +0.000 HD
ENDBRANCH  68  70
BRANCH  69  72
ATOM     72  O17 UNL     1      74.066  60.880 102.553  0.00  0.00    +0.000 OA
ATOM     73  H69 UNL     1      74.860  60.966 103.148  0.00  0.00    +0.000 HD
ENDBRANCH  69  72
BRANCH  67  74
ATOM     74  O14 UNL     1      70.990  61.058  99.932  0.00  0.00    +0.000 OA
BRANCH  74  75
ATOM     75  C45 UNL     1      70.152  61.206  98.821  0.00  0.00    +0.000 C 
ATOM     76  O15 UNL     1      70.618  61.563  97.702  0.00  0.00    +0.000 OA
BRANCH  75  77
ATOM     77  C46 UNL     1      68.673  60.994  99.005  0.00  0.00    +0.000 C 
ATOM     78  C47 UNL     1      68.369  59.941 100.078  0.00  0.00    +0.000 C 
ATOM     79  C48 UNL     1      68.032  60.609  97.668  0.00  0.00    +0.000 C 
ENDBRANCH  75  77
ENDBRANCH  74  75
ENDBRANCH  67  74
ENDBRANCH  61  62
ENDBRANCH  22  61
TORSDOF 22
ENDMDL
MODEL 13
REMARK VINA RESULT:      -8.2      6.595     11.022
REMARK  Name = ./S4227.pdb
REMARK  34 active torsions:
REMARK  status: ('A' for Active; 'I' for Inactive)
REMARK    1  A    between atoms: C1_1  and  C2_2
REMARK    2  A    between atoms: C2_2  and  C3_3
REMARK    3  A    between atoms: C5_5  and  C6_6
REMARK    4  A    between atoms: C7_7  and  O1_8
REMARK    5  A    between atoms: C12_13  and  C13_14
REMARK    6  A    between atoms: C13_14  and  O2_15
REMARK    7  A    between atoms: O2_15  and  C14_16
REMARK    8  A    between atoms: C15_18  and  C16_19
REMARK    9  A    between atoms: C17_20  and  O4_21
REMARK   10  A    between atoms: O4_21  and  C18_22
REMARK   11  A    between atoms: C18_22  and  C19_24
REMARK   12  A    between atoms: C20_25  and  C21_26
REMARK   13  A    between atoms: C21_26  and  C22_27
REMARK   14  A    between atoms: C24_29  and  O6_30
REMARK   15  A    between atoms: C26_32  and  O7_33
REMARK   16  A    between atoms: C27_36  and  O8_37
REMARK   17  A    between atoms: C28_38  and  O9_39
REMARK   18  A    between atoms: O9_39  and  C29_40
REMARK   19  A    between atoms: C31_44  and  C51_70
REMARK   20  A    between atoms: C34_47  and  C35_48
REMARK   21  A    between atoms: C37_50  and  C38_51
REMARK   22  A    between atoms: C39_52  and  O12_53
REMARK   23  A    between atoms: O12_53  and  C40_54
REMARK   24  A    between atoms: C41_56  and  C42_57
REMARK   25  A    between atoms: C41_56  and  C43_58
REMARK   26  A    between atoms: C44_59  and  O14_60
REMARK   27  A    between atoms: O14_60  and  C45_61
REMARK   28  A    between atoms: C45_61  and  C46_63
REMARK   29  A    between atoms: C46_63  and  C47_64
REMARK   30  A    between atoms: C46_63  and  C48_65
REMARK   31  A    between atoms: C49_66  and  O16_67
REMARK   32  A    between atoms: C50_68  and  O17_69
REMARK   33  A    between atoms: C51_70  and  C52_71
REMARK   34  A    between atoms: C51_70  and  O18_72
REMARK                            x       y       z     vdW  Elec       q    Type
REMARK                         _______ _______ _______ _____ _____    ______ ____
ROOT
ATOM      1  C3  UNL     1      78.871  63.550 104.417  0.00  0.00    +0.000 C 
ATOM      2  C4  UNL     1      79.673  64.827 104.576  0.00  0.00    +0.000 C 
ATOM      3  C5  UNL     1      79.494  65.811 105.497  0.00  0.00    +0.000 C 
ATOM      4  C6  UNL     1      80.454  66.973 105.434  0.00  0.00    +0.000 C 
ATOM      5  C7  UNL     1      78.380  65.844 106.545  0.00  0.00    +0.000 C 
ATOM      6  C8  UNL     1      78.619  64.838 107.711  0.00  0.00    +0.000 C 
ATOM      7  C9  UNL     1      77.743  63.617 107.649  0.00  0.00    +0.000 C 
ATOM      8  C10 UNL     1      76.452  63.645 107.986  0.00  0.00    +0.000 C 
ATOM      9  C11 UNL     1      75.575  62.516 107.629  0.00  0.00    +0.000 C 
ATOM     10  C12 UNL     1      74.295  62.382 108.024  0.00  0.00    +0.000 C 
ATOM     11  C30 UNL     1      73.491  61.289 107.434  0.00  0.00    +0.000 C 
ATOM     12  O10 UNL     1      72.442  60.874 108.002  0.00  0.00    +0.000 OA
ATOM     13  O11 UNL     1      73.899  60.746 106.216  0.00  0.00    +0.000 OA
ATOM     14  C31 UNL     1      73.180  59.777 105.448  0.00  0.00    +0.000 C 
ATOM     15  C32 UNL     1      73.465  59.988 103.932  0.00  0.00    +0.000 C 
ATOM     16  C33 UNL     1      74.742  60.773 103.700  0.00  0.00    +0.000 C 
ATOM     17  C34 UNL     1      74.792  62.038 103.232  0.00  0.00    +0.000 C 
ATOM     18  C35 UNL     1      73.552  62.792 102.826  0.00  0.00    +0.000 C 
ATOM     19  C36 UNL     1      76.053  62.815 103.315  0.00  0.00    +0.000 C 
ATOM     20  C37 UNL     1      77.233  62.465 102.755  0.00  0.00    +0.000 C 
ATOM     21  C38 UNL     1      77.320  61.248 101.855  0.00  0.00    +0.000 C 
ATOM     22  C39 UNL     1      78.421  63.422 102.924  0.00  0.00    +0.000 C 
ENDROOT
BRANCH   1  24
ATOM     23  C1  UNL     1      81.157  62.806 105.372  0.00  0.00    +0.000 C 
ATOM     24  C2  UNL     1      79.764  62.374 104.908  0.00  0.00    +0.000 C 
ENDBRANCH   1  24
BRANCH   5  25
ATOM     25  O1  UNL     1      77.128  65.688 105.927  0.00  0.00    +0.000 OA
ATOM     26  H12 UNL     1      77.244  65.915 104.965  0.00  0.00    +0.000 HD
ENDBRANCH   5  25
BRANCH  14  27
ATOM     27  C51 UNL     1      73.512  58.346 105.950  0.00  0.00    +0.000 C 
ATOM     28  C52 UNL     1      73.466  57.296 104.834  0.00  0.00    +0.000 C 
BRANCH  27  29
ATOM     29  O18 UNL     1      72.625  57.970 106.973  0.00  0.00    +0.000 OA
ATOM     30  H74 UNL     1      72.553  56.980 106.935  0.00  0.00    +0.000 HD
ENDBRANCH  27  29
ENDBRANCH  14  27
BRANCH  10  31
ATOM     31  C13 UNL     1      73.684  63.274 109.083  0.00  0.00    +0.000 C 
BRANCH  31  32
ATOM     32  O2  UNL     1      72.740  64.138 108.468  0.00  0.00    +0.000 OA
BRANCH  32  33
ATOM     33  C14 UNL     1      73.158  65.494 108.477  0.00  0.00    +0.000 C 
ATOM     34  O3  UNL     1      73.661  65.848 107.192  0.00  0.00    +0.000 OA
ATOM     35  C15 UNL     1      72.650  65.786 106.194  0.00  0.00    +0.000 C 
ATOM     36  C16 UNL     1      73.300  66.019 104.828  0.00  0.00    +0.000 C 
ATOM     37  C17 UNL     1      71.550  66.836 106.469  0.00  0.00    +0.000 C 
ATOM     38  C27 UNL     1      70.929  66.490 107.839  0.00  0.00    +0.000 C 
ATOM     39  C28 UNL     1      72.023  66.452 108.928  0.00  0.00    +0.000 C 
BRANCH  38  40
ATOM     40  O8  UNL     1      69.864  67.344 108.169  0.00  0.00    +0.000 OA
ATOM     41  H34 UNL     1      69.208  66.839 108.716  0.00  0.00    +0.000 HD
ENDBRANCH  38  40
BRANCH  39  42
ATOM     42  O9  UNL     1      72.572  67.751 109.101  0.00  0.00    +0.000 OA
ATOM     43  C29 UNL     1      73.704  67.721 109.939  0.00  0.00    +0.000 C 
ENDBRANCH  39  42
BRANCH  37  44
ATOM     44  O4  UNL     1      72.146  68.139 106.489  0.00  0.00    +0.000 OA
BRANCH  44  45
ATOM     45  C18 UNL     1      71.640  69.258 105.819  0.00  0.00    +0.000 C 
ATOM     46  O5  UNL     1      71.491  69.244 104.566  0.00  0.00    +0.000 OA
BRANCH  45  47
ATOM     47  C19 UNL     1      71.215  70.438 106.602  0.00  0.00    +0.000 A 
ATOM     48  C20 UNL     1      69.899  70.964 106.506  0.00  0.00    +0.000 A 
ATOM     49  C23 UNL     1      69.560  72.119 107.249  0.00  0.00    +0.000 A 
ATOM     50  C24 UNL     1      70.530  72.753 108.051  0.00  0.00    +0.000 A 
ATOM     51  C25 UNL     1      71.823  72.226 108.141  0.00  0.00    +0.000 A 
ATOM     52  C26 UNL     1      72.169  71.070 107.424  0.00  0.00    +0.000 A 
ATOM     53 CL1  UNL     1      73.010  73.049 109.156  0.00  0.00    +0.000 Cl
ATOM     54 CL2  UNL     1      67.921  72.775 107.198  0.00  0.00    +0.000 Cl
BRANCH  48  55
ATOM     55  C21 UNL     1      68.828  70.231 105.714  0.00  0.00    +0.000 C 
ATOM     56  C22 UNL     1      68.587  70.912 104.368  0.00  0.00    +0.000 C 
ENDBRANCH  48  55
BRANCH  50  57
ATOM     57  O6  UNL     1      70.231  73.908 108.779  0.00  0.00    +0.000 OA
ATOM     58  H31 UNL     1      69.588  73.923 109.560  0.00  0.00    +0.000 HD
ENDBRANCH  50  57
BRANCH  52  59
ATOM     59  O7  UNL     1      73.458  70.536 107.505  0.00  0.00    +0.000 OA
ATOM     60  H32 UNL     1      73.859  70.177 108.362  0.00  0.00    +0.000 HD
ENDBRANCH  52  59
ENDBRANCH  45  47
ENDBRANCH  44  45
ENDBRANCH  37  44
ENDBRANCH  32  33
ENDBRANCH  31  32
ENDBRANCH  10  31
BRANCH  22  61
ATOM     61  O12 UNL     1      79.547  63.005 102.162  0.00  0.00    +0.000 OA
BRANCH  61  62
ATOM     62  C40 UNL     1      80.017  63.977 101.246  0.00  0.00    +0.000 C 
ATOM     63  O13 UNL     1      79.064  65.032 101.201  0.00  0.00    +0.000 OA
ATOM     64  C41 UNL     1      78.677  65.560  99.936  0.00  0.00    +0.000 C 
ATOM     65  C42 UNL     1      78.244  67.011 100.231  0.00  0.00    +0.000 C 
ATOM     66  C43 UNL     1      77.427  64.804  99.413  0.00  0.00    +0.000 C 
ATOM     67  C44 UNL     1      79.834  65.574  98.886  0.00  0.00    +0.000 C 
ATOM     68  C49 UNL     1      80.579  64.222  98.763  0.00  0.00    +0.000 C 
ATOM     69  C50 UNL     1      80.293  63.249  99.919  0.00  0.00    +0.000 C 
BRANCH  68  70
ATOM     70  O16 UNL     1      81.966  64.452  98.692  0.00  0.00    +0.000 OA
ATOM     71  H67 UNL     1      82.127  65.357  99.075  0.00  0.00    +0.000 HD
ENDBRANCH  68  70
BRANCH  69  72
ATOM     72  O17 UNL     1      79.227  62.392  99.583  0.00  0.00    +0.000 OA
ATOM     73  H69 UNL     1      78.398  62.793  99.959  0.00  0.00    +0.000 HD
ENDBRANCH  69  72
BRANCH  67  74
ATOM     74  O14 UNL     1      79.326  65.910  97.589  0.00  0.00    +0.000 OA
BRANCH  74  75
ATOM     75  C45 UNL     1      80.102  66.145  96.448  0.00  0.00    +0.000 C 
ATOM     76  O15 UNL     1      81.292  66.558  96.548  0.00  0.00    +0.000 OA
BRANCH  75  77
ATOM     77  C46 UNL     1      79.466  65.955  95.097  0.00  0.00    +0.000 C 
ATOM     78  C47 UNL     1      80.466  65.444  94.053  0.00  0.00    +0.000 C 
ATOM     79  C48 UNL     1      78.821  67.266  94.636  0.00  0.00    +0.000 C 
ENDBRANCH  75  77
ENDBRANCH  74  75
ENDBRANCH  67  74
ENDBRANCH  61  62
ENDBRANCH  22  61
TORSDOF 22
ENDMDL
MODEL 14
REMARK VINA RESULT:      -8.2      6.558     10.339
REMARK  Name = ./S4227.pdb
REMARK  34 active torsions:
REMARK  status: ('A' for Active; 'I' for Inactive)
REMARK    1  A    between atoms: C1_1  and  C2_2
REMARK    2  A    between atoms: C2_2  and  C3_3
REMARK    3  A    between atoms: C5_5  and  C6_6
REMARK    4  A    between atoms: C7_7  and  O1_8
REMARK    5  A    between atoms: C12_13  and  C13_14
REMARK    6  A    between atoms: C13_14  and  O2_15
REMARK    7  A    between atoms: O2_15  and  C14_16
REMARK    8  A    between atoms: C15_18  and  C16_19
REMARK    9  A    between atoms: C17_20  and  O4_21
REMARK   10  A    between atoms: O4_21  and  C18_22
REMARK   11  A    between atoms: C18_22  and  C19_24
REMARK   12  A    between atoms: C20_25  and  C21_26
REMARK   13  A    between atoms: C21_26  and  C22_27
REMARK   14  A    between atoms: C24_29  and  O6_30
REMARK   15  A    between atoms: C26_32  and  O7_33
REMARK   16  A    between atoms: C27_36  and  O8_37
REMARK   17  A    between atoms: C28_38  and  O9_39
REMARK   18  A    between atoms: O9_39  and  C29_40
REMARK   19  A    between atoms: C31_44  and  C51_70
REMARK   20  A    between atoms: C34_47  and  C35_48
REMARK   21  A    between atoms: C37_50  and  C38_51
REMARK   22  A    between atoms: C39_52  and  O12_53
REMARK   23  A    between atoms: O12_53  and  C40_54
REMARK   24  A    between atoms: C41_56  and  C42_57
REMARK   25  A    between atoms: C41_56  and  C43_58
REMARK   26  A    between atoms: C44_59  and  O14_60
REMARK   27  A    between atoms: O14_60  and  C45_61
REMARK   28  A    between atoms: C45_61  and  C46_63
REMARK   29  A    between atoms: C46_63  and  C47_64
REMARK   30  A    between atoms: C46_63  and  C48_65
REMARK   31  A    between atoms: C49_66  and  O16_67
REMARK   32  A    between atoms: C50_68  and  O17_69
REMARK   33  A    between atoms: C51_70  and  C52_71
REMARK   34  A    between atoms: C51_70  and  O18_72
REMARK                            x       y       z     vdW  Elec       q    Type
REMARK                         _______ _______ _______ _____ _____    ______ ____
ROOT
ATOM      1  C3  UNL     1      79.946  64.577 102.783  0.00  0.00    +0.000 C 
ATOM      2  C4  UNL     1      80.199  65.909 103.463  0.00  0.00    +0.000 C 
ATOM      3  C5  UNL     1      79.621  66.385 104.597  0.00  0.00    +0.000 C 
ATOM      4  C6  UNL     1      80.074  67.748 105.061  0.00  0.00    +0.000 C 
ATOM      5  C7  UNL     1      78.533  65.669 105.399  0.00  0.00    +0.000 C 
ATOM      6  C8  UNL     1      79.081  64.464 106.219  0.00  0.00    +0.000 C 
ATOM      7  C9  UNL     1      78.734  63.121 105.635  0.00  0.00    +0.000 C 
ATOM      8  C10 UNL     1      77.514  62.591 105.738  0.00  0.00    +0.000 C 
ATOM      9  C11 UNL     1      77.145  61.432 104.906  0.00  0.00    +0.000 C 
ATOM     10  C12 UNL     1      75.994  60.742 105.016  0.00  0.00    +0.000 C 
ATOM     11  C30 UNL     1      75.688  59.722 103.989  0.00  0.00    +0.000 C 
ATOM     12  O10 UNL     1      74.849  58.805 104.214  0.00  0.00    +0.000 OA
ATOM     13  O11 UNL     1      76.324  59.813 102.751  0.00  0.00    +0.000 OA
ATOM     14  C31 UNL     1      76.058  58.992 101.611  0.00  0.00    +0.000 C 
ATOM     15  C32 UNL     1      76.310  59.803 100.306  0.00  0.00    +0.000 C 
ATOM     16  C33 UNL     1      77.205  61.004 100.549  0.00  0.00    +0.000 C 
ATOM     17  C34 UNL     1      76.795  62.289 100.511  0.00  0.00    +0.000 C 
ATOM     18  C35 UNL     1      75.382  62.668 100.152  0.00  0.00    +0.000 C 
ATOM     19  C36 UNL     1      77.665  63.366 101.043  0.00  0.00    +0.000 C 
ATOM     20  C37 UNL     1      78.913  63.656 100.613  0.00  0.00    +0.000 C 
ATOM     21  C38 UNL     1      79.492  62.939  99.409  0.00  0.00    +0.000 C 
ATOM     22  C39 UNL     1      79.643  64.836 101.269  0.00  0.00    +0.000 C 
ENDROOT
BRANCH   1  24
ATOM     23  C1  UNL     1      80.876  62.187 103.118  0.00  0.00    +0.000 C 
ATOM     24  C2  UNL     1      81.194  63.682 103.031  0.00  0.00    +0.000 C 
ENDBRANCH   1  24
BRANCH   5  25
ATOM     25  O1  UNL     1      77.460  65.324 104.558  0.00  0.00    +0.000 OA
ATOM     26  H12 UNL     1      77.449  64.332 104.488  0.00  0.00    +0.000 HD
ENDBRANCH   5  25
BRANCH  14  27
ATOM     27  C51 UNL     1      76.883  57.679 101.694  0.00  0.00    +0.000 C 
ATOM     28  C52 UNL     1      77.131  57.041 100.323  0.00  0.00    +0.000 C 
BRANCH  27  29
ATOM     29  O18 UNL     1      76.237  56.750 102.526  0.00  0.00    +0.000 OA
ATOM     30  H74 UNL     1      76.564  56.920 103.448  0.00  0.00    +0.000 HD
ENDBRANCH  27  29
ENDBRANCH  14  27
BRANCH  10  31
ATOM     31  C13 UNL     1      75.045  60.943 106.178  0.00  0.00    +0.000 C 
BRANCH  31  32
ATOM     32  O2  UNL     1      73.915  61.673 105.727  0.00  0.00    +0.000 OA
BRANCH  32  33
ATOM     33  C14 UNL     1      74.011  63.059 106.019  0.00  0.00    +0.000 C 
ATOM     34  O3  UNL     1      72.769  63.695 105.733  0.00  0.00    +0.000 OA
ATOM     35  C15 UNL     1      71.726  63.218 106.574  0.00  0.00    +0.000 C 
ATOM     36  C16 UNL     1      70.403  63.825 106.099  0.00  0.00    +0.000 C 
ATOM     37  C17 UNL     1      72.005  63.586 108.049  0.00  0.00    +0.000 C 
ATOM     38  C27 UNL     1      73.327  62.894 108.443  0.00  0.00    +0.000 C 
ATOM     39  C28 UNL     1      74.460  63.318 107.482  0.00  0.00    +0.000 C 
BRANCH  38  40
ATOM     40  O8  UNL     1      73.653  63.104 109.793  0.00  0.00    +0.000 OA
ATOM     41  H34 UNL     1      74.474  63.659 109.841  0.00  0.00    +0.000 HD
ENDBRANCH  38  40
BRANCH  39  42
ATOM     42  O9  UNL     1      74.722  64.706 107.634  0.00  0.00    +0.000 OA
ATOM     43  C29 UNL     1      75.991  64.927 108.206  0.00  0.00    +0.000 C 
ENDBRANCH  39  42
BRANCH  37  44
ATOM     44  O4  UNL     1      72.117  65.010 108.159  0.00  0.00    +0.000 OA
BRANCH  44  45
ATOM     45  C18 UNL     1      71.656  65.765 109.242  0.00  0.00    +0.000 C 
ATOM     46  O5  UNL     1      70.423  65.829 109.503  0.00  0.00    +0.000 OA
BRANCH  45  47
ATOM     47  C19 UNL     1      72.635  66.436 110.125  0.00  0.00    +0.000 A 
ATOM     48  C20 UNL     1      73.319  67.613 109.721  0.00  0.00    +0.000 A 
ATOM     49  C23 UNL     1      74.274  68.190 110.592  0.00  0.00    +0.000 A 
ATOM     50  C24 UNL     1      74.559  67.583 111.831  0.00  0.00    +0.000 A 
ATOM     51  C25 UNL     1      73.877  66.424 112.221  0.00  0.00    +0.000 A 
ATOM     52  C26 UNL     1      72.914  65.850 111.375  0.00  0.00    +0.000 A 
ATOM     53 CL1  UNL     1      74.262  65.692 113.780  0.00  0.00    +0.000 Cl
ATOM     54 CL2  UNL     1      75.110  69.682 110.151  0.00  0.00    +0.000 Cl
BRANCH  48  55
ATOM     55  C21 UNL     1      72.950  68.320 108.428  0.00  0.00    +0.000 C 
ATOM     56  C22 UNL     1      73.984  68.037 107.340  0.00  0.00    +0.000 C 
ENDBRANCH  48  55
BRANCH  50  57
ATOM     57  O6  UNL     1      75.512  68.117 112.702  0.00  0.00    +0.000 OA
ATOM     58  H31 UNL     1      76.194  67.554 113.195  0.00  0.00    +0.000 HD
ENDBRANCH  50  57
BRANCH  52  59
ATOM     59  O7  UNL     1      72.229  64.692 111.753  0.00  0.00    +0.000 OA
ATOM     60  H32 UNL     1      72.402  64.201 112.620  0.00  0.00    +0.000 HD
ENDBRANCH  52  59
ENDBRANCH  45  47
ENDBRANCH  44  45
ENDBRANCH  37  44
ENDBRANCH  32  33
ENDBRANCH  31  32
ENDBRANCH  10  31
BRANCH  22  61
ATOM     61  O12 UNL     1      80.876  65.121 100.619  0.00  0.00    +0.000 OA
BRANCH  61  62
ATOM     62  C40 UNL     1      80.859  66.302  99.840  0.00  0.00    +0.000 C 
ATOM     63  O13 UNL     1      79.613  66.356  99.154  0.00  0.00    +0.000 OA
ATOM     64  C41 UNL     1      79.599  66.705  97.774  0.00  0.00    +0.000 C 
ATOM     65  C42 UNL     1      78.204  67.322  97.539  0.00  0.00    +0.000 C 
ATOM     66  C43 UNL     1      79.686  65.421  96.908  0.00  0.00    +0.000 C 
ATOM     67  C44 UNL     1      80.693  67.750  97.384  0.00  0.00    +0.000 C 
ATOM     68  C49 UNL     1      82.111  67.383  97.890  0.00  0.00    +0.000 C 
ATOM     69  C50 UNL     1      82.122  66.280  98.960  0.00  0.00    +0.000 C 
BRANCH  68  70
ATOM     70  O16 UNL     1      82.738  68.532  98.408  0.00  0.00    +0.000 OA
ATOM     71  H67 UNL     1      82.192  69.313  98.120  0.00  0.00    +0.000 HD
ENDBRANCH  68  70
BRANCH  69  72
ATOM     72  O17 UNL     1      82.296  65.019  98.361  0.00  0.00    +0.000 OA
ATOM     73  H69 UNL     1      81.569  64.908  97.691  0.00  0.00    +0.000 HD
ENDBRANCH  69  72
BRANCH  67  74
ATOM     74  O14 UNL     1      80.763  67.890  95.959  0.00  0.00    +0.000 OA
BRANCH  74  75
ATOM     75  C45 UNL     1      80.020  68.798  95.195  0.00  0.00    +0.000 C 
ATOM     76  O15 UNL     1      79.817  69.976  95.605  0.00  0.00    +0.000 OA
BRANCH  75  77
ATOM     77  C46 UNL     1      79.416  68.319  93.901  0.00  0.00    +0.000 C 
ATOM     78  C47 UNL     1      77.884  68.288  93.955  0.00  0.00    +0.000 C 
ATOM     79  C48 UNL     1      79.976  66.939  93.545  0.00  0.00    +0.000 C 
ENDBRANCH  75  77
ENDBRANCH  74  75
ENDBRANCH  67  74
ENDBRANCH  61  62
ENDBRANCH  22  61
TORSDOF 22
ENDMDL
MODEL 15
REMARK VINA RESULT:      -8.2      5.745      9.883
REMARK  Name = ./S4227.pdb
REMARK  34 active torsions:
REMARK  status: ('A' for Active; 'I' for Inactive)
REMARK    1  A    between atoms: C1_1  and  C2_2
REMARK    2  A    between atoms: C2_2  and  C3_3
REMARK    3  A    between atoms: C5_5  and  C6_6
REMARK    4  A    between atoms: C7_7  and  O1_8
REMARK    5  A    between atoms: C12_13  and  C13_14
REMARK    6  A    between atoms: C13_14  and  O2_15
REMARK    7  A    between atoms: O2_15  and  C14_16
REMARK    8  A    between atoms: C15_18  and  C16_19
REMARK    9  A    between atoms: C17_20  and  O4_21
REMARK   10  A    between atoms: O4_21  and  C18_22
REMARK   11  A    between atoms: C18_22  and  C19_24
REMARK   12  A    between atoms: C20_25  and  C21_26
REMARK   13  A    between atoms: C21_26  and  C22_27
REMARK   14  A    between atoms: C24_29  and  O6_30
REMARK   15  A    between atoms: C26_32  and  O7_33
REMARK   16  A    between atoms: C27_36  and  O8_37
REMARK   17  A    between atoms: C28_38  and  O9_39
REMARK   18  A    between atoms: O9_39  and  C29_40
REMARK   19  A    between atoms: C31_44  and  C51_70
REMARK   20  A    between atoms: C34_47  and  C35_48
REMARK   21  A    between atoms: C37_50  and  C38_51
REMARK   22  A    between atoms: C39_52  and  O12_53
REMARK   23  A    between atoms: O12_53  and  C40_54
REMARK   24  A    between atoms: C41_56  and  C42_57
REMARK   25  A    between atoms: C41_56  and  C43_58
REMARK   26  A    between atoms: C44_59  and  O14_60
REMARK   27  A    between atoms: O14_60  and  C45_61
REMARK   28  A    between atoms: C45_61  and  C46_63
REMARK   29  A    between atoms: C46_63  and  C47_64
REMARK   30  A    between atoms: C46_63  and  C48_65
REMARK   31  A    between atoms: C49_66  and  O16_67
REMARK   32  A    between atoms: C50_68  and  O17_69
REMARK   33  A    between atoms: C51_70  and  C52_71
REMARK   34  A    between atoms: C51_70  and  O18_72
REMARK                            x       y       z     vdW  Elec       q    Type
REMARK                         _______ _______ _______ _____ _____    ______ ____
ROOT
ATOM      1  C3  UNL     1      75.943  61.079 101.812  0.00  0.00    +0.000 C 
ATOM      2  C4  UNL     1      76.713  61.978 100.863  0.00  0.00    +0.000 C 
ATOM      3  C5  UNL     1      77.224  63.211 101.120  0.00  0.00    +0.000 C 
ATOM      4  C6  UNL     1      77.963  63.881  99.987  0.00  0.00    +0.000 C 
ATOM      5  C7  UNL     1      77.069  63.973 102.437  0.00  0.00    +0.000 C 
ATOM      6  C8  UNL     1      77.964  63.397 103.576  0.00  0.00    +0.000 C 
ATOM      7  C9  UNL     1      77.204  62.605 104.605  0.00  0.00    +0.000 C 
ATOM      8  C10 UNL     1      76.450  63.185 105.540  0.00  0.00    +0.000 C 
ATOM      9  C11 UNL     1      75.501  62.375 106.325  0.00  0.00    +0.000 C 
ATOM     10  C12 UNL     1      74.786  62.829 107.371  0.00  0.00    +0.000 C 
ATOM     11  C30 UNL     1      73.741  61.948 107.939  0.00  0.00    +0.000 C 
ATOM     12  O10 UNL     1      73.301  62.133 109.108  0.00  0.00    +0.000 OA
ATOM     13  O11 UNL     1      73.229  60.924 107.143  0.00  0.00    +0.000 OA
ATOM     14  C31 UNL     1      72.139  60.063 107.484  0.00  0.00    +0.000 C 
ATOM     15  C32 UNL     1      71.375  59.643 106.194  0.00  0.00    +0.000 C 
ATOM     16  C33 UNL     1      72.224  59.818 104.950  0.00  0.00    +0.000 C 
ATOM     17  C34 UNL     1      72.016  60.755 104.002  0.00  0.00    +0.000 C 
ATOM     18  C35 UNL     1      70.849  61.706 104.058  0.00  0.00    +0.000 C 
ATOM     19  C36 UNL     1      73.059  61.032 102.984  0.00  0.00    +0.000 C 
ATOM     20  C37 UNL     1      73.569  60.133 102.113  0.00  0.00    +0.000 C 
ATOM     21  C38 UNL     1      72.990  58.734 102.032  0.00  0.00    +0.000 C 
ATOM     22  C39 UNL     1      74.622  60.622 101.109  0.00  0.00    +0.000 C 
ENDROOT
BRANCH   1  24
ATOM     23  C1  UNL     1      76.589  59.313 103.588  0.00  0.00    +0.000 C 
ATOM     24  C2  UNL     1      76.884  59.904 102.207  0.00  0.00    +0.000 C 
ENDBRANCH   1  24
BRANCH   5  25
ATOM     25  O1  UNL     1      75.711  64.058 102.790  0.00  0.00    +0.000 OA
ATOM     26  H12 UNL     1      75.376  64.934 102.461  0.00  0.00    +0.000 HD
ENDBRANCH   5  25
BRANCH  14  27
ATOM     27  C51 UNL     1      72.651  58.861 108.322  0.00  0.00    +0.000 C 
ATOM     28  C52 UNL     1      74.180  58.769 108.363  0.00  0.00    +0.000 C 
BRANCH  27  29
ATOM     29  O18 UNL     1      72.130  57.658 107.816  0.00  0.00    +0.000 OA
ATOM     30  H74 UNL     1      72.445  57.586 106.877  0.00  0.00    +0.000 HD
ENDBRANCH  27  29
ENDBRANCH  14  27
BRANCH  10  31
ATOM     31  C13 UNL     1      75.057  64.176 108.006  0.00  0.00    +0.000 C 
BRANCH  31  32
ATOM     32  O2  UNL     1      73.869  64.951 107.964  0.00  0.00    +0.000 OA
BRANCH  32  33
ATOM     33  C14 UNL     1      74.100  66.315 108.279  0.00  0.00    +0.000 C 
ATOM     34  O3  UNL     1      74.078  67.092 107.086  0.00  0.00    +0.000 OA
ATOM     35  C15 UNL     1      72.799  67.074 106.466  0.00  0.00    +0.000 C 
ATOM     36  C16 UNL     1      72.900  67.790 105.118  0.00  0.00    +0.000 C 
ATOM     37  C17 UNL     1      71.745  67.751 107.373  0.00  0.00    +0.000 C 
ATOM     38  C27 UNL     1      71.686  66.933 108.682  0.00  0.00    +0.000 C 
ATOM     39  C28 UNL     1      73.087  66.852 109.326  0.00  0.00    +0.000 C 
BRANCH  38  40
ATOM     40  O8  UNL     1      70.708  67.418 109.565  0.00  0.00    +0.000 OA
ATOM     41  H34 UNL     1      70.485  68.352 109.314  0.00  0.00    +0.000 HD
ENDBRANCH  38  40
BRANCH  39  42
ATOM     42  O9  UNL     1      73.502  68.148 109.732  0.00  0.00    +0.000 OA
ATOM     43  C29 UNL     1      74.680  68.090 110.505  0.00  0.00    +0.000 C 
ENDBRANCH  39  42
BRANCH  37  44
ATOM     44  O4  UNL     1      72.151  69.101 107.629  0.00  0.00    +0.000 OA
BRANCH  44  45
ATOM     45  C18 UNL     1      71.371  70.231 107.369  0.00  0.00    +0.000 C 
ATOM     46  O5  UNL     1      70.894  70.915 108.317  0.00  0.00    +0.000 OA
BRANCH  45  47
ATOM     47  C19 UNL     1      71.163  70.660 105.969  0.00  0.00    +0.000 A 
ATOM     48  C20 UNL     1      72.159  71.371 105.250  0.00  0.00    +0.000 A 
ATOM     49  C23 UNL     1      71.890  71.790 103.926  0.00  0.00    +0.000 A 
ATOM     50  C24 UNL     1      70.634  71.526 103.343  0.00  0.00    +0.000 A 
ATOM     51  C25 UNL     1      69.659  70.822 104.058  0.00  0.00    +0.000 A 
ATOM     52  C26 UNL     1      69.919  70.384 105.367  0.00  0.00    +0.000 A 
ATOM     53 CL1  UNL     1      68.099  70.512 103.294  0.00  0.00    +0.000 Cl
ATOM     54 CL2  UNL     1      73.120  72.632 102.979  0.00  0.00    +0.000 Cl
BRANCH  48  55
ATOM     55  C21 UNL     1      73.544  71.577 105.842  0.00  0.00    +0.000 C 
ATOM     56  C22 UNL     1      73.642  72.936 106.533  0.00  0.00    +0.000 C 
ENDBRANCH  48  55
BRANCH  50  57
ATOM     57  O6  UNL     1      70.331  71.947 102.045  0.00  0.00    +0.000 OA
ATOM     58  H31 UNL     1      69.574  72.582 101.828  0.00  0.00    +0.000 HD
ENDBRANCH  50  57
BRANCH  52  59
ATOM     59  O7  UNL     1      68.952  69.682 106.092  0.00  0.00    +0.000 OA
ATOM     60  H32 UNL     1      68.874  69.721 107.099  0.00  0.00    +0.000 HD
ENDBRANCH  52  59
ENDBRANCH  45  47
ENDBRANCH  44  45
ENDBRANCH  37  44
ENDBRANCH  32  33
ENDBRANCH  31  32
ENDBRANCH  10  31
BRANCH  22  61
ATOM     61  O12 UNL     1      74.956  59.615 100.162  0.00  0.00    +0.000 OA
BRANCH  61  62
ATOM     62  C40 UNL     1      74.397  59.821  98.878  0.00  0.00    +0.000 C 
ATOM     63  O13 UNL     1      73.465  60.892  98.973  0.00  0.00    +0.000 OA
ATOM     64  C41 UNL     1      72.193  60.759  98.345  0.00  0.00    +0.000 C 
ATOM     65  C42 UNL     1      71.752  62.206  98.041  0.00  0.00    +0.000 C 
ATOM     66  C43 UNL     1      71.172  60.169  99.352  0.00  0.00    +0.000 C 
ATOM     67  C44 UNL     1      72.238  59.946  97.012  0.00  0.00    +0.000 C 
ATOM     68  C49 UNL     1      72.986  58.594  97.133  0.00  0.00    +0.000 C 
ATOM     69  C50 UNL     1      73.836  58.468  98.407  0.00  0.00    +0.000 C 
BRANCH  68  70
ATOM     70  O16 UNL     1      73.814  58.412  96.010  0.00  0.00    +0.000 OA
ATOM     71  H67 UNL     1      73.672  57.478  95.696  0.00  0.00    +0.000 HD
ENDBRANCH  68  70
BRANCH  69  72
ATOM     72  O17 UNL     1      73.093  57.848  99.431  0.00  0.00    +0.000 OA
ATOM     73  H69 UNL     1      72.483  57.193  98.997  0.00  0.00    +0.000 HD
ENDBRANCH  69  72
BRANCH  67  74
ATOM     74  O14 UNL     1      70.909  59.668  96.553  0.00  0.00    +0.000 OA
BRANCH  74  75
ATOM     75  C45 UNL     1      70.304  60.234  95.424  0.00  0.00    +0.000 C 
ATOM     76  O15 UNL     1      70.945  60.364  94.343  0.00  0.00    +0.000 OA
BRANCH  75  77
ATOM     77  C46 UNL     1      68.892  60.742  95.546  0.00  0.00    +0.000 C 
ATOM     78  C47 UNL     1      68.458  60.897  97.008  0.00  0.00    +0.000 C 
ATOM     79  C48 UNL     1      67.938  59.811  94.791  0.00  0.00    +0.000 C 
ENDBRANCH  75  77
ENDBRANCH  74  75
ENDBRANCH  67  74
ENDBRANCH  61  62
ENDBRANCH  22  61
TORSDOF 22
ENDMDL
MODEL 16
REMARK VINA RESULT:      -8.1      6.381     10.949
REMARK  Name = ./S4227.pdb
REMARK  34 active torsions:
REMARK  status: ('A' for Active; 'I' for Inactive)
REMARK    1  A    between atoms: C1_1  and  C2_2
REMARK    2  A    between atoms: C2_2  and  C3_3
REMARK    3  A    between atoms: C5_5  and  C6_6
REMARK    4  A    between atoms: C7_7  and  O1_8
REMARK    5  A    between atoms: C12_13  and  C13_14
REMARK    6  A    between atoms: C13_14  and  O2_15
REMARK    7  A    between atoms: O2_15  and  C14_16
REMARK    8  A    between atoms: C15_18  and  C16_19
REMARK    9  A    between atoms: C17_20  and  O4_21
REMARK   10  A    between atoms: O4_21  and  C18_22
REMARK   11  A    between atoms: C18_22  and  C19_24
REMARK   12  A    between atoms: C20_25  and  C21_26
REMARK   13  A    between atoms: C21_26  and  C22_27
REMARK   14  A    between atoms: C24_29  and  O6_30
REMARK   15  A    between atoms: C26_32  and  O7_33
REMARK   16  A    between atoms: C27_36  and  O8_37
REMARK   17  A    between atoms: C28_38  and  O9_39
REMARK   18  A    between atoms: O9_39  and  C29_40
REMARK   19  A    between atoms: C31_44  and  C51_70
REMARK   20  A    between atoms: C34_47  and  C35_48
REMARK   21  A    between atoms: C37_50  and  C38_51
REMARK   22  A    between atoms: C39_52  and  O12_53
REMARK   23  A    between atoms: O12_53  and  C40_54
REMARK   24  A    between atoms: C41_56  and  C42_57
REMARK   25  A    between atoms: C41_56  and  C43_58
REMARK   26  A    between atoms: C44_59  and  O14_60
REMARK   27  A    between atoms: O14_60  and  C45_61
REMARK   28  A    between atoms: C45_61  and  C46_63
REMARK   29  A    between atoms: C46_63  and  C47_64
REMARK   30  A    between atoms: C46_63  and  C48_65
REMARK   31  A    between atoms: C49_66  and  O16_67
REMARK   32  A    between atoms: C50_68  and  O17_69
REMARK   33  A    between atoms: C51_70  and  C52_71
REMARK   34  A    between atoms: C51_70  and  O18_72
REMARK                            x       y       z     vdW  Elec       q    Type
REMARK                         _______ _______ _______ _____ _____    ______ ____
ROOT
ATOM      1  C3  UNL     1      77.914  64.982 104.160  0.00  0.00    +0.000 C 
ATOM      2  C4  UNL     1      78.383  66.422 104.235  0.00  0.00    +0.000 C 
ATOM      3  C5  UNL     1      78.158  67.318 105.232  0.00  0.00    +0.000 C 
ATOM      4  C6  UNL     1      78.759  68.690 105.051  0.00  0.00    +0.000 C 
ATOM      5  C7  UNL     1      77.317  67.052 106.482  0.00  0.00    +0.000 C 
ATOM      6  C8  UNL     1      78.041  66.132 107.512  0.00  0.00    +0.000 C 
ATOM      7  C9  UNL     1      77.508  64.726 107.550  0.00  0.00    +0.000 C 
ATOM      8  C10 UNL     1      76.352  64.415 108.139  0.00  0.00    +0.000 C 
ATOM      9  C11 UNL     1      75.734  63.100 107.895  0.00  0.00    +0.000 C 
ATOM     10  C12 UNL     1      74.641  62.634 108.529  0.00  0.00    +0.000 C 
ATOM     11  C30 UNL     1      74.034  61.375 108.044  0.00  0.00    +0.000 C 
ATOM     12  O10 UNL     1      73.267  60.697 108.784  0.00  0.00    +0.000 OA
ATOM     13  O11 UNL     1      74.302  60.968 106.738  0.00  0.00    +0.000 OA
ATOM     14  C31 UNL     1      73.706  59.851 106.071  0.00  0.00    +0.000 C 
ATOM     15  C32 UNL     1      73.606  60.142 104.544  0.00  0.00    +0.000 C 
ATOM     16  C33 UNL     1      74.564  61.234 104.111  0.00  0.00    +0.000 C 
ATOM     17  C34 UNL     1      74.195  62.473 103.723  0.00  0.00    +0.000 C 
ATOM     18  C35 UNL     1      72.748  62.881 103.621  0.00  0.00    +0.000 C 
ATOM     19  C36 UNL     1      75.207  63.549 103.600  0.00  0.00    +0.000 C 
ATOM     20  C37 UNL     1      76.293  63.523 102.795  0.00  0.00    +0.000 C 
ATOM     21  C38 UNL     1      76.494  62.378 101.821  0.00  0.00    +0.000 C 
ATOM     22  C39 UNL     1      77.209  64.754 102.782  0.00  0.00    +0.000 C 
ENDROOT
BRANCH   1  24
ATOM     23  C1  UNL     1      78.823  62.703 104.981  0.00  0.00    +0.000 C 
ATOM     24  C2  UNL     1      79.158  64.074 104.388  0.00  0.00    +0.000 C 
ENDBRANCH   1  24
BRANCH   5  25
ATOM     25  O1  UNL     1      76.044  66.580 106.118  0.00  0.00    +0.000 OA
ATOM     26  H12 UNL     1      75.709  66.027 106.873  0.00  0.00    +0.000 HD
ENDBRANCH   5  25
BRANCH  14  27
ATOM     27  C51 UNL     1      74.486  58.551 106.405  0.00  0.00    +0.000 C 
ATOM     28  C52 UNL     1      74.301  57.455 105.350  0.00  0.00    +0.000 C 
BRANCH  27  29
ATOM     29  O18 UNL     1      74.092  58.055 107.659  0.00  0.00    +0.000 OA
ATOM     30  H74 UNL     1      73.738  57.141 107.503  0.00  0.00    +0.000 HD
ENDBRANCH  27  29
ENDBRANCH  14  27
BRANCH  10  31
ATOM     31  C13 UNL     1      74.060  63.328 109.743  0.00  0.00    +0.000 C 
BRANCH  31  32
ATOM     32  O2  UNL     1      73.013  64.189 109.322  0.00  0.00    +0.000 OA
BRANCH  32  33
ATOM     33  C14 UNL     1      73.442  65.534 109.175  0.00  0.00    +0.000 C 
ATOM     34  O3  UNL     1      73.577  65.844 107.792  0.00  0.00    +0.000 OA
ATOM     35  C15 UNL     1      72.329  65.784 107.112  0.00  0.00    +0.000 C 
ATOM     36  C16 UNL     1      72.580  65.967 105.614  0.00  0.00    +0.000 C 
ATOM     37  C17 UNL     1      71.365  66.868 107.648  0.00  0.00    +0.000 C 
ATOM     38  C27 UNL     1      71.141  66.571 109.146  0.00  0.00    +0.000 C 
ATOM     39  C28 UNL     1      72.492  66.531 109.892  0.00  0.00    +0.000 C 
BRANCH  38  40
ATOM     40  O8  UNL     1      70.224  67.459 109.731  0.00  0.00    +0.000 OA
ATOM     41  H34 UNL     1      70.152  67.253 110.699  0.00  0.00    +0.000 HD
ENDBRANCH  38  40
BRANCH  39  42
ATOM     42  O9  UNL     1      73.090  67.819 109.868  0.00  0.00    +0.000 OA
ATOM     43  C29 UNL     1      74.293  67.839 110.603  0.00  0.00    +0.000 C 
ENDBRANCH  39  42
BRANCH  37  44
ATOM     44  O4  UNL     1      71.967  68.155 107.464  0.00  0.00    +0.000 OA
BRANCH  44  45
ATOM     45  C18 UNL     1      71.266  69.327 107.162  0.00  0.00    +0.000 C 
ATOM     46  O5  UNL     1      70.824  70.068 108.083  0.00  0.00    +0.000 OA
BRANCH  45  47
ATOM     47  C19 UNL     1      71.106  69.729 105.748  0.00  0.00    +0.000 A 
ATOM     48  C20 UNL     1      72.221  69.867 104.880  0.00  0.00    +0.000 A 
ATOM     49  C23 UNL     1      72.010  70.292 103.546  0.00  0.00    +0.000 A 
ATOM     50  C24 UNL     1      70.710  70.603 103.101  0.00  0.00    +0.000 A 
ATOM     51  C25 UNL     1      69.617  70.462 103.963  0.00  0.00    +0.000 A 
ATOM     52  C26 UNL     1      69.808  70.023 105.283  0.00  0.00    +0.000 A 
ATOM     53 CL1  UNL     1      68.004  70.861 103.367  0.00  0.00    +0.000 Cl
ATOM     54 CL2  UNL     1      73.363  70.427 102.419  0.00  0.00    +0.000 Cl
BRANCH  48  55
ATOM     55  C21 UNL     1      73.610  69.446 105.329  0.00  0.00    +0.000 C 
ATOM     56  C22 UNL     1      74.397  70.646 105.855  0.00  0.00    +0.000 C 
ENDBRANCH  48  55
BRANCH  50  57
ATOM     57  O6  UNL     1      70.474  71.047 101.797  0.00  0.00    +0.000 OA
ATOM     58  H31 UNL     1      70.118  70.450 101.061  0.00  0.00    +0.000 HD
ENDBRANCH  50  57
BRANCH  52  59
ATOM     59  O7  UNL     1      68.724  69.880 106.154  0.00  0.00    +0.000 OA
ATOM     60  H32 UNL     1      68.281  68.993 106.350  0.00  0.00    +0.000 HD
ENDBRANCH  52  59
ENDBRANCH  45  47
ENDBRANCH  44  45
ENDBRANCH  37  44
ENDBRANCH  32  33
ENDBRANCH  31  32
ENDBRANCH  10  31
BRANCH  22  61
ATOM     61  O12 UNL     1      78.218  64.651 101.786  0.00  0.00    +0.000 OA
BRANCH  61  62
ATOM     62  C40 UNL     1      77.756  64.883 100.468  0.00  0.00    +0.000 C 
ATOM     63  O13 UNL     1      78.845  64.670  99.579  0.00  0.00    +0.000 OA
ATOM     64  C41 UNL     1      79.077  65.608  98.532  0.00  0.00    +0.000 C 
ATOM     65  C42 UNL     1      79.789  64.798  97.429  0.00  0.00    +0.000 C 
ATOM     66  C43 UNL     1      80.068  66.698  99.016  0.00  0.00    +0.000 C 
ATOM     67  C44 UNL     1      77.766  66.226  97.948  0.00  0.00    +0.000 C 
ATOM     68  C49 UNL     1      76.798  66.769  99.030  0.00  0.00    +0.000 C 
ATOM     69  C50 UNL     1      77.126  66.287 100.452  0.00  0.00    +0.000 C 
BRANCH  68  70
ATOM     70  O16 UNL     1      75.479  66.395  98.712  0.00  0.00    +0.000 OA
ATOM     71  H67 UNL     1      75.345  65.477  99.073  0.00  0.00    +0.000 HD
ENDBRANCH  68  70
BRANCH  69  72
ATOM     72  O17 UNL     1      77.957  67.219 101.104  0.00  0.00    +0.000 OA
ATOM     73  H69 UNL     1      78.710  66.710 101.508  0.00  0.00    +0.000 HD
ENDBRANCH  69  72
BRANCH  67  74
ATOM     74  O14 UNL     1      78.077  67.308  97.062  0.00  0.00    +0.000 OA
BRANCH  74  75
ATOM     75  C45 UNL     1      77.431  67.577  95.849  0.00  0.00    +0.000 C 
ATOM     76  O15 UNL     1      76.173  67.504  95.756  0.00  0.00    +0.000 OA
BRANCH  75  77
ATOM     77  C46 UNL     1      78.274  67.895  94.643  0.00  0.00    +0.000 C 
ATOM     78  C47 UNL     1      79.766  67.653  94.900  0.00  0.00    +0.000 C 
ATOM     79  C48 UNL     1      78.026  69.341  94.201  0.00  0.00    +0.000 C 
ENDBRANCH  75  77
ENDBRANCH  74  75
ENDBRANCH  67  74
ENDBRANCH  61  62
ENDBRANCH  22  61
TORSDOF 22
ENDMDL
MODEL 17
REMARK VINA RESULT:      -8.1      5.624      9.622
REMARK  Name = ./S4227.pdb
REMARK  34 active torsions:
REMARK  status: ('A' for Active; 'I' for Inactive)
REMARK    1  A    between atoms: C1_1  and  C2_2
REMARK    2  A    between atoms: C2_2  and  C3_3
REMARK    3  A    between atoms: C5_5  and  C6_6
REMARK    4  A    between atoms: C7_7  and  O1_8
REMARK    5  A    between atoms: C12_13  and  C13_14
REMARK    6  A    between atoms: C13_14  and  O2_15
REMARK    7  A    between atoms: O2_15  and  C14_16
REMARK    8  A    between atoms: C15_18  and  C16_19
REMARK    9  A    between atoms: C17_20  and  O4_21
REMARK   10  A    between atoms: O4_21  and  C18_22
REMARK   11  A    between atoms: C18_22  and  C19_24
REMARK   12  A    between atoms: C20_25  and  C21_26
REMARK   13  A    between atoms: C21_26  and  C22_27
REMARK   14  A    between atoms: C24_29  and  O6_30
REMARK   15  A    between atoms: C26_32  and  O7_33
REMARK   16  A    between atoms: C27_36  and  O8_37
REMARK   17  A    between atoms: C28_38  and  O9_39
REMARK   18  A    between atoms: O9_39  and  C29_40
REMARK   19  A    between atoms: C31_44  and  C51_70
REMARK   20  A    between atoms: C34_47  and  C35_48
REMARK   21  A    between atoms: C37_50  and  C38_51
REMARK   22  A    between atoms: C39_52  and  O12_53
REMARK   23  A    between atoms: O12_53  and  C40_54
REMARK   24  A    between atoms: C41_56  and  C42_57
REMARK   25  A    between atoms: C41_56  and  C43_58
REMARK   26  A    between atoms: C44_59  and  O14_60
REMARK   27  A    between atoms: O14_60  and  C45_61
REMARK   28  A    between atoms: C45_61  and  C46_63
REMARK   29  A    between atoms: C46_63  and  C47_64
REMARK   30  A    between atoms: C46_63  and  C48_65
REMARK   31  A    between atoms: C49_66  and  O16_67
REMARK   32  A    between atoms: C50_68  and  O17_69
REMARK   33  A    between atoms: C51_70  and  C52_71
REMARK   34  A    between atoms: C51_70  and  O18_72
REMARK                            x       y       z     vdW  Elec       q    Type
REMARK                         _______ _______ _______ _____ _____    ______ ____
ROOT
ATOM      1  C3  UNL     1      73.411  64.422 109.243  0.00  0.00    +0.000 C 
ATOM      2  C4  UNL     1      74.470  63.548 109.889  0.00  0.00    +0.000 C 
ATOM      3  C5  UNL     1      75.618  63.948 110.497  0.00  0.00    +0.000 C 
ATOM      4  C6  UNL     1      76.489  62.857 111.070  0.00  0.00    +0.000 C 
ATOM      5  C7  UNL     1      76.103  65.394 110.601  0.00  0.00    +0.000 C 
ATOM      6  C8  UNL     1      75.297  66.227 111.643  0.00  0.00    +0.000 C 
ATOM      7  C9  UNL     1      74.326  67.198 111.026  0.00  0.00    +0.000 C 
ATOM      8  C10 UNL     1      74.720  68.344 110.467  0.00  0.00    +0.000 C 
ATOM      9  C11 UNL     1      73.785  69.108 109.623  0.00  0.00    +0.000 C 
ATOM     10  C12 UNL     1      74.031  70.331 109.115  0.00  0.00    +0.000 C 
ATOM     11  C30 UNL     1      73.071  70.888 108.137  0.00  0.00    +0.000 C 
ATOM     12  O10 UNL     1      73.026  72.129 107.906  0.00  0.00    +0.000 OA
ATOM     13  O11 UNL     1      72.236  70.008 107.449  0.00  0.00    +0.000 OA
ATOM     14  C31 UNL     1      71.342  70.360 106.389  0.00  0.00    +0.000 C 
ATOM     15  C32 UNL     1      71.201  69.164 105.401  0.00  0.00    +0.000 C 
ATOM     16  C33 UNL     1      71.607  67.850 106.039  0.00  0.00    +0.000 C 
ATOM     17  C34 UNL     1      72.719  67.152 105.723  0.00  0.00    +0.000 C 
ATOM     18  C35 UNL     1      73.657  67.594 104.631  0.00  0.00    +0.000 C 
ATOM     19  C36 UNL     1      73.177  66.044 106.595  0.00  0.00    +0.000 C 
ATOM     20  C37 UNL     1      72.462  64.940 106.908  0.00  0.00    +0.000 C 
ATOM     21  C38 UNL     1      71.117  64.689 106.254  0.00  0.00    +0.000 C 
ATOM     22  C39 UNL     1      73.126  63.883 107.802  0.00  0.00    +0.000 C 
ENDROOT
BRANCH   1  24
ATOM     23  C1  UNL     1      71.266  65.642 110.021  0.00  0.00    +0.000 C 
ATOM     24  C2  UNL     1      72.166  64.413 110.176  0.00  0.00    +0.000 C 
ENDBRANCH   1  24
BRANCH   5  25
ATOM     25  O1  UNL     1      76.137  65.987 109.327  0.00  0.00    +0.000 OA
ATOM     26  H12 UNL     1      76.687  65.398 108.744  0.00  0.00    +0.000 HD
ENDBRANCH   5  25
BRANCH  14  27
ATOM     27  C51 UNL     1      69.988  70.846 106.972  0.00  0.00    +0.000 C 
ATOM     28  C52 UNL     1      68.788  70.454 106.102  0.00  0.00    +0.000 C 
BRANCH  27  29
ATOM     29  O18 UNL     1      70.002  72.241 107.138  0.00  0.00    +0.000 OA
ATOM     30  H74 UNL     1      69.295  72.603 106.542  0.00  0.00    +0.000 HD
ENDBRANCH  27  29
ENDBRANCH  14  27
BRANCH  10  31
ATOM     31  C13 UNL     1      75.219  71.159 109.555  0.00  0.00    +0.000 C 
BRANCH  31  32
ATOM     32  O2  UNL     1      76.176  71.182 108.508  0.00  0.00    +0.000 OA
BRANCH  32  33
ATOM     33  C14 UNL     1      77.318  70.391 108.799  0.00  0.00    +0.000 C 
ATOM     34  O3  UNL     1      77.159  69.094 108.232  0.00  0.00    +0.000 OA
ATOM     35  C15 UNL     1      77.104  69.142 106.812  0.00  0.00    +0.000 C 
ATOM     36  C16 UNL     1      76.771  67.743 106.289  0.00  0.00    +0.000 C 
ATOM     37  C17 UNL     1      78.446  69.644 106.231  0.00  0.00    +0.000 C 
ATOM     38  C27 UNL     1      78.667  71.071 106.778  0.00  0.00    +0.000 C 
ATOM     39  C28 UNL     1      78.633  71.064 108.321  0.00  0.00    +0.000 C 
BRANCH  38  40
ATOM     40  O8  UNL     1      79.833  71.661 106.262  0.00  0.00    +0.000 OA
ATOM     41  H34 UNL     1      80.023  72.491 106.771  0.00  0.00    +0.000 HD
ENDBRANCH  38  40
BRANCH  39  42
ATOM     42  O9  UNL     1      79.731  70.315 108.821  0.00  0.00    +0.000 OA
ATOM     43  C29 UNL     1      80.367  70.986 109.885  0.00  0.00    +0.000 C 
ENDBRANCH  39  42
BRANCH  37  44
ATOM     44  O4  UNL     1      79.493  68.763 106.655  0.00  0.00    +0.000 OA
BRANCH  44  45
ATOM     45  C18 UNL     1      80.478  68.234 105.816  0.00  0.00    +0.000 C 
ATOM     46  O5  UNL     1      81.650  68.703 105.824  0.00  0.00    +0.000 OA
BRANCH  45  47
ATOM     47  C19 UNL     1      80.153  67.071 104.963  0.00  0.00    +0.000 A 
ATOM     48  C20 UNL     1      80.048  67.186 103.551  0.00  0.00    +0.000 A 
ATOM     49  C23 UNL     1      79.696  66.047 102.789  0.00  0.00    +0.000 A 
ATOM     50  C24 UNL     1      79.425  64.823 103.432  0.00  0.00    +0.000 A 
ATOM     51  C25 UNL     1      79.533  64.718 104.823  0.00  0.00    +0.000 A 
ATOM     52  C26 UNL     1      79.899  65.835 105.591  0.00  0.00    +0.000 A 
ATOM     53 CL1  UNL     1      79.185  63.168 105.591  0.00  0.00    +0.000 Cl
ATOM     54 CL2  UNL     1      79.605  66.135 101.027  0.00  0.00    +0.000 Cl
BRANCH  48  55
ATOM     55  C21 UNL     1      80.427  68.479 102.849  0.00  0.00    +0.000 C 
ATOM     56  C22 UNL     1      79.191  69.338 102.587  0.00  0.00    +0.000 C 
ENDBRANCH  48  55
BRANCH  50  57
ATOM     57  O6  UNL     1      79.053  63.687 102.707  0.00  0.00    +0.000 OA
ATOM     58  H31 UNL     1      78.597  62.885 103.124  0.00  0.00    +0.000 HD
ENDBRANCH  50  57
BRANCH  52  59
ATOM     59  O7  UNL     1      80.009  65.743 106.981  0.00  0.00    +0.000 OA
ATOM     60  H32 UNL     1      79.928  66.540 107.600  0.00  0.00    +0.000 HD
ENDBRANCH  52  59
ENDBRANCH  45  47
ENDBRANCH  44  45
ENDBRANCH  37  44
ENDBRANCH  32  33
ENDBRANCH  31  32
ENDBRANCH  10  31
BRANCH  22  61
ATOM     61  O12 UNL     1      72.324  62.715 107.923  0.00  0.00    +0.000 OA
BRANCH  61  62
ATOM     62  C40 UNL     1      72.974  61.523 107.524  0.00  0.00    +0.000 C 
ATOM     63  O13 UNL     1      74.105  61.884 106.740  0.00  0.00    +0.000 OA
ATOM     64  C41 UNL     1      74.361  61.180 105.529  0.00  0.00    +0.000 C 
ATOM     65  C42 UNL     1      75.885  61.297 105.319  0.00  0.00    +0.000 C 
ATOM     66  C43 UNL     1      73.675  61.910 104.345  0.00  0.00    +0.000 C 
ATOM     67  C44 UNL     1      73.967  59.669 105.591  0.00  0.00    +0.000 C 
ATOM     68  C49 UNL     1      72.537  59.421 106.134  0.00  0.00    +0.000 C 
ATOM     69  C50 UNL     1      71.918  60.643 106.832  0.00  0.00    +0.000 C 
BRANCH  68  70
ATOM     70  O16 UNL     1      72.556  58.339 107.034  0.00  0.00    +0.000 OA
ATOM     71  H67 UNL     1      72.605  57.510 106.487  0.00  0.00    +0.000 HD
ENDBRANCH  68  70
BRANCH  69  72
ATOM     72  O17 UNL     1      71.157  61.395 105.918  0.00  0.00    +0.000 OA
ATOM     73  H69 UNL     1      70.216  61.390 106.243  0.00  0.00    +0.000 HD
ENDBRANCH  69  72
BRANCH  67  74
ATOM     74  O14 UNL     1      74.045  59.079 104.288  0.00  0.00    +0.000 OA
BRANCH  74  75
ATOM     75  C45 UNL     1      74.949  58.082 103.900  0.00  0.00    +0.000 C 
ATOM     76  O15 UNL     1      74.868  57.544 102.759  0.00  0.00    +0.000 OA
BRANCH  75  77
ATOM     77  C46 UNL     1      75.979  57.621 104.896  0.00  0.00    +0.000 C 
ATOM     78  C47 UNL     1      77.396  58.063 104.509  0.00  0.00    +0.000 C 
ATOM     79  C48 UNL     1      75.907  56.099 105.053  0.00  0.00    +0.000 C 
ENDBRANCH  75  77
ENDBRANCH  74  75
ENDBRANCH  67  74
ENDBRANCH  61  62
ENDBRANCH  22  61
TORSDOF 22
ENDMDL
MODEL 18
REMARK VINA RESULT:      -8.1      4.879      6.676
REMARK  Name = ./S4227.pdb
REMARK  34 active torsions:
REMARK  status: ('A' for Active; 'I' for Inactive)
REMARK    1  A    between atoms: C1_1  and  C2_2
REMARK    2  A    between atoms: C2_2  and  C3_3
REMARK    3  A    between atoms: C5_5  and  C6_6
REMARK    4  A    between atoms: C7_7  and  O1_8
REMARK    5  A    between atoms: C12_13  and  C13_14
REMARK    6  A    between atoms: C13_14  and  O2_15
REMARK    7  A    between atoms: O2_15  and  C14_16
REMARK    8  A    between atoms: C15_18  and  C16_19
REMARK    9  A    between atoms: C17_20  and  O4_21
REMARK   10  A    between atoms: O4_21  and  C18_22
REMARK   11  A    between atoms: C18_22  and  C19_24
REMARK   12  A    between atoms: C20_25  and  C21_26
REMARK   13  A    between atoms: C21_26  and  C22_27
REMARK   14  A    between atoms: C24_29  and  O6_30
REMARK   15  A    between atoms: C26_32  and  O7_33
REMARK   16  A    between atoms: C27_36  and  O8_37
REMARK   17  A    between atoms: C28_38  and  O9_39
REMARK   18  A    between atoms: O9_39  and  C29_40
REMARK   19  A    between atoms: C31_44  and  C51_70
REMARK   20  A    between atoms: C34_47  and  C35_48
REMARK   21  A    between atoms: C37_50  and  C38_51
REMARK   22  A    between atoms: C39_52  and  O12_53
REMARK   23  A    between atoms: O12_53  and  C40_54
REMARK   24  A    between atoms: C41_56  and  C42_57
REMARK   25  A    between atoms: C41_56  and  C43_58
REMARK   26  A    between atoms: C44_59  and  O14_60
REMARK   27  A    between atoms: O14_60  and  C45_61
REMARK   28  A    between atoms: C45_61  and  C46_63
REMARK   29  A    between atoms: C46_63  and  C47_64
REMARK   30  A    between atoms: C46_63  and  C48_65
REMARK   31  A    between atoms: C49_66  and  O16_67
REMARK   32  A    between atoms: C50_68  and  O17_69
REMARK   33  A    between atoms: C51_70  and  C52_71
REMARK   34  A    between atoms: C51_70  and  O18_72
REMARK                            x       y       z     vdW  Elec       q    Type
REMARK                         _______ _______ _______ _____ _____    ______ ____
ROOT
ATOM      1  C3  UNL     1      78.970  63.633 104.395  0.00  0.00    +0.000 C 
ATOM      2  C4  UNL     1      80.044  64.704 104.355  0.00  0.00    +0.000 C 
ATOM      3  C5  UNL     1      80.233  65.723 105.234  0.00  0.00    +0.000 C 
ATOM      4  C6  UNL     1      81.398  66.642 104.958  0.00  0.00    +0.000 C 
ATOM      5  C7  UNL     1      79.339  66.025 106.438  0.00  0.00    +0.000 C 
ATOM      6  C8  UNL     1      79.541  65.017 107.609  0.00  0.00    +0.000 C 
ATOM      7  C9  UNL     1      78.425  64.019 107.752  0.00  0.00    +0.000 C 
ATOM      8  C10 UNL     1      77.243  64.341 108.282  0.00  0.00    +0.000 C 
ATOM      9  C11 UNL     1      76.097  63.426 108.129  0.00  0.00    +0.000 C 
ATOM     10  C12 UNL     1      74.900  63.588 108.724  0.00  0.00    +0.000 C 
ATOM     11  C30 UNL     1      73.794  62.688 108.328  0.00  0.00    +0.000 C 
ATOM     12  O10 UNL     1      72.788  62.528 109.074  0.00  0.00    +0.000 OA
ATOM     13  O11 UNL     1      73.873  62.042 107.094  0.00  0.00    +0.000 OA
ATOM     14  C31 UNL     1      72.846  61.239 106.503  0.00  0.00    +0.000 C 
ATOM     15  C32 UNL     1      72.920  61.348 104.952  0.00  0.00    +0.000 C 
ATOM     16  C33 UNL     1      74.280  61.826 104.482  0.00  0.00    +0.000 C 
ATOM     17  C34 UNL     1      74.525  63.038 103.940  0.00  0.00    +0.000 C 
ATOM     18  C35 UNL     1      73.427  64.038 103.688  0.00  0.00    +0.000 C 
ATOM     19  C36 UNL     1      75.919  63.517 103.783  0.00  0.00    +0.000 C 
ATOM     20  C37 UNL     1      76.889  62.902 103.070  0.00  0.00    +0.000 C 
ATOM     21  C38 UNL     1      76.565  61.677 102.238  0.00  0.00    +0.000 C 
ATOM     22  C39 UNL     1      78.267  63.576 102.998  0.00  0.00    +0.000 C 
ENDROOT
BRANCH   1  24
ATOM     23  C1  UNL     1      81.172  62.416 104.999  0.00  0.00    +0.000 C 
ATOM     24  C2  UNL     1      79.657  62.300 104.809  0.00  0.00    +0.000 C 
ENDBRANCH   1  24
BRANCH   5  25
ATOM     25  O1  UNL     1      77.998  66.137 106.030  0.00  0.00    +0.000 OA
ATOM     26  H12 UNL     1      77.983  66.721 105.225  0.00  0.00    +0.000 HD
ENDBRANCH   5  25
BRANCH  14  27
ATOM     27  C51 UNL     1      72.939  59.782 107.029  0.00  0.00    +0.000 C 
ATOM     28  C52 UNL     1      72.536  58.741 105.978  0.00  0.00    +0.000 C 
BRANCH  27  29
ATOM     29  O18 UNL     1      72.134  59.622 108.169  0.00  0.00    +0.000 OA
ATOM     30  H74 UNL     1      72.614  60.065 108.918  0.00  0.00    +0.000 HD
ENDBRANCH  27  29
ENDBRANCH  14  27
BRANCH  10  31
ATOM     31  C13 UNL     1      74.676  64.617 109.812  0.00  0.00    +0.000 C 
BRANCH  31  32
ATOM     32  O2  UNL     1      75.450  64.261 110.946  0.00  0.00    +0.000 OA
BRANCH  32  33
ATOM     33  C14 UNL     1      74.933  63.126 111.624  0.00  0.00    +0.000 C 
ATOM     34  O3  UNL     1      75.828  62.029 111.471  0.00  0.00    +0.000 OA
ATOM     35  C15 UNL     1      77.082  62.281 112.092  0.00  0.00    +0.000 C 
ATOM     36  C16 UNL     1      78.035  61.134 111.747  0.00  0.00    +0.000 C 
ATOM     37  C17 UNL     1      76.914  62.419 113.622  0.00  0.00    +0.000 C 
ATOM     38  C27 UNL     1      75.979  63.623 113.866  0.00  0.00    +0.000 C 
ATOM     39  C28 UNL     1      74.642  63.421 113.120  0.00  0.00    +0.000 C 
BRANCH  38  40
ATOM     40  O8  UNL     1      75.803  63.889 115.234  0.00  0.00    +0.000 OA
ATOM     41  H34 UNL     1      76.659  63.716 115.705  0.00  0.00    +0.000 HD
ENDBRANCH  38  40
BRANCH  39  42
ATOM     42  O9  UNL     1      73.949  62.311 113.672  0.00  0.00    +0.000 OA
ATOM     43  C29 UNL     1      72.906  62.730 114.523  0.00  0.00    +0.000 C 
ENDBRANCH  39  42
BRANCH  37  44
ATOM     44  O4  UNL     1      76.342  61.211 114.137  0.00  0.00    +0.000 OA
BRANCH  44  45
ATOM     45  C18 UNL     1      76.686  60.623 115.359  0.00  0.00    +0.000 C 
ATOM     46  O5  UNL     1      76.501  61.241 116.444  0.00  0.00    +0.000 OA
BRANCH  45  47
ATOM     47  C19 UNL     1      77.208  59.240 115.374  0.00  0.00    +0.000 A 
ATOM     48  C20 UNL     1      78.592  58.962 115.219  0.00  0.00    +0.000 A 
ATOM     49  C23 UNL     1      79.029  57.617 115.203  0.00  0.00    +0.000 A 
ATOM     50  C24 UNL     1      78.095  56.568 115.311  0.00  0.00    +0.000 A 
ATOM     51  C25 UNL     1      76.733  56.852 115.467  0.00  0.00    +0.000 A 
ATOM     52  C26 UNL     1      76.286  58.182 115.503  0.00  0.00    +0.000 A 
ATOM     53 CL1  UNL     1      75.592  55.511 115.600  0.00  0.00    +0.000 Cl
ATOM     54 CL2  UNL     1      80.747  57.229 115.063  0.00  0.00    +0.000 Cl
BRANCH  48  55
ATOM     55  C21 UNL     1      79.611  60.090 115.193  0.00  0.00    +0.000 C 
ATOM     56  C22 UNL     1      80.108  60.405 116.602  0.00  0.00    +0.000 C 
ENDBRANCH  48  55
BRANCH  50  57
ATOM     57  O6  UNL     1      78.494  55.230 115.277  0.00  0.00    +0.000 OA
ATOM     58  H31 UNL     1      78.313  54.575 116.027  0.00  0.00    +0.000 HD
ENDBRANCH  50  57
BRANCH  52  59
ATOM     59  O7  UNL     1      74.928  58.478 115.656  0.00  0.00    +0.000 OA
ATOM     60  H32 UNL     1      74.257  58.419 114.902  0.00  0.00    +0.000 HD
ENDBRANCH  52  59
ENDBRANCH  45  47
ENDBRANCH  44  45
ENDBRANCH  37  44
ENDBRANCH  32  33
ENDBRANCH  31  32
ENDBRANCH  10  31
BRANCH  22  61
ATOM     61  O12 UNL     1      79.137  62.903 102.097  0.00  0.00    +0.000 OA
BRANCH  61  62
ATOM     62  C40 UNL     1      79.691  63.738 101.097  0.00  0.00    +0.000 C 
ATOM     63  O13 UNL     1      78.890  64.910 101.013  0.00  0.00    +0.000 OA
ATOM     64  C41 UNL     1      78.519  65.404  99.730  0.00  0.00    +0.000 C 
ATOM     65  C42 UNL     1      78.303  66.917  99.937  0.00  0.00    +0.000 C 
ATOM     66  C43 UNL     1      77.155  64.797  99.310  0.00  0.00    +0.000 C 
ATOM     67  C44 UNL     1      79.616  65.188  98.638  0.00  0.00    +0.000 C 
ATOM     68  C49 UNL     1      80.163  63.739  98.584  0.00  0.00    +0.000 C 
ATOM     69  C50 UNL     1      79.802  62.893  99.815  0.00  0.00    +0.000 C 
BRANCH  68  70
ATOM     70  O16 UNL     1      81.563  63.769  98.443  0.00  0.00    +0.000 OA
ATOM     71  H67 UNL     1      81.946  63.481  99.315  0.00  0.00    +0.000 HD
ENDBRANCH  68  70
BRANCH  69  72
ATOM     72  O17 UNL     1      78.614  62.174  99.583  0.00  0.00    +0.000 OA
ATOM     73  H69 UNL     1      78.532  61.499 100.309  0.00  0.00    +0.000 HD
ENDBRANCH  69  72
BRANCH  67  74
ATOM     74  O14 UNL     1      79.098  65.506  97.341  0.00  0.00    +0.000 OA
BRANCH  74  75
ATOM     75  C45 UNL     1      79.771  66.233  96.352  0.00  0.00    +0.000 C 
ATOM     76  O15 UNL     1      81.000  66.040  96.130  0.00  0.00    +0.000 OA
BRANCH  75  77
ATOM     77  C46 UNL     1      79.012  67.296  95.602  0.00  0.00    +0.000 C 
ATOM     78  C47 UNL     1      77.514  67.274  95.926  0.00  0.00    +0.000 C 
ATOM     79  C48 UNL     1      79.246  67.137  94.096  0.00  0.00    +0.000 C 
ENDBRANCH  75  77
ENDBRANCH  74  75
ENDBRANCH  67  74
ENDBRANCH  61  62
ENDBRANCH  22  61
TORSDOF 22
ENDMDL
MODEL 19
REMARK VINA RESULT:      -8.0      6.756     10.535
REMARK  Name = ./S4227.pdb
REMARK  34 active torsions:
REMARK  status: ('A' for Active; 'I' for Inactive)
REMARK    1  A    between atoms: C1_1  and  C2_2
REMARK    2  A    between atoms: C2_2  and  C3_3
REMARK    3  A    between atoms: C5_5  and  C6_6
REMARK    4  A    between atoms: C7_7  and  O1_8
REMARK    5  A    between atoms: C12_13  and  C13_14
REMARK    6  A    between atoms: C13_14  and  O2_15
REMARK    7  A    between atoms: O2_15  and  C14_16
REMARK    8  A    between atoms: C15_18  and  C16_19
REMARK    9  A    between atoms: C17_20  and  O4_21
REMARK   10  A    between atoms: O4_21  and  C18_22
REMARK   11  A    between atoms: C18_22  and  C19_24
REMARK   12  A    between atoms: C20_25  and  C21_26
REMARK   13  A    between atoms: C21_26  and  C22_27
REMARK   14  A    between atoms: C24_29  and  O6_30
REMARK   15  A    between atoms: C26_32  and  O7_33
REMARK   16  A    between atoms: C27_36  and  O8_37
REMARK   17  A    between atoms: C28_38  and  O9_39
REMARK   18  A    between atoms: O9_39  and  C29_40
REMARK   19  A    between atoms: C31_44  and  C51_70
REMARK   20  A    between atoms: C34_47  and  C35_48
REMARK   21  A    between atoms: C37_50  and  C38_51
REMARK   22  A    between atoms: C39_52  and  O12_53
REMARK   23  A    between atoms: O12_53  and  C40_54
REMARK   24  A    between atoms: C41_56  and  C42_57
REMARK   25  A    between atoms: C41_56  and  C43_58
REMARK   26  A    between atoms: C44_59  and  O14_60
REMARK   27  A    between atoms: O14_60  and  C45_61
REMARK   28  A    between atoms: C45_61  and  C46_63
REMARK   29  A    between atoms: C46_63  and  C47_64
REMARK   30  A    between atoms: C46_63  and  C48_65
REMARK   31  A    between atoms: C49_66  and  O16_67
REMARK   32  A    between atoms: C50_68  and  O17_69
REMARK   33  A    between atoms: C51_70  and  C52_71
REMARK   34  A    between atoms: C51_70  and  O18_72
REMARK                            x       y       z     vdW  Elec       q    Type
REMARK                         _______ _______ _______ _____ _____    ______ ____
ROOT
ATOM      1  C3  UNL     1      73.360  64.264 109.274  0.00  0.00    +0.000 C 
ATOM      2  C4  UNL     1      74.374  63.363 109.953  0.00  0.00    +0.000 C 
ATOM      3  C5  UNL     1      75.519  63.731 110.587  0.00  0.00    +0.000 C 
ATOM      4  C6  UNL     1      76.340  62.617 111.190  0.00  0.00    +0.000 C 
ATOM      5  C7  UNL     1      76.046  65.162 110.692  0.00  0.00    +0.000 C 
ATOM      6  C8  UNL     1      75.242  66.029 111.706  0.00  0.00    +0.000 C 
ATOM      7  C9  UNL     1      74.318  67.024 111.058  0.00  0.00    +0.000 C 
ATOM      8  C10 UNL     1      74.762  68.153 110.501  0.00  0.00    +0.000 C 
ATOM      9  C11 UNL     1      73.873  68.939 109.627  0.00  0.00    +0.000 C 
ATOM     10  C12 UNL     1      74.171  70.149 109.116  0.00  0.00    +0.000 C 
ATOM     11  C30 UNL     1      73.253  70.728 108.110  0.00  0.00    +0.000 C 
ATOM     12  O10 UNL     1      73.253  71.968 107.869  0.00  0.00    +0.000 OA
ATOM     13  O11 UNL     1      72.408  69.869 107.408  0.00  0.00    +0.000 OA
ATOM     14  C31 UNL     1      71.552  70.239 106.323  0.00  0.00    +0.000 C 
ATOM     15  C32 UNL     1      71.398  69.041 105.341  0.00  0.00    +0.000 C 
ATOM     16  C33 UNL     1      71.747  67.720 106.000  0.00  0.00    +0.000 C 
ATOM     17  C34 UNL     1      72.843  66.985 105.717  0.00  0.00    +0.000 C 
ATOM     18  C35 UNL     1      73.822  67.387 104.645  0.00  0.00    +0.000 C 
ATOM     19  C36 UNL     1      73.243  65.870 106.609  0.00  0.00    +0.000 C 
ATOM     20  C37 UNL     1      72.487  64.791 106.912  0.00  0.00    +0.000 C 
ATOM     21  C38 UNL     1      71.151  64.578 106.227  0.00  0.00    +0.000 C 
ATOM     22  C39 UNL     1      73.093  63.722 107.831  0.00  0.00    +0.000 C 
ENDROOT
BRANCH   1  24
ATOM     23  C1  UNL     1      71.255  65.574 110.014  0.00  0.00    +0.000 C 
ATOM     24  C2  UNL     1      72.093  64.302 110.176  0.00  0.00    +0.000 C 
ENDBRANCH   1  24
BRANCH   5  25
ATOM     25  O1  UNL     1      76.132  65.742 109.414  0.00  0.00    +0.000 OA
ATOM     26  H12 UNL     1      76.845  65.258 108.919  0.00  0.00    +0.000 HD
ENDBRANCH   5  25
BRANCH  14  27
ATOM     27  C51 UNL     1      70.201  70.773 106.868  0.00  0.00    +0.000 C 
ATOM     28  C52 UNL     1      69.004  70.364 106.002  0.00  0.00    +0.000 C 
BRANCH  27  29
ATOM     29  O18 UNL     1      70.236  72.174 106.973  0.00  0.00    +0.000 OA
ATOM     30  H74 UNL     1      70.888  72.491 106.294  0.00  0.00    +0.000 HD
ENDBRANCH  27  29
ENDBRANCH  14  27
BRANCH  10  31
ATOM     31  C13 UNL     1      75.373  70.943 109.580  0.00  0.00    +0.000 C 
BRANCH  31  32
ATOM     32  O2  UNL     1      76.001  71.527 108.450  0.00  0.00    +0.000 OA
BRANCH  32  33
ATOM     33  C14 UNL     1      76.964  70.668 107.859  0.00  0.00    +0.000 C 
ATOM     34  O3  UNL     1      77.803  71.418 106.987  0.00  0.00    +0.000 OA
ATOM     35  C15 UNL     1      78.567  72.388 107.693  0.00  0.00    +0.000 C 
ATOM     36  C16 UNL     1      79.313  73.255 106.676  0.00  0.00    +0.000 C 
ATOM     37  C17 UNL     1      79.554  71.701 108.664  0.00  0.00    +0.000 C 
ATOM     38  C27 UNL     1      78.706  70.893 109.671  0.00  0.00    +0.000 C 
ATOM     39  C28 UNL     1      77.792  69.899 108.923  0.00  0.00    +0.000 C 
BRANCH  38  40
ATOM     40  O8  UNL     1      79.498  70.273 110.651  0.00  0.00    +0.000 OA
ATOM     41  H34 UNL     1      79.796  69.390 110.310  0.00  0.00    +0.000 HD
ENDBRANCH  38  40
BRANCH  39  42
ATOM     42  O9  UNL     1      78.585  68.925 108.260  0.00  0.00    +0.000 OA
ATOM     43  C29 UNL     1      77.790  68.060 107.481  0.00  0.00    +0.000 C 
ENDBRANCH  39  42
BRANCH  37  44
ATOM     44  O4  UNL     1      80.420  70.841 107.914  0.00  0.00    +0.000 OA
BRANCH  44  45
ATOM     45  C18 UNL     1      81.816  70.923 107.908  0.00  0.00    +0.000 C 
ATOM     46  O5  UNL     1      82.508  70.057 107.304  0.00  0.00    +0.000 OA
BRANCH  45  47
ATOM     47  C19 UNL     1      82.475  72.076 108.559  0.00  0.00    +0.000 A 
ATOM     48  C20 UNL     1      82.764  72.082 109.949  0.00  0.00    +0.000 A 
ATOM     49  C23 UNL     1      83.361  73.229 110.526  0.00  0.00    +0.000 A 
ATOM     50  C24 UNL     1      83.636  74.358 109.730  0.00  0.00    +0.000 A 
ATOM     51  C25 UNL     1      83.350  74.341 108.360  0.00  0.00    +0.000 A 
ATOM     52  C26 UNL     1      82.774  73.204 107.770  0.00  0.00    +0.000 A 
ATOM     53 CL1  UNL     1      83.708  75.776 107.396  0.00  0.00    +0.000 Cl
ATOM     54 CL2  UNL     1      83.784  73.259 112.240  0.00  0.00    +0.000 Cl
BRANCH  48  55
ATOM     55  C21 UNL     1      82.553  70.835 110.791  0.00  0.00    +0.000 C 
ATOM     56  C22 UNL     1      83.798  69.949 110.772  0.00  0.00    +0.000 C 
ENDBRANCH  48  55
BRANCH  50  57
ATOM     57  O6  UNL     1      84.204  75.512 110.275  0.00  0.00    +0.000 OA
ATOM     58  H31 UNL     1      83.888  75.935 111.138  0.00  0.00    +0.000 HD
ENDBRANCH  50  57
BRANCH  52  59
ATOM     59  O7  UNL     1      82.482  73.176 106.404  0.00  0.00    +0.000 OA
ATOM     60  H32 UNL     1      82.600  72.354 105.826  0.00  0.00    +0.000 HD
ENDBRANCH  52  59
ENDBRANCH  45  47
ENDBRANCH  44  45
ENDBRANCH  37  44
ENDBRANCH  32  33
ENDBRANCH  31  32
ENDBRANCH  10  31
BRANCH  22  61
ATOM     61  O12 UNL     1      72.252  62.581 107.940  0.00  0.00    +0.000 OA
BRANCH  61  62
ATOM     62  C40 UNL     1      72.891  61.359 107.623  0.00  0.00    +0.000 C 
ATOM     63  O13 UNL     1      73.995  61.650 106.774  0.00  0.00    +0.000 OA
ATOM     64  C41 UNL     1      74.210  60.843 105.620  0.00  0.00    +0.000 C 
ATOM     65  C42 UNL     1      75.726  60.941 105.349  0.00  0.00    +0.000 C 
ATOM     66  C43 UNL     1      73.483  61.469 104.401  0.00  0.00    +0.000 C 
ATOM     67  C44 UNL     1      73.822  59.344 105.825  0.00  0.00    +0.000 C 
ATOM     68  C49 UNL     1      72.412  59.145 106.436  0.00  0.00    +0.000 C 
ATOM     69  C50 UNL     1      71.814  60.422 107.047  0.00  0.00    +0.000 C 
BRANCH  68  70
ATOM     70  O16 UNL     1      72.463  58.144 107.425  0.00  0.00    +0.000 OA
ATOM     71  H67 UNL     1      71.674  57.556 107.280  0.00  0.00    +0.000 HD
ENDBRANCH  68  70
BRANCH  69  72
ATOM     72  O17 UNL     1      71.020  61.093 106.097  0.00  0.00    +0.000 OA
ATOM     73  H69 UNL     1      70.252  60.499 105.883  0.00  0.00    +0.000 HD
ENDBRANCH  69  72
BRANCH  67  74
ATOM     74  O14 UNL     1      73.857  58.644 104.576  0.00  0.00    +0.000 OA
BRANCH  74  75
ATOM     75  C45 UNL     1      74.451  57.394 104.361  0.00  0.00    +0.000 C 
ATOM     76  O15 UNL     1      73.917  56.339 104.805  0.00  0.00    +0.000 OA
BRANCH  75  77
ATOM     77  C46 UNL     1      75.774  57.343 103.642  0.00  0.00    +0.000 C 
ATOM     78  C47 UNL     1      76.960  57.486 104.603  0.00  0.00    +0.000 C 
ATOM     79  C48 UNL     1      75.819  58.424 102.558  0.00  0.00    +0.000 C 
ENDBRANCH  75  77
ENDBRANCH  74  75
ENDBRANCH  67  74
ENDBRANCH  61  62
ENDBRANCH  22  61
TORSDOF 22
ENDMDL
MODEL 20
REMARK VINA RESULT:      -7.9      5.903     11.016
REMARK  Name = ./S4227.pdb
REMARK  34 active torsions:
REMARK  status: ('A' for Active; 'I' for Inactive)
REMARK    1  A    between atoms: C1_1  and  C2_2
REMARK    2  A    between atoms: C2_2  and  C3_3
REMARK    3  A    between atoms: C5_5  and  C6_6
REMARK    4  A    between atoms: C7_7  and  O1_8
REMARK    5  A    between atoms: C12_13  and  C13_14
REMARK    6  A    between atoms: C13_14  and  O2_15
REMARK    7  A    between atoms: O2_15  and  C14_16
REMARK    8  A    between atoms: C15_18  and  C16_19
REMARK    9  A    between atoms: C17_20  and  O4_21
REMARK   10  A    between atoms: O4_21  and  C18_22
REMARK   11  A    between atoms: C18_22  and  C19_24
REMARK   12  A    between atoms: C20_25  and  C21_26
REMARK   13  A    between atoms: C21_26  and  C22_27
REMARK   14  A    between atoms: C24_29  and  O6_30
REMARK   15  A    between atoms: C26_32  and  O7_33
REMARK   16  A    between atoms: C27_36  and  O8_37
REMARK   17  A    between atoms: C28_38  and  O9_39
REMARK   18  A    between atoms: O9_39  and  C29_40
REMARK   19  A    between atoms: C31_44  and  C51_70
REMARK   20  A    between atoms: C34_47  and  C35_48
REMARK   21  A    between atoms: C37_50  and  C38_51
REMARK   22  A    between atoms: C39_52  and  O12_53
REMARK   23  A    between atoms: O12_53  and  C40_54
REMARK   24  A    between atoms: C41_56  and  C42_57
REMARK   25  A    between atoms: C41_56  and  C43_58
REMARK   26  A    between atoms: C44_59  and  O14_60
REMARK   27  A    between atoms: O14_60  and  C45_61
REMARK   28  A    between atoms: C45_61  and  C46_63
REMARK   29  A    between atoms: C46_63  and  C47_64
REMARK   30  A    between atoms: C46_63  and  C48_65
REMARK   31  A    between atoms: C49_66  and  O16_67
REMARK   32  A    between atoms: C50_68  and  O17_69
REMARK   33  A    between atoms: C51_70  and  C52_71
REMARK   34  A    between atoms: C51_70  and  O18_72
REMARK                            x       y       z     vdW  Elec       q    Type
REMARK                         _______ _______ _______ _____ _____    ______ ____
ROOT
ATOM      1  C3  UNL     1      78.055  68.270 105.329  0.00  0.00    +0.000 C 
ATOM      2  C4  UNL     1      79.286  67.400 105.160  0.00  0.00    +0.000 C 
ATOM      3  C5  UNL     1      79.350  66.043 105.162  0.00  0.00    +0.000 C 
ATOM      4  C6  UNL     1      80.715  65.433 104.957  0.00  0.00    +0.000 C 
ATOM      5  C7  UNL     1      78.164  65.105 105.395  0.00  0.00    +0.000 C 
ATOM      6  C8  UNL     1      77.204  65.030 104.170  0.00  0.00    +0.000 C 
ATOM      7  C9  UNL     1      75.914  65.781 104.360  0.00  0.00    +0.000 C 
ATOM      8  C10 UNL     1      74.921  65.316 105.121  0.00  0.00    +0.000 C 
ATOM      9  C11 UNL     1      73.817  66.209 105.513  0.00  0.00    +0.000 C 
ATOM     10  C12 UNL     1      72.708  65.818 106.169  0.00  0.00    +0.000 C 
ATOM     11  C30 UNL     1      71.777  66.861 106.654  0.00  0.00    +0.000 C 
ATOM     12  O10 UNL     1      70.578  66.582 106.934  0.00  0.00    +0.000 OA
ATOM     13  O11 UNL     1      72.263  68.157 106.828  0.00  0.00    +0.000 OA
ATOM     14  C31 UNL     1      71.541  69.251 107.400  0.00  0.00    +0.000 C 
ATOM     15  C32 UNL     1      72.528  70.211 108.127  0.00  0.00    +0.000 C 
ATOM     16  C33 UNL     1      73.953  70.034 107.639  0.00  0.00    +0.000 C 
ATOM     17  C34 UNL     1      74.952  69.488 108.364  0.00  0.00    +0.000 C 
ATOM     18  C35 UNL     1      74.757  69.046 109.791  0.00  0.00    +0.000 C 
ATOM     19  C36 UNL     1      76.222  69.095 107.707  0.00  0.00    +0.000 C 
ATOM     20  C37 UNL     1      77.047  69.921 107.026  0.00  0.00    +0.000 C 
ATOM     21  C38 UNL     1      76.773  71.413 106.988  0.00  0.00    +0.000 C 
ATOM     22  C39 UNL     1      78.339  69.330 106.445  0.00  0.00    +0.000 C 
ENDROOT
BRANCH   1  24
ATOM     23  C1  UNL     1      76.248  69.229 103.745  0.00  0.00    +0.000 C 
ATOM     24  C2  UNL     1      77.729  68.891 103.940  0.00  0.00    +0.000 C 
ENDBRANCH   1  24
BRANCH   5  25
ATOM     25  O1  UNL     1      77.508  65.444 106.592  0.00  0.00    +0.000 OA
ATOM     26  H12 UNL     1      77.769  64.767 107.272  0.00  0.00    +0.000 HD
ENDBRANCH   5  25
BRANCH  14  27
ATOM     27  C51 UNL     1      70.683  69.951 106.312  0.00  0.00    +0.000 C 
ATOM     28  C52 UNL     1      70.603  71.470 106.499  0.00  0.00    +0.000 C 
BRANCH  27  29
ATOM     29  O18 UNL     1      69.382  69.419 106.300  0.00  0.00    +0.000 OA
ATOM     30  H74 UNL     1      69.099  69.388 105.349  0.00  0.00    +0.000 HD
ENDBRANCH  27  29
ENDBRANCH  14  27
BRANCH  10  31
ATOM     31  C13 UNL     1      72.367  64.357 106.370  0.00  0.00    +0.000 C 
BRANCH  31  32
ATOM     32  O2  UNL     1      73.314  63.783 107.258  0.00  0.00    +0.000 OA
BRANCH  32  33
ATOM     33  C14 UNL     1      72.763  63.508 108.537  0.00  0.00    +0.000 C 
ATOM     34  O3  UNL     1      73.237  62.248 109.001  0.00  0.00    +0.000 OA
ATOM     35  C15 UNL     1      74.644  62.256 109.207  0.00  0.00    +0.000 C 
ATOM     36  C16 UNL     1      75.095  60.833 109.545  0.00  0.00    +0.000 C 
ATOM     37  C17 UNL     1      75.023  63.240 110.338  0.00  0.00    +0.000 C 
ATOM     38  C27 UNL     1      74.569  64.644 109.884  0.00  0.00    +0.000 C 
ATOM     39  C28 UNL     1      73.060  64.639 109.557  0.00  0.00    +0.000 C 
BRANCH  38  40
ATOM     40  O8  UNL     1      74.922  65.639 110.810  0.00  0.00    +0.000 OA
ATOM     41  H34 UNL     1      74.106  66.145 111.061  0.00  0.00    +0.000 HD
ENDBRANCH  38  40
BRANCH  39  42
ATOM     42  O9  UNL     1      72.315  64.387 110.740  0.00  0.00    +0.000 OA
ATOM     43  C29 UNL     1      71.057  65.021 110.697  0.00  0.00    +0.000 C 
ENDBRANCH  39  42
BRANCH  37  44
ATOM     44  O4  UNL     1      74.350  62.846 111.540  0.00  0.00    +0.000 OA
BRANCH  44  45
ATOM     45  C18 UNL     1      74.834  63.064 112.833  0.00  0.00    +0.000 C 
ATOM     46  O5  UNL     1      74.790  64.215 113.350  0.00  0.00    +0.000 OA
BRANCH  45  47
ATOM     47  C19 UNL     1      75.340  61.919 113.619  0.00  0.00    +0.000 A 
ATOM     48  C20 UNL     1      76.706  61.535 113.586  0.00  0.00    +0.000 A 
ATOM     49  C23 UNL     1      77.126  60.406 114.329  0.00  0.00    +0.000 A 
ATOM     50  C24 UNL     1      76.188  59.659 115.068  0.00  0.00    +0.000 A 
ATOM     51  C25 UNL     1      74.844  60.046 115.097  0.00  0.00    +0.000 A 
ATOM     52  C26 UNL     1      74.416  61.174 114.380  0.00  0.00    +0.000 A 
ATOM     53 CL1  UNL     1      73.699  59.083 116.034  0.00  0.00    +0.000 Cl
ATOM     54 CL2  UNL     1      78.825  59.926 114.356  0.00  0.00    +0.000 Cl
BRANCH  48  55
ATOM     55  C21 UNL     1      77.734  62.391 112.865  0.00  0.00    +0.000 C 
ATOM     56  C22 UNL     1      78.109  61.771 111.519  0.00  0.00    +0.000 C 
ENDBRANCH  48  55
BRANCH  50  57
ATOM     57  O6  UNL     1      76.569  58.527 115.794  0.00  0.00    +0.000 OA
ATOM     58  H31 UNL     1      76.479  57.582 115.440  0.00  0.00    +0.000 HD
ENDBRANCH  50  57
BRANCH  52  59
ATOM     59  O7  UNL     1      73.075  61.569 114.399  0.00  0.00    +0.000 OA
ATOM     60  H32 UNL     1      72.625  61.971 115.211  0.00  0.00    +0.000 HD
ENDBRANCH  52  59
ENDBRANCH  45  47
ENDBRANCH  44  45
ENDBRANCH  37  44
ENDBRANCH  32  33
ENDBRANCH  31  32
ENDBRANCH  10  31
BRANCH  22  61
ATOM     61  O12 UNL     1      79.177  70.336 105.890  0.00  0.00    +0.000 OA
BRANCH  61  62
ATOM     62  C40 UNL     1      80.391  70.529 106.591  0.00  0.00    +0.000 C 
ATOM     63  O13 UNL     1      80.088  70.597 107.979  0.00  0.00    +0.000 OA
ATOM     64  C41 UNL     1      80.697  71.613 108.770  0.00  0.00    +0.000 C 
ATOM     65  C42 UNL     1      80.736  71.030 110.198  0.00  0.00    +0.000 C 
ATOM     66  C43 UNL     1      79.782  72.865 108.809  0.00  0.00    +0.000 C 
ATOM     67  C44 UNL     1      82.151  71.965 108.322  0.00  0.00    +0.000 C 
ATOM     68  C49 UNL     1      82.285  72.234 106.801  0.00  0.00    +0.000 C 
ATOM     69  C50 UNL     1      81.074  71.765 105.980  0.00  0.00    +0.000 C 
BRANCH  68  70
ATOM     70  O16 UNL     1      83.444  71.603 106.311  0.00  0.00    +0.000 OA
ATOM     71  H67 UNL     1      84.187  72.260 106.395  0.00  0.00    +0.000 HD
ENDBRANCH  68  70
BRANCH  69  72
ATOM     72  O17 UNL     1      80.155  72.819 105.818  0.00  0.00    +0.000 OA
ATOM     73  H69 UNL     1      79.698  72.681 104.945  0.00  0.00    +0.000 HD
ENDBRANCH  69  72
BRANCH  67  74
ATOM     74  O14 UNL     1      82.618  73.130 109.012  0.00  0.00    +0.000 OA
BRANCH  74  75
ATOM     75  C45 UNL     1      83.931  73.345 109.451  0.00  0.00    +0.000 C 
ATOM     76  O15 UNL     1      84.910  73.173 108.671  0.00  0.00    +0.000 OA
BRANCH  75  77
ATOM     77  C46 UNL     1      84.152  73.723 110.891  0.00  0.00    +0.000 C 
ATOM     78  C47 UNL     1      83.837  72.567 111.848  0.00  0.00    +0.000 C 
ATOM     79  C48 UNL     1      83.317  74.960 111.238  0.00  0.00    +0.000 C 
ENDBRANCH  75  77
ENDBRANCH  74  75
ENDBRANCH  67  74
ENDBRANCH  61  62
ENDBRANCH  22  61
TORSDOF 22
ENDMDL
