MODEL 1
REMARK VINA RESULT:      -7.4      0.000      0.000
REMARK  Name = ./S4269.pdb
REMARK  18 active torsions:
REMARK  status: ('A' for Active; 'I' for Inactive)
REMARK    1  A    between atoms: C1_1  and  C2_2
REMARK    2  A    between atoms: C2_2  and  C3_3
REMARK    3  A    between atoms: C17_19  and  C19_21
REMARK    4  A    between atoms: C17_19  and  C21_25
REMARK    5  A    between atoms: C19_21  and  O2_23
REMARK    6  A    between atoms: O2_23  and  C20_24
REMARK    7  A    between atoms: C22_26  and  O3_27
REMARK    8  A    between atoms: O3_27  and  C23_28
REMARK    9  A    between atoms: N3_31  and  C26_32
REMARK   10  A    between atoms: C28_34  and  O4_35
REMARK   11  A    between atoms: C28_34  and  C44_54
REMARK   12  A    between atoms: C29_36  and  O5_37
REMARK   13  A    between atoms: O5_37  and  C30_38
REMARK   14  A    between atoms: C30_38  and  C31_39
REMARK   15  A    between atoms: C32_41  and  C33_42
REMARK   16  A    between atoms: C33_42  and  C34_43
REMARK   17  A    between atoms: C44_54  and  O8_56
REMARK   18  A    between atoms: O8_56  and  C45_57
REMARK                            x       y       z     vdW  Elec       q    Type
REMARK                         _______ _______ _______ _____ _____    ______ ____
ROOT
ATOM      1  C21 UNL     1      74.163  58.577 102.174  0.00  0.00    +0.000 A 
ATOM      2  C22 UNL     1      74.978  57.668 101.418  0.00  0.00    +0.000 A 
ATOM      3  C24 UNL     1      74.809  57.562 100.013  0.00  0.00    +0.000 A 
ATOM      4  C25 UNL     1      73.842  58.343  99.382  0.00  0.00    +0.000 A 
ATOM      5  N3  UNL     1      73.501  58.335  98.007  0.00  0.00    +0.000 N 
ATOM      6  C26 UNL     1      74.294  57.670  96.973  0.00  0.00    +0.000 C 
ATOM      7  C27 UNL     1      72.430  59.319  97.759  0.00  0.00    +0.000 C 
ATOM      8  C28 UNL     1      71.231  58.682  96.934  0.00  0.00    +0.000 C 
ATOM      9  C29 UNL     1      69.824  58.992  97.542  0.00  0.00    +0.000 C 
ATOM     10  C32 UNL     1      69.754  58.785  99.081  0.00  0.00    +0.000 C 
ATOM     11  C35 UNL     1      68.311  59.050  99.532  0.00  0.00    +0.000 C 
ATOM     12  C36 UNL     1      67.916  60.207 100.105  0.00  0.00    +0.000 C 
ATOM     13  C37 UNL     1      68.897  61.308 100.428  0.00  0.00    +0.000 C 
ATOM     14  N4  UNL     1      70.084  61.163  99.574  0.00  0.00    +0.000 NA
ATOM     15  C38 UNL     1      71.164  62.089  99.888  0.00  0.00    +0.000 C 
ATOM     16  C39 UNL     1      72.394  61.482  99.232  0.00  0.00    +0.000 C 
ATOM     17  C40 UNL     1      72.118  59.952  99.185  0.00  0.00    +0.000 C 
ATOM     18  C41 UNL     1      70.674  59.834  99.733  0.00  0.00    +0.000 C 
ATOM     19  C42 UNL     1      73.086  59.226 100.080  0.00  0.00    +0.000 A 
ATOM     20  C43 UNL     1      73.233  59.369 101.455  0.00  0.00    +0.000 A 
ENDROOT
BRANCH   1  37
ATOM     21  C3  UNL     1      78.224  61.391 103.307  0.00  0.00    +0.000 C 
ATOM     22  C4  UNL     1      77.852  60.095 103.505  0.00  0.00    +0.000 C 
ATOM     23  C5  UNL     1      76.443  59.914 103.939  0.00  0.00    +0.000 C 
ATOM     24  C6  UNL     1      76.226  60.911 105.080  0.00  0.00    +0.000 C 
ATOM     25  N1  UNL     1      76.022  62.201 104.433  0.00  0.00    +0.000 NA
ATOM     26  C7  UNL     1      77.235  62.561 103.612  0.00  0.00    +0.000 C 
ATOM     27  C8  UNL     1      74.752  62.198 103.636  0.00  0.00    +0.000 C 
ATOM     28  C9  UNL     1      73.615  61.323 104.223  0.00  0.00    +0.000 A 
ATOM     29  C10 UNL     1      73.407  59.880 104.296  0.00  0.00    +0.000 A 
ATOM     30  N2  UNL     1      72.161  59.675 104.816  0.00  0.00    +0.000 N 
ATOM     31  C11 UNL     1      71.612  60.864 105.083  0.00  0.00    +0.000 A 
ATOM     32  C12 UNL     1      72.455  61.883 104.751  0.00  0.00    +0.000 A 
ATOM     33  C13 UNL     1      72.063  63.221 104.920  0.00  0.00    +0.000 A 
ATOM     34  C14 UNL     1      70.779  63.481 105.428  0.00  0.00    +0.000 A 
ATOM     35  C15 UNL     1      69.909  62.418 105.748  0.00  0.00    +0.000 A 
ATOM     36  C16 UNL     1      70.328  61.089 105.578  0.00  0.00    +0.000 A 
ATOM     37  C17 UNL     1      74.240  58.647 103.729  0.00  0.00    +0.000 C 
ATOM     38  C18 UNL     1      75.761  58.593 104.202  0.00  0.00    +0.000 C 
ATOM     39  H14 UNL     1      71.655  58.769 104.943  0.00  0.00    +0.000 HD
BRANCH  21  41
ATOM     40  C1  UNL     1      80.666  61.373 103.796  0.00  0.00    +0.000 C 
ATOM     41  C2  UNL     1      79.593  61.705 102.765  0.00  0.00    +0.000 C 
ENDBRANCH  21  41
BRANCH  37  42
ATOM     42  C19 UNL     1      73.583  57.372 104.267  0.00  0.00    +0.000 C 
ATOM     43  O1  UNL     1      73.897  56.925 105.406  0.00  0.00    +0.000 OA
BRANCH  42  44
ATOM     44  O2  UNL     1      72.549  56.760 103.544  0.00  0.00    +0.000 OA
ATOM     45  C20 UNL     1      72.495  55.359 103.314  0.00  0.00    +0.000 C 
ENDBRANCH  42  44
ENDBRANCH  37  42
ENDBRANCH   1  37
BRANCH   2  46
ATOM     46  O3  UNL     1      75.917  56.863 102.087  0.00  0.00    +0.000 OA
ATOM     47  C23 UNL     1      75.953  55.440 102.037  0.00  0.00    +0.000 C 
ENDBRANCH   2  46
BRANCH   8  48
ATOM     48  O4  UNL     1      71.409  57.278  96.864  0.00  0.00    +0.000 OA
ATOM     49  H32 UNL     1      70.625  56.867  96.412  0.00  0.00    +0.000 HD
ENDBRANCH   8  48
BRANCH  10  50
ATOM     50  C33 UNL     1      70.156  57.331  99.498  0.00  0.00    +0.000 C 
ATOM     51  C34 UNL     1      68.988  56.399  99.862  0.00  0.00    +0.000 C 
ENDBRANCH  10  50
BRANCH   8  52
ATOM     52  C44 UNL     1      71.280  59.261  95.525  0.00  0.00    +0.000 C 
ATOM     53  O7  UNL     1      71.602  60.468  95.337  0.00  0.00    +0.000 OA
BRANCH  52  54
ATOM     54  O8  UNL     1      70.925  58.452  94.438  0.00  0.00    +0.000 OA
ATOM     55  C45 UNL     1      70.246  58.957  93.296  0.00  0.00    +0.000 C 
ENDBRANCH  52  54
ENDBRANCH   8  52
BRANCH   9  56
ATOM     56  O5  UNL     1      68.813  58.193  96.909  0.00  0.00    +0.000 OA
BRANCH  56  57
ATOM     57  C30 UNL     1      67.868  58.685  96.003  0.00  0.00    +0.000 C 
ATOM     58  C31 UNL     1      67.768  60.155  95.781  0.00  0.00    +0.000 C 
ATOM     59  O6  UNL     1      67.096  57.904  95.383  0.00  0.00    +0.000 OA
ENDBRANCH  56  57
ENDBRANCH   9  56
TORSDOF 11
ENDMDL
MODEL 2
REMARK VINA RESULT:      -7.2      3.379      9.128
REMARK  Name = ./S4269.pdb
REMARK  18 active torsions:
REMARK  status: ('A' for Active; 'I' for Inactive)
REMARK    1  A    between atoms: C1_1  and  C2_2
REMARK    2  A    between atoms: C2_2  and  C3_3
REMARK    3  A    between atoms: C17_19  and  C19_21
REMARK    4  A    between atoms: C17_19  and  C21_25
REMARK    5  A    between atoms: C19_21  and  O2_23
REMARK    6  A    between atoms: O2_23  and  C20_24
REMARK    7  A    between atoms: C22_26  and  O3_27
REMARK    8  A    between atoms: O3_27  and  C23_28
REMARK    9  A    between atoms: N3_31  and  C26_32
REMARK   10  A    between atoms: C28_34  and  O4_35
REMARK   11  A    between atoms: C28_34  and  C44_54
REMARK   12  A    between atoms: C29_36  and  O5_37
REMARK   13  A    between atoms: O5_37  and  C30_38
REMARK   14  A    between atoms: C30_38  and  C31_39
REMARK   15  A    between atoms: C32_41  and  C33_42
REMARK   16  A    between atoms: C33_42  and  C34_43
REMARK   17  A    between atoms: C44_54  and  O8_56
REMARK   18  A    between atoms: O8_56  and  C45_57
REMARK                            x       y       z     vdW  Elec       q    Type
REMARK                         _______ _______ _______ _____ _____    ______ ____
ROOT
ATOM      1  C21 UNL     1      72.498  61.692 101.413  0.00  0.00    +0.000 A 
ATOM      2  C22 UNL     1      71.215  61.240 101.874  0.00  0.00    +0.000 A 
ATOM      3  C24 UNL     1      70.728  61.655 103.141  0.00  0.00    +0.000 A 
ATOM      4  C25 UNL     1      71.510  62.497 103.929  0.00  0.00    +0.000 A 
ATOM      5  N3  UNL     1      71.211  62.971 105.230  0.00  0.00    +0.000 N 
ATOM      6  C26 UNL     1      69.899  62.845 105.863  0.00  0.00    +0.000 C 
ATOM      7  C27 UNL     1      72.305  63.843 105.701  0.00  0.00    +0.000 C 
ATOM      8  C28 UNL     1      72.797  63.430 107.153  0.00  0.00    +0.000 C 
ATOM      9  C29 UNL     1      74.352  63.319 107.276  0.00  0.00    +0.000 C 
ATOM     10  C32 UNL     1      75.012  62.538 106.105  0.00  0.00    +0.000 C 
ATOM     11  C35 UNL     1      76.518  62.441 106.386  0.00  0.00    +0.000 C 
ATOM     12  C36 UNL     1      77.433  63.239 105.797  0.00  0.00    +0.000 C 
ATOM     13  C37 UNL     1      77.045  64.243 104.737  0.00  0.00    +0.000 C 
ATOM     14  N4  UNL     1      75.621  64.573 104.882  0.00  0.00    +0.000 NA
ATOM     15  C38 UNL     1      75.095  65.430 103.828  0.00  0.00    +0.000 C 
ATOM     16  C39 UNL     1      73.586  65.266 103.916  0.00  0.00    +0.000 C 
ATOM     17  C40 UNL     1      73.364  63.847 104.514  0.00  0.00    +0.000 C 
ATOM     18  C41 UNL     1      74.803  63.362 104.820  0.00  0.00    +0.000 C 
ATOM     19  C42 UNL     1      72.710  62.955 103.493  0.00  0.00    +0.000 A 
ATOM     20  C43 UNL     1      73.214  62.582 102.252  0.00  0.00    +0.000 A 
ENDROOT
BRANCH   1  37
ATOM     21  C3  UNL     1      77.349  60.590 102.390  0.00  0.00    +0.000 C 
ATOM     22  C4  UNL     1      76.695  61.486 101.598  0.00  0.00    +0.000 C 
ATOM     23  C5  UNL     1      75.533  60.928 100.859  0.00  0.00    +0.000 C 
ATOM     24  C6  UNL     1      76.029  59.626 100.223  0.00  0.00    +0.000 C 
ATOM     25  N1  UNL     1      76.015  58.640 101.297  0.00  0.00    +0.000 NA
ATOM     26  C7  UNL     1      76.925  59.087 102.414  0.00  0.00    +0.000 C 
ATOM     27  C8  UNL     1      74.612  58.373 101.751  0.00  0.00    +0.000 C 
ATOM     28  C9  UNL     1      73.536  58.472 100.640  0.00  0.00    +0.000 A 
ATOM     29  C10 UNL     1      72.940  59.600  99.929  0.00  0.00    +0.000 A 
ATOM     30  N2  UNL     1      71.946  59.101  99.137  0.00  0.00    +0.000 N 
ATOM     31  C11 UNL     1      71.907  57.774  99.290  0.00  0.00    +0.000 A 
ATOM     32  C12 UNL     1      72.851  57.351 100.178  0.00  0.00    +0.000 A 
ATOM     33  C13 UNL     1      72.963  55.992 100.512  0.00  0.00    +0.000 A 
ATOM     34  C14 UNL     1      72.071  55.083  99.917  0.00  0.00    +0.000 A 
ATOM     35  C15 UNL     1      71.085  55.537  99.016  0.00  0.00    +0.000 A 
ATOM     36  C16 UNL     1      70.999  56.900  98.692  0.00  0.00    +0.000 A 
ATOM     37  C17 UNL     1      73.118  61.175 100.080  0.00  0.00    +0.000 C 
ATOM     38  C18 UNL     1      74.617  61.696  99.938  0.00  0.00    +0.000 C 
ATOM     39  H14 UNL     1      71.266  59.630  98.546  0.00  0.00    +0.000 HD
BRANCH  21  41
ATOM     40  C1  UNL     1      79.034  59.888 104.083  0.00  0.00    +0.000 C 
ATOM     41  C2  UNL     1      78.478  61.052 103.272  0.00  0.00    +0.000 C 
ENDBRANCH  21  41
BRANCH  37  42
ATOM     42  C19 UNL     1      72.332  61.830  98.939  0.00  0.00    +0.000 C 
ATOM     43  O1  UNL     1      71.597  62.831  99.164  0.00  0.00    +0.000 OA
BRANCH  42  44
ATOM     44  O2  UNL     1      72.515  61.387  97.620  0.00  0.00    +0.000 OA
ATOM     45  C20 UNL     1      71.557  61.606  96.596  0.00  0.00    +0.000 C 
ENDBRANCH  42  44
ENDBRANCH  37  42
ENDBRANCH   1  37
BRANCH   2  46
ATOM     46  O3  UNL     1      70.467  60.357 101.075  0.00  0.00    +0.000 OA
ATOM     47  C23 UNL     1      69.169  60.630 100.554  0.00  0.00    +0.000 C 
ENDBRANCH   2  46
BRANCH   8  48
ATOM     48  O4  UNL     1      72.212  62.189 107.508  0.00  0.00    +0.000 OA
ATOM     49  H32 UNL     1      71.273  62.336 107.797  0.00  0.00    +0.000 HD
ENDBRANCH   8  48
BRANCH  10  50
ATOM     50  C33 UNL     1      74.430  61.093 105.960  0.00  0.00    +0.000 C 
ATOM     51  C34 UNL     1      75.459  59.989 105.662  0.00  0.00    +0.000 C 
ENDBRANCH  10  50
BRANCH   8  52
ATOM     52  C44 UNL     1      72.317  64.502 108.126  0.00  0.00    +0.000 C 
ATOM     53  O7  UNL     1      72.674  65.705 107.984  0.00  0.00    +0.000 OA
BRANCH  52  54
ATOM     54  O8  UNL     1      71.506  64.133 109.206  0.00  0.00    +0.000 OA
ATOM     55  C45 UNL     1      71.358  64.943 110.365  0.00  0.00    +0.000 C 
ENDBRANCH  52  54
ENDBRANCH   8  52
BRANCH   9  56
ATOM     56  O5  UNL     1      74.719  62.707 108.522  0.00  0.00    +0.000 OA
BRANCH  56  57
ATOM     57  C30 UNL     1      74.977  63.410 109.703  0.00  0.00    +0.000 C 
ATOM     58  C31 UNL     1      75.974  64.516 109.688  0.00  0.00    +0.000 C 
ATOM     59  O6  UNL     1      74.385  63.113 110.776  0.00  0.00    +0.000 OA
ENDBRANCH  56  57
ENDBRANCH   9  56
TORSDOF 11
ENDMDL
MODEL 3
REMARK VINA RESULT:      -6.9      7.835     12.862
REMARK  Name = ./S4269.pdb
REMARK  18 active torsions:
REMARK  status: ('A' for Active; 'I' for Inactive)
REMARK    1  A    between atoms: C1_1  and  C2_2
REMARK    2  A    between atoms: C2_2  and  C3_3
REMARK    3  A    between atoms: C17_19  and  C19_21
REMARK    4  A    between atoms: C17_19  and  C21_25
REMARK    5  A    between atoms: C19_21  and  O2_23
REMARK    6  A    between atoms: O2_23  and  C20_24
REMARK    7  A    between atoms: C22_26  and  O3_27
REMARK    8  A    between atoms: O3_27  and  C23_28
REMARK    9  A    between atoms: N3_31  and  C26_32
REMARK   10  A    between atoms: C28_34  and  O4_35
REMARK   11  A    between atoms: C28_34  and  C44_54
REMARK   12  A    between atoms: C29_36  and  O5_37
REMARK   13  A    between atoms: O5_37  and  C30_38
REMARK   14  A    between atoms: C30_38  and  C31_39
REMARK   15  A    between atoms: C32_41  and  C33_42
REMARK   16  A    between atoms: C33_42  and  C34_43
REMARK   17  A    between atoms: C44_54  and  O8_56
REMARK   18  A    between atoms: O8_56  and  C45_57
REMARK                            x       y       z     vdW  Elec       q    Type
REMARK                         _______ _______ _______ _____ _____    ______ ____
ROOT
ATOM      1  C21 UNL     1      73.644  65.182 108.492  0.00  0.00    +0.000 A 
ATOM      2  C22 UNL     1      72.304  65.523 108.882  0.00  0.00    +0.000 A 
ATOM      3  C24 UNL     1      71.788  66.814 108.597  0.00  0.00    +0.000 A 
ATOM      4  C25 UNL     1      72.597  67.742 107.943  0.00  0.00    +0.000 A 
ATOM      5  N3  UNL     1      72.270  69.083 107.621  0.00  0.00    +0.000 N 
ATOM      6  C26 UNL     1      70.920  69.638 107.711  0.00  0.00    +0.000 C 
ATOM      7  C27 UNL     1      73.408  69.714 106.924  0.00  0.00    +0.000 C 
ATOM      8  C28 UNL     1      73.785  71.114 107.571  0.00  0.00    +0.000 C 
ATOM      9  C29 UNL     1      75.317  71.284 107.839  0.00  0.00    +0.000 C 
ATOM     10  C32 UNL     1      75.968  70.044 108.513  0.00  0.00    +0.000 C 
ATOM     11  C35 UNL     1      77.444  70.371 108.785  0.00  0.00    +0.000 C 
ATOM     12  C36 UNL     1      78.453  69.935 108.001  0.00  0.00    +0.000 C 
ATOM     13  C37 UNL     1      78.209  69.009 106.834  0.00  0.00    +0.000 C 
ATOM     14  N4  UNL     1      76.813  69.139 106.398  0.00  0.00    +0.000 NA
ATOM     15  C38 UNL     1      76.418  68.193 105.363  0.00  0.00    +0.000 C 
ATOM     16  C39 UNL     1      74.897  68.195 105.399  0.00  0.00    +0.000 C 
ATOM     17  C40 UNL     1      74.525  68.582 106.858  0.00  0.00    +0.000 C 
ATOM     18  C41 UNL     1      75.899  68.878 107.510  0.00  0.00    +0.000 C 
ATOM     19  C42 UNL     1      73.852  67.423 107.543  0.00  0.00    +0.000 A 
ATOM     20  C43 UNL     1      74.388  66.164 107.791  0.00  0.00    +0.000 A 
ENDROOT
BRANCH   1  37
ATOM     21  C3  UNL     1      72.185  61.833 104.978  0.00  0.00    +0.000 C 
ATOM     22  C4  UNL     1      71.991  61.984 106.317  0.00  0.00    +0.000 C 
ATOM     23  C5  UNL     1      73.206  62.368 107.081  0.00  0.00    +0.000 C 
ATOM     24  C6  UNL     1      74.311  61.417 106.612  0.00  0.00    +0.000 C 
ATOM     25  N1  UNL     1      74.761  61.948 105.332  0.00  0.00    +0.000 NA
ATOM     26  C7  UNL     1      73.611  61.976 104.356  0.00  0.00    +0.000 C 
ATOM     27  C8  UNL     1      75.413  63.285 105.513  0.00  0.00    +0.000 C 
ATOM     28  C9  UNL     1      76.174  63.465 106.852  0.00  0.00    +0.000 A 
ATOM     29  C10 UNL     1      75.732  63.651 108.231  0.00  0.00    +0.000 A 
ATOM     30  N2  UNL     1      76.846  63.879 108.986  0.00  0.00    +0.000 N 
ATOM     31  C11 UNL     1      77.918  63.824 108.190  0.00  0.00    +0.000 A 
ATOM     32  C12 UNL     1      77.562  63.568 106.900  0.00  0.00    +0.000 A 
ATOM     33  C13 UNL     1      78.533  63.500 105.887  0.00  0.00    +0.000 A 
ATOM     34  C14 UNL     1      79.878  63.714 106.239  0.00  0.00    +0.000 A 
ATOM     35  C15 UNL     1      80.231  63.998 107.574  0.00  0.00    +0.000 A 
ATOM     36  C16 UNL     1      79.241  64.052 108.568  0.00  0.00    +0.000 A 
ATOM     37  C17 UNL     1      74.287  63.816 108.880  0.00  0.00    +0.000 C 
ATOM     38  C18 UNL     1      73.273  62.628 108.566  0.00  0.00    +0.000 C 
ATOM     39  H14 UNL     1      76.898  64.123 110.001  0.00  0.00    +0.000 HD
BRANCH  21  41
ATOM     40  C1  UNL     1      69.929  62.604 104.259  0.00  0.00    +0.000 C 
ATOM     41  C2  UNL     1      71.014  61.549 104.076  0.00  0.00    +0.000 C 
ENDBRANCH  21  41
BRANCH  37  42
ATOM     42  C19 UNL     1      74.473  63.825 110.400  0.00  0.00    +0.000 C 
ATOM     43  O1  UNL     1      74.371  62.755 111.061  0.00  0.00    +0.000 OA
BRANCH  42  44
ATOM     44  O2  UNL     1      74.870  65.005 111.048  0.00  0.00    +0.000 OA
ATOM     45  C20 UNL     1      75.339  65.025 112.389  0.00  0.00    +0.000 C 
ENDBRANCH  42  44
ENDBRANCH  37  42
ENDBRANCH   1  37
BRANCH   2  46
ATOM     46  O3  UNL     1      71.527  64.580 109.578  0.00  0.00    +0.000 OA
ATOM     47  C23 UNL     1      70.980  64.776 110.879  0.00  0.00    +0.000 C 
ENDBRANCH   2  46
BRANCH   8  48
ATOM     48  O4  UNL     1      73.079  71.270 108.790  0.00  0.00    +0.000 OA
ATOM     49  H32 UNL     1      73.535  70.753 109.505  0.00  0.00    +0.000 HD
ENDBRANCH   8  48
BRANCH  10  50
ATOM     50  C33 UNL     1      75.274  69.678 109.867  0.00  0.00    +0.000 C 
ATOM     51  C34 UNL     1      75.743  68.366 110.520  0.00  0.00    +0.000 C 
ENDBRANCH  10  50
BRANCH   8  52
ATOM     52  C44 UNL     1      73.347  72.205 106.599  0.00  0.00    +0.000 C 
ATOM     53  O7  UNL     1      73.931  72.348 105.488  0.00  0.00    +0.000 OA
BRANCH  52  54
ATOM     54  O8  UNL     1      72.315  73.077 106.967  0.00  0.00    +0.000 OA
ATOM     55  C45 UNL     1      72.528  74.463 107.196  0.00  0.00    +0.000 C 
ENDBRANCH  52  54
ENDBRANCH   8  52
BRANCH   9  56
ATOM     56  O5  UNL     1      75.563  72.447 108.643  0.00  0.00    +0.000 OA
BRANCH  56  57
ATOM     57  C30 UNL     1      76.085  73.650 108.155  0.00  0.00    +0.000 C 
ATOM     58  C31 UNL     1      77.043  73.619 107.015  0.00  0.00    +0.000 C 
ATOM     59  O6  UNL     1      75.762  74.754 108.673  0.00  0.00    +0.000 OA
ENDBRANCH  56  57
ENDBRANCH   9  56
TORSDOF 11
ENDMDL
MODEL 4
REMARK VINA RESULT:      -6.9      4.733      7.935
REMARK  Name = ./S4269.pdb
REMARK  18 active torsions:
REMARK  status: ('A' for Active; 'I' for Inactive)
REMARK    1  A    between atoms: C1_1  and  C2_2
REMARK    2  A    between atoms: C2_2  and  C3_3
REMARK    3  A    between atoms: C17_19  and  C19_21
REMARK    4  A    between atoms: C17_19  and  C21_25
REMARK    5  A    between atoms: C19_21  and  O2_23
REMARK    6  A    between atoms: O2_23  and  C20_24
REMARK    7  A    between atoms: C22_26  and  O3_27
REMARK    8  A    between atoms: O3_27  and  C23_28
REMARK    9  A    between atoms: N3_31  and  C26_32
REMARK   10  A    between atoms: C28_34  and  O4_35
REMARK   11  A    between atoms: C28_34  and  C44_54
REMARK   12  A    between atoms: C29_36  and  O5_37
REMARK   13  A    between atoms: O5_37  and  C30_38
REMARK   14  A    between atoms: C30_38  and  C31_39
REMARK   15  A    between atoms: C32_41  and  C33_42
REMARK   16  A    between atoms: C33_42  and  C34_43
REMARK   17  A    between atoms: C44_54  and  O8_56
REMARK   18  A    between atoms: O8_56  and  C45_57
REMARK                            x       y       z     vdW  Elec       q    Type
REMARK                         _______ _______ _______ _____ _____    ______ ____
ROOT
ATOM      1  C21 UNL     1      74.492  63.734 107.863  0.00  0.00    +0.000 A 
ATOM      2  C22 UNL     1      73.181  64.317 107.947  0.00  0.00    +0.000 A 
ATOM      3  C24 UNL     1      72.176  63.940 107.019  0.00  0.00    +0.000 A 
ATOM      4  C25 UNL     1      72.478  63.007 106.028  0.00  0.00    +0.000 A 
ATOM      5  N3  UNL     1      71.622  62.551 104.995  0.00  0.00    +0.000 N 
ATOM      6  C26 UNL     1      70.183  62.811 104.952  0.00  0.00    +0.000 C 
ATOM      7  C27 UNL     1      72.335  61.560 104.166  0.00  0.00    +0.000 C 
ATOM      8  C28 UNL     1      72.215  61.898 102.619  0.00  0.00    +0.000 C 
ATOM      9  C29 UNL     1      73.582  61.838 101.861  0.00  0.00    +0.000 C 
ATOM     10  C32 UNL     1      74.738  62.558 102.610  0.00  0.00    +0.000 C 
ATOM     11  C35 UNL     1      75.992  62.488 101.728  0.00  0.00    +0.000 C 
ATOM     12  C36 UNL     1      76.991  61.602 101.933  0.00  0.00    +0.000 C 
ATOM     13  C37 UNL     1      76.987  60.661 103.113  0.00  0.00    +0.000 C 
ATOM     14  N4  UNL     1      75.608  60.485 103.587  0.00  0.00    +0.000 NA
ATOM     15  C38 UNL     1      75.490  59.705 104.811  0.00  0.00    +0.000 C 
ATOM     16  C39 UNL     1      74.103  60.030 105.343  0.00  0.00    +0.000 C 
ATOM     17  C40 UNL     1      73.786  61.457 104.810  0.00  0.00    +0.000 C 
ATOM     18  C41 UNL     1      75.006  61.779 103.911  0.00  0.00    +0.000 C 
ATOM     19  C42 UNL     1      73.701  62.428 105.957  0.00  0.00    +0.000 A 
ATOM     20  C43 UNL     1      74.708  62.760 106.857  0.00  0.00    +0.000 A 
ENDROOT
BRANCH   1  37
ATOM     21  C3  UNL     1      78.617  64.131 104.945  0.00  0.00    +0.000 C 
ATOM     22  C4  UNL     1      78.244  63.356 106.002  0.00  0.00    +0.000 C 
ATOM     23  C5  UNL     1      77.555  64.089 107.095  0.00  0.00    +0.000 C 
ATOM     24  C6  UNL     1      78.412  65.328 107.372  0.00  0.00    +0.000 C 
ATOM     25  N1  UNL     1      78.076  66.275 106.317  0.00  0.00    +0.000 NA
ATOM     26  C7  UNL     1      78.395  65.677 104.969  0.00  0.00    +0.000 C 
ATOM     27  C8  UNL     1      76.650  66.720 106.440  0.00  0.00    +0.000 C 
ATOM     28  C9  UNL     1      76.114  66.801 107.893  0.00  0.00    +0.000 A 
ATOM     29  C10 UNL     1      75.735  65.786 108.872  0.00  0.00    +0.000 A 
ATOM     30  N2  UNL     1      75.213  66.439 109.951  0.00  0.00    +0.000 N 
ATOM     31  C11 UNL     1      75.267  67.754 109.719  0.00  0.00    +0.000 A 
ATOM     32  C12 UNL     1      75.810  68.018 108.497  0.00  0.00    +0.000 A 
ATOM     33  C13 UNL     1      75.931  69.339 108.036  0.00  0.00    +0.000 A 
ATOM     34  C14 UNL     1      75.468  70.378 108.863  0.00  0.00    +0.000 A 
ATOM     35  C15 UNL     1      74.889  70.090 110.116  0.00  0.00    +0.000 A 
ATOM     36  C16 UNL     1      74.787  68.761 110.557  0.00  0.00    +0.000 A 
ATOM     37  C17 UNL     1      75.655  64.198 108.792  0.00  0.00    +0.000 C 
ATOM     38  C18 UNL     1      77.012  63.480 108.364  0.00  0.00    +0.000 C 
ATOM     39  H14 UNL     1      74.777  66.025 110.806  0.00  0.00    +0.000 HD
BRANCH  21  41
ATOM     40  C1  UNL     1      79.293  64.490 102.575  0.00  0.00    +0.000 C 
ATOM     41  C2  UNL     1      79.229  63.493 103.726  0.00  0.00    +0.000 C 
ENDBRANCH  21  41
BRANCH  37  42
ATOM     42  C19 UNL     1      75.332  63.690 110.200  0.00  0.00    +0.000 C 
ATOM     43  O1  UNL     1      74.469  62.784 110.369  0.00  0.00    +0.000 OA
BRANCH  42  44
ATOM     44  O2  UNL     1      76.076  64.151 111.297  0.00  0.00    +0.000 OA
ATOM     45  C20 UNL     1      76.823  63.285 112.138  0.00  0.00    +0.000 C 
ENDBRANCH  42  44
ENDBRANCH  37  42
ENDBRANCH   1  37
BRANCH   2  46
ATOM     46  O3  UNL     1      72.919  65.286 108.931  0.00  0.00    +0.000 OA
ATOM     47  C23 UNL     1      71.801  65.269 109.814  0.00  0.00    +0.000 C 
ENDBRANCH   2  46
BRANCH   8  48
ATOM     48  O4  UNL     1      71.654  63.191 102.466  0.00  0.00    +0.000 OA
ATOM     49  H32 UNL     1      71.053  63.199 101.676  0.00  0.00    +0.000 HD
ENDBRANCH   8  48
BRANCH  10  50
ATOM     50  C33 UNL     1      74.406  64.060 102.898  0.00  0.00    +0.000 C 
ATOM     51  C34 UNL     1      75.563  65.049 102.679  0.00  0.00    +0.000 C 
ENDBRANCH  10  50
BRANCH   8  52
ATOM     52  C44 UNL     1      71.277  60.872 101.993  0.00  0.00    +0.000 C 
ATOM     53  O7  UNL     1      71.726  59.780 101.543  0.00  0.00    +0.000 OA
BRANCH  52  54
ATOM     54  O8  UNL     1      69.913  61.167 101.884  0.00  0.00    +0.000 OA
ATOM     55  C45 UNL     1      69.247  61.263 100.631  0.00  0.00    +0.000 C 
ENDBRANCH  52  54
ENDBRANCH   8  52
BRANCH   9  56
ATOM     56  O5  UNL     1      73.453  62.390 100.542  0.00  0.00    +0.000 OA
BRANCH  56  57
ATOM     57  C30 UNL     1      73.452  61.635  99.365  0.00  0.00    +0.000 C 
ATOM     58  C31 UNL     1      74.353  60.453  99.257  0.00  0.00    +0.000 C 
ATOM     59  O6  UNL     1      72.709  61.947  98.395  0.00  0.00    +0.000 OA
ENDBRANCH  56  57
ENDBRANCH   9  56
TORSDOF 11
ENDMDL
MODEL 5
REMARK VINA RESULT:      -6.9      7.926     12.003
REMARK  Name = ./S4269.pdb
REMARK  18 active torsions:
REMARK  status: ('A' for Active; 'I' for Inactive)
REMARK    1  A    between atoms: C1_1  and  C2_2
REMARK    2  A    between atoms: C2_2  and  C3_3
REMARK    3  A    between atoms: C17_19  and  C19_21
REMARK    4  A    between atoms: C17_19  and  C21_25
REMARK    5  A    between atoms: C19_21  and  O2_23
REMARK    6  A    between atoms: O2_23  and  C20_24
REMARK    7  A    between atoms: C22_26  and  O3_27
REMARK    8  A    between atoms: O3_27  and  C23_28
REMARK    9  A    between atoms: N3_31  and  C26_32
REMARK   10  A    between atoms: C28_34  and  O4_35
REMARK   11  A    between atoms: C28_34  and  C44_54
REMARK   12  A    between atoms: C29_36  and  O5_37
REMARK   13  A    between atoms: O5_37  and  C30_38
REMARK   14  A    between atoms: C30_38  and  C31_39
REMARK   15  A    between atoms: C32_41  and  C33_42
REMARK   16  A    between atoms: C33_42  and  C34_43
REMARK   17  A    between atoms: C44_54  and  O8_56
REMARK   18  A    between atoms: O8_56  and  C45_57
REMARK                            x       y       z     vdW  Elec       q    Type
REMARK                         _______ _______ _______ _____ _____    ______ ____
ROOT
ATOM      1  C21 UNL     1      77.213  65.426 107.960  0.00  0.00    +0.000 A 
ATOM      2  C22 UNL     1      78.113  66.336 107.308  0.00  0.00    +0.000 A 
ATOM      3  C24 UNL     1      77.795  67.718 107.233  0.00  0.00    +0.000 A 
ATOM      4  C25 UNL     1      76.603  68.175 107.791  0.00  0.00    +0.000 A 
ATOM      5  N3  UNL     1      76.101  69.500 107.769  0.00  0.00    +0.000 N 
ATOM      6  C26 UNL     1      76.888  70.663 107.362  0.00  0.00    +0.000 C 
ATOM      7  C27 UNL     1      74.810  69.550 108.482  0.00  0.00    +0.000 C 
ATOM      8  C28 UNL     1      73.695  70.281 107.619  0.00  0.00    +0.000 C 
ATOM      9  C29 UNL     1      72.343  69.498 107.556  0.00  0.00    +0.000 C 
ATOM     10  C32 UNL     1      72.519  67.981 107.265  0.00  0.00    +0.000 C 
ATOM     11  C35 UNL     1      71.122  67.353 107.158  0.00  0.00    +0.000 C 
ATOM     12  C36 UNL     1      70.548  66.653 108.159  0.00  0.00    +0.000 C 
ATOM     13  C37 UNL     1      71.283  66.358 109.444  0.00  0.00    +0.000 C 
ATOM     14  N4  UNL     1      72.353  67.348 109.627  0.00  0.00    +0.000 NA
ATOM     15  C38 UNL     1      73.222  67.086 110.766  0.00  0.00    +0.000 C 
ATOM     16  C39 UNL     1      74.466  67.920 110.501  0.00  0.00    +0.000 C 
ATOM     17  C40 UNL     1      74.545  68.054 108.953  0.00  0.00    +0.000 C 
ATOM     18  C41 UNL     1      73.248  67.358 108.470  0.00  0.00    +0.000 C 
ATOM     19  C42 UNL     1      75.759  67.331 108.435  0.00  0.00    +0.000 A 
ATOM     20  C43 UNL     1      76.042  65.974 108.542  0.00  0.00    +0.000 A 
ENDROOT
BRANCH   1  37
ATOM     21  C3  UNL     1      72.807  63.207 106.794  0.00  0.00    +0.000 C 
ATOM     22  C4  UNL     1      73.627  63.229 107.881  0.00  0.00    +0.000 C 
ATOM     23  C5  UNL     1      75.074  63.108 107.569  0.00  0.00    +0.000 C 
ATOM     24  C6  UNL     1      75.194  61.931 106.595  0.00  0.00    +0.000 C 
ATOM     25  N1  UNL     1      74.801  62.463 105.296  0.00  0.00    +0.000 NA
ATOM     26  C7  UNL     1      73.386  62.981 105.361  0.00  0.00    +0.000 C 
ATOM     27  C8  UNL     1      75.783  63.493 104.826  0.00  0.00    +0.000 C 
ATOM     28  C9  UNL     1      77.250  63.243 105.263  0.00  0.00    +0.000 A 
ATOM     29  C10 UNL     1      77.943  63.370 106.542  0.00  0.00    +0.000 A 
ATOM     30  N2  UNL     1      79.268  63.134 106.311  0.00  0.00    +0.000 N 
ATOM     31  C11 UNL     1      79.429  62.855 105.014  0.00  0.00    +0.000 A 
ATOM     32  C12 UNL     1      78.241  62.900 104.347  0.00  0.00    +0.000 A 
ATOM     33  C13 UNL     1      78.186  62.669 102.963  0.00  0.00    +0.000 A 
ATOM     34  C14 UNL     1      79.388  62.403 102.284  0.00  0.00    +0.000 A 
ATOM     35  C15 UNL     1      80.613  62.379 102.981  0.00  0.00    +0.000 A 
ATOM     36  C16 UNL     1      80.639  62.605 104.367  0.00  0.00    +0.000 A 
ATOM     37  C17 UNL     1      77.468  63.889 107.971  0.00  0.00    +0.000 C 
ATOM     38  C18 UNL     1      76.202  63.130 108.571  0.00  0.00    +0.000 C 
ATOM     39  H14 UNL     1      80.064  63.210 106.984  0.00  0.00    +0.000 HD
BRANCH  21  41
ATOM     40  C1  UNL     1      70.641  63.534 105.608  0.00  0.00    +0.000 C 
ATOM     41  C2  UNL     1      71.328  63.428 106.965  0.00  0.00    +0.000 C 
ENDBRANCH  21  41
BRANCH  37  42
ATOM     42  C19 UNL     1      78.619  63.634 108.949  0.00  0.00    +0.000 C 
ATOM     43  O1  UNL     1      79.655  64.356 108.917  0.00  0.00    +0.000 OA
BRANCH  42  44
ATOM     44  O2  UNL     1      78.477  62.670 109.959  0.00  0.00    +0.000 OA
ATOM     45  C20 UNL     1      78.435  63.003 111.339  0.00  0.00    +0.000 C 
ENDBRANCH  42  44
ENDBRANCH  37  42
ENDBRANCH   1  37
BRANCH   2  46
ATOM     46  O3  UNL     1      79.288  65.840 106.717  0.00  0.00    +0.000 OA
ATOM     47  C23 UNL     1      80.048  66.517 105.721  0.00  0.00    +0.000 C 
ENDBRANCH   2  46
BRANCH   8  48
ATOM     48  O4  UNL     1      74.180  70.479 106.302  0.00  0.00    +0.000 OA
ATOM     49  H32 UNL     1      74.783  71.269 106.287  0.00  0.00    +0.000 HD
ENDBRANCH   8  48
BRANCH  10  50
ATOM     50  C33 UNL     1      73.293  67.725 105.930  0.00  0.00    +0.000 C 
ATOM     51  C34 UNL     1      73.687  66.262 105.662  0.00  0.00    +0.000 C 
ENDBRANCH  10  50
BRANCH   8  52
ATOM     52  C44 UNL     1      73.431  71.639 108.261  0.00  0.00    +0.000 C 
ATOM     53  O7  UNL     1      73.163  72.646 107.546  0.00  0.00    +0.000 OA
BRANCH  52  54
ATOM     54  O8  UNL     1      73.528  71.772 109.651  0.00  0.00    +0.000 OA
ATOM     55  C45 UNL     1      74.268  72.814 110.273  0.00  0.00    +0.000 C 
ENDBRANCH  52  54
ENDBRANCH   8  52
BRANCH   9  56
ATOM     56  O5  UNL     1      71.471  70.074 106.572  0.00  0.00    +0.000 OA
BRANCH  56  57
ATOM     57  C30 UNL     1      70.226  70.645 106.855  0.00  0.00    +0.000 C 
ATOM     58  C31 UNL     1      69.036  70.227 106.064  0.00  0.00    +0.000 C 
ATOM     59  O6  UNL     1      70.104  71.514 107.761  0.00  0.00    +0.000 OA
ENDBRANCH  56  57
ENDBRANCH   9  56
TORSDOF 11
ENDMDL
MODEL 6
REMARK VINA RESULT:      -6.9      4.998     10.643
REMARK  Name = ./S4269.pdb
REMARK  18 active torsions:
REMARK  status: ('A' for Active; 'I' for Inactive)
REMARK    1  A    between atoms: C1_1  and  C2_2
REMARK    2  A    between atoms: C2_2  and  C3_3
REMARK    3  A    between atoms: C17_19  and  C19_21
REMARK    4  A    between atoms: C17_19  and  C21_25
REMARK    5  A    between atoms: C19_21  and  O2_23
REMARK    6  A    between atoms: O2_23  and  C20_24
REMARK    7  A    between atoms: C22_26  and  O3_27
REMARK    8  A    between atoms: O3_27  and  C23_28
REMARK    9  A    between atoms: N3_31  and  C26_32
REMARK   10  A    between atoms: C28_34  and  O4_35
REMARK   11  A    between atoms: C28_34  and  C44_54
REMARK   12  A    between atoms: C29_36  and  O5_37
REMARK   13  A    between atoms: O5_37  and  C30_38
REMARK   14  A    between atoms: C30_38  and  C31_39
REMARK   15  A    between atoms: C32_41  and  C33_42
REMARK   16  A    between atoms: C33_42  and  C34_43
REMARK   17  A    between atoms: C44_54  and  O8_56
REMARK   18  A    between atoms: O8_56  and  C45_57
REMARK                            x       y       z     vdW  Elec       q    Type
REMARK                         _______ _______ _______ _____ _____    ______ ____
ROOT
ATOM      1  C21 UNL     1      75.673  62.401 103.922  0.00  0.00    +0.000 A 
ATOM      2  C22 UNL     1      74.276  62.468 103.596  0.00  0.00    +0.000 A 
ATOM      3  C24 UNL     1      73.374  63.133 104.468  0.00  0.00    +0.000 A 
ATOM      4  C25 UNL     1      73.859  63.709 105.640  0.00  0.00    +0.000 A 
ATOM      5  N3  UNL     1      73.106  64.365 106.645  0.00  0.00    +0.000 N 
ATOM      6  C26 UNL     1      71.706  64.761 106.489  0.00  0.00    +0.000 C 
ATOM      7  C27 UNL     1      74.010  64.833 107.713  0.00  0.00    +0.000 C 
ATOM      8  C28 UNL     1      73.493  64.397 109.150  0.00  0.00    +0.000 C 
ATOM      9  C29 UNL     1      74.605  63.757 110.044  0.00  0.00    +0.000 C 
ATOM     10  C32 UNL     1      75.467  62.700 109.299  0.00  0.00    +0.000 C 
ATOM     11  C35 UNL     1      76.463  62.104 110.305  0.00  0.00    +0.000 C 
ATOM     12  C36 UNL     1      77.758  62.478 110.373  0.00  0.00    +0.000 C 
ATOM     13  C37 UNL     1      78.352  63.462 109.393  0.00  0.00    +0.000 C 
ATOM     14  N4  UNL     1      77.277  64.282 108.819  0.00  0.00    +0.000 NA
ATOM     15  C38 UNL     1      77.710  65.178 107.756  0.00  0.00    +0.000 C 
ATOM     16  C39 UNL     1      76.430  65.562 107.030  0.00  0.00    +0.000 C 
ATOM     17  C40 UNL     1      75.460  64.366 107.254  0.00  0.00    +0.000 C 
ATOM     18  C41 UNL     1      76.258  63.434 108.200  0.00  0.00    +0.000 C 
ATOM     19  C42 UNL     1      75.180  63.678 105.945  0.00  0.00    +0.000 A 
ATOM     20  C43 UNL     1      76.097  63.050 105.109  0.00  0.00    +0.000 A 
ENDROOT
BRANCH   1  37
ATOM     21  C3  UNL     1      76.897  65.351  99.986  0.00  0.00    +0.000 C 
ATOM     22  C4  UNL     1      76.261  64.157 100.146  0.00  0.00    +0.000 C 
ATOM     23  C5  UNL     1      76.908  63.235 101.115  0.00  0.00    +0.000 C 
ATOM     24  C6  UNL     1      78.395  63.221 100.748  0.00  0.00    +0.000 C 
ATOM     25  N1  UNL     1      78.945  64.446 101.313  0.00  0.00    +0.000 NA
ATOM     26  C7  UNL     1      78.245  65.644 100.720  0.00  0.00    +0.000 C 
ATOM     27  C8  UNL     1      78.885  64.412 102.810  0.00  0.00    +0.000 C 
ATOM     28  C9  UNL     1      79.055  63.005 103.439  0.00  0.00    +0.000 A 
ATOM     29  C10 UNL     1      78.182  61.838 103.518  0.00  0.00    +0.000 A 
ATOM     30  N2  UNL     1      78.810  60.914 104.302  0.00  0.00    +0.000 N 
ATOM     31  C11 UNL     1      79.991  61.411 104.681  0.00  0.00    +0.000 A 
ATOM     32  C12 UNL     1      80.185  62.662 104.178  0.00  0.00    +0.000 A 
ATOM     33  C13 UNL     1      81.351  63.385 104.480  0.00  0.00    +0.000 A 
ATOM     34  C14 UNL     1      82.305  62.787 105.322  0.00  0.00    +0.000 A 
ATOM     35  C15 UNL     1      82.083  61.500 105.853  0.00  0.00    +0.000 A 
ATOM     36  C16 UNL     1      80.913  60.796 105.529  0.00  0.00    +0.000 A 
ATOM     37  C17 UNL     1      76.680  61.591 103.051  0.00  0.00    +0.000 C 
ATOM     38  C18 UNL     1      76.407  61.866 101.505  0.00  0.00    +0.000 C 
ATOM     39  H14 UNL     1      78.445  59.991 104.630  0.00  0.00    +0.000 HD
BRANCH  21  41
ATOM     40  C1  UNL     1      75.914  65.842  97.751  0.00  0.00    +0.000 C 
ATOM     41  C2  UNL     1      76.287  66.415  99.113  0.00  0.00    +0.000 C 
ENDBRANCH  21  41
BRANCH  37  42
ATOM     42  C19 UNL     1      76.375  60.107 103.278  0.00  0.00    +0.000 C 
ATOM     43  O1  UNL     1      76.537  59.272 102.345  0.00  0.00    +0.000 OA
BRANCH  42  44
ATOM     44  O2  UNL     1      76.021  59.655 104.558  0.00  0.00    +0.000 OA
ATOM     45  C20 UNL     1      76.323  58.346 105.021  0.00  0.00    +0.000 C 
ENDBRANCH  42  44
ENDBRANCH  37  42
ENDBRANCH   1  37
BRANCH   2  46
ATOM     46  O3  UNL     1      73.810  61.841 102.428  0.00  0.00    +0.000 OA
ATOM     47  C23 UNL     1      72.840  60.798 102.394  0.00  0.00    +0.000 C 
ENDBRANCH   2  46
BRANCH   8  48
ATOM     48  O4  UNL     1      72.428  63.473 109.001  0.00  0.00    +0.000 OA
ATOM     49  H32 UNL     1      71.566  63.929 109.193  0.00  0.00    +0.000 HD
ENDBRANCH   8  48
BRANCH  10  50
ATOM     50  C33 UNL     1      74.596  61.544 108.704  0.00  0.00    +0.000 C 
ATOM     51  C34 UNL     1      75.355  60.513 107.850  0.00  0.00    +0.000 C 
ENDBRANCH  10  50
BRANCH   8  52
ATOM     52  C44 UNL     1      72.974  65.646 109.853  0.00  0.00    +0.000 C 
ATOM     53  O7  UNL     1      73.764  66.576 110.177  0.00  0.00    +0.000 OA
BRANCH  52  54
ATOM     54  O8  UNL     1      71.615  65.735 110.176  0.00  0.00    +0.000 OA
ATOM     55  C45 UNL     1      70.729  66.635 109.524  0.00  0.00    +0.000 C 
ENDBRANCH  52  54
ENDBRANCH   8  52
BRANCH   9  56
ATOM     56  O5  UNL     1      74.031  63.162 111.217  0.00  0.00    +0.000 OA
BRANCH  56  57
ATOM     57  C30 UNL     1      74.140  63.691 112.507  0.00  0.00    +0.000 C 
ATOM     58  C31 UNL     1      75.286  64.586 112.832  0.00  0.00    +0.000 C 
ATOM     59  O6  UNL     1      73.291  63.411 113.397  0.00  0.00    +0.000 OA
ENDBRANCH  56  57
ENDBRANCH   9  56
TORSDOF 11
ENDMDL
MODEL 7
REMARK VINA RESULT:      -6.9      5.779     11.246
REMARK  Name = ./S4269.pdb
REMARK  18 active torsions:
REMARK  status: ('A' for Active; 'I' for Inactive)
REMARK    1  A    between atoms: C1_1  and  C2_2
REMARK    2  A    between atoms: C2_2  and  C3_3
REMARK    3  A    between atoms: C17_19  and  C19_21
REMARK    4  A    between atoms: C17_19  and  C21_25
REMARK    5  A    between atoms: C19_21  and  O2_23
REMARK    6  A    between atoms: O2_23  and  C20_24
REMARK    7  A    between atoms: C22_26  and  O3_27
REMARK    8  A    between atoms: O3_27  and  C23_28
REMARK    9  A    between atoms: N3_31  and  C26_32
REMARK   10  A    between atoms: C28_34  and  O4_35
REMARK   11  A    between atoms: C28_34  and  C44_54
REMARK   12  A    between atoms: C29_36  and  O5_37
REMARK   13  A    between atoms: O5_37  and  C30_38
REMARK   14  A    between atoms: C30_38  and  C31_39
REMARK   15  A    between atoms: C32_41  and  C33_42
REMARK   16  A    between atoms: C33_42  and  C34_43
REMARK   17  A    between atoms: C44_54  and  O8_56
REMARK   18  A    between atoms: O8_56  and  C45_57
REMARK                            x       y       z     vdW  Elec       q    Type
REMARK                         _______ _______ _______ _____ _____    ______ ____
ROOT
ATOM      1  C21 UNL     1      73.159  61.995 106.874  0.00  0.00    +0.000 A 
ATOM      2  C22 UNL     1      73.822  61.244 107.903  0.00  0.00    +0.000 A 
ATOM      3  C24 UNL     1      74.134  61.859 109.143  0.00  0.00    +0.000 A 
ATOM      4  C25 UNL     1      73.796  63.197 109.344  0.00  0.00    +0.000 A 
ATOM      5  N3  UNL     1      74.070  63.984 110.490  0.00  0.00    +0.000 N 
ATOM      6  C26 UNL     1      74.544  63.438 111.761  0.00  0.00    +0.000 C 
ATOM      7  C27 UNL     1      73.533  65.344 110.293  0.00  0.00    +0.000 C 
ATOM      8  C28 UNL     1      74.621  66.454 110.620  0.00  0.00    +0.000 C 
ATOM      9  C29 UNL     1      74.733  67.560 109.520  0.00  0.00    +0.000 C 
ATOM     10  C32 UNL     1      74.778  66.993 108.073  0.00  0.00    +0.000 C 
ATOM     11  C35 UNL     1      74.961  68.171 107.106  0.00  0.00    +0.000 C 
ATOM     12  C36 UNL     1      73.946  68.712 106.400  0.00  0.00    +0.000 C 
ATOM     13  C37 UNL     1      72.552  68.133 106.443  0.00  0.00    +0.000 C 
ATOM     14  N4  UNL     1      72.387  67.365 107.684  0.00  0.00    +0.000 NA
ATOM     15  C38 UNL     1      71.125  66.643 107.778  0.00  0.00    +0.000 C 
ATOM     16  C39 UNL     1      71.356  65.602 108.863  0.00  0.00    +0.000 C 
ATOM     17  C40 UNL     1      72.886  65.322 108.840  0.00  0.00    +0.000 C 
ATOM     18  C41 UNL     1      73.417  66.331 107.791  0.00  0.00    +0.000 C 
ATOM     19  C42 UNL     1      73.143  63.908 108.392  0.00  0.00    +0.000 A 
ATOM     20  C43 UNL     1      72.807  63.335 107.170  0.00  0.00    +0.000 A 
ENDROOT
BRANCH   1  37
ATOM     21  C3  UNL     1      75.271  65.156 103.521  0.00  0.00    +0.000 C 
ATOM     22  C4  UNL     1      74.004  64.740 103.802  0.00  0.00    +0.000 C 
ATOM     23  C5  UNL     1      73.872  63.283 104.057  0.00  0.00    +0.000 C 
ATOM     24  C6  UNL     1      74.625  62.590 102.918  0.00  0.00    +0.000 C 
ATOM     25  N1  UNL     1      76.035  62.680 103.275  0.00  0.00    +0.000 NA
ATOM     26  C7  UNL     1      76.441  64.127 103.401  0.00  0.00    +0.000 C 
ATOM     27  C8  UNL     1      76.320  61.880 104.510  0.00  0.00    +0.000 C 
ATOM     28  C9  UNL     1      75.455  60.604 104.676  0.00  0.00    +0.000 A 
ATOM     29  C10 UNL     1      74.055  60.390 105.031  0.00  0.00    +0.000 A 
ATOM     30  N2  UNL     1      73.867  59.043 105.148  0.00  0.00    +0.000 N 
ATOM     31  C11 UNL     1      75.021  58.428 104.871  0.00  0.00    +0.000 A 
ATOM     32  C12 UNL     1      76.001  59.327 104.573  0.00  0.00    +0.000 A 
ATOM     33  C13 UNL     1      77.306  58.896 104.282  0.00  0.00    +0.000 A 
ATOM     34  C14 UNL     1      77.575  57.517 104.318  0.00  0.00    +0.000 A 
ATOM     35  C15 UNL     1      76.558  56.598 104.648  0.00  0.00    +0.000 A 
ATOM     36  C16 UNL     1      75.259  57.055 104.926  0.00  0.00    +0.000 A 
ATOM     37  C17 UNL     1      72.894  61.392 105.461  0.00  0.00    +0.000 C 
ATOM     38  C18 UNL     1      72.597  62.559 104.418  0.00  0.00    +0.000 C 
ATOM     39  H14 UNL     1      73.007  58.536 105.458  0.00  0.00    +0.000 HD
BRANCH  21  41
ATOM     40  C1  UNL     1      77.048  66.901 103.515  0.00  0.00    +0.000 C 
ATOM     41  C2  UNL     1      75.558  66.623 103.347  0.00  0.00    +0.000 C 
ENDBRANCH  21  41
BRANCH  37  42
ATOM     42  C19 UNL     1      71.604  60.572 105.559  0.00  0.00    +0.000 C 
ATOM     43  O1  UNL     1      70.863  60.425 104.547  0.00  0.00    +0.000 OA
BRANCH  42  44
ATOM     44  O2  UNL     1      71.299  59.889 106.746  0.00  0.00    +0.000 OA
ATOM     45  C20 UNL     1      70.696  58.603 106.759  0.00  0.00    +0.000 C 
ENDBRANCH  42  44
ENDBRANCH  37  42
ENDBRANCH   1  37
BRANCH   2  46
ATOM     46  O3  UNL     1      74.188  59.909 107.656  0.00  0.00    +0.000 OA
ATOM     47  C23 UNL     1      73.996  58.829 108.565  0.00  0.00    +0.000 C 
ENDBRANCH   2  46
BRANCH   8  48
ATOM     48  O4  UNL     1      75.885  65.834 110.786  0.00  0.00    +0.000 OA
ATOM     49  H32 UNL     1      76.162  65.898 111.738  0.00  0.00    +0.000 HD
ENDBRANCH   8  48
BRANCH  10  50
ATOM     50  C33 UNL     1      75.959  65.986 107.873  0.00  0.00    +0.000 C 
ATOM     51  C34 UNL     1      77.211  66.559 107.189  0.00  0.00    +0.000 C 
ENDBRANCH  10  50
BRANCH   8  52
ATOM     52  C44 UNL     1      74.220  67.123 111.930  0.00  0.00    +0.000 C 
ATOM     53  O7  UNL     1      74.921  68.055 112.417  0.00  0.00    +0.000 OA
BRANCH  52  54
ATOM     54  O8  UNL     1      73.087  66.667 112.614  0.00  0.00    +0.000 OA
ATOM     55  C45 UNL     1      73.139  66.190 113.953  0.00  0.00    +0.000 C 
ENDBRANCH  52  54
ENDBRANCH   8  52
BRANCH   9  56
ATOM     56  O5  UNL     1      75.889  68.382 109.745  0.00  0.00    +0.000 OA
BRANCH  56  57
ATOM     57  C30 UNL     1      75.901  69.776 109.635  0.00  0.00    +0.000 C 
ATOM     58  C31 UNL     1      77.145  70.460 109.184  0.00  0.00    +0.000 C 
ATOM     59  O6  UNL     1      74.880  70.458 109.922  0.00  0.00    +0.000 OA
ENDBRANCH  56  57
ENDBRANCH   9  56
TORSDOF 11
ENDMDL
MODEL 8
REMARK VINA RESULT:      -6.9      4.729     10.376
REMARK  Name = ./S4269.pdb
REMARK  18 active torsions:
REMARK  status: ('A' for Active; 'I' for Inactive)
REMARK    1  A    between atoms: C1_1  and  C2_2
REMARK    2  A    between atoms: C2_2  and  C3_3
REMARK    3  A    between atoms: C17_19  and  C19_21
REMARK    4  A    between atoms: C17_19  and  C21_25
REMARK    5  A    between atoms: C19_21  and  O2_23
REMARK    6  A    between atoms: O2_23  and  C20_24
REMARK    7  A    between atoms: C22_26  and  O3_27
REMARK    8  A    between atoms: O3_27  and  C23_28
REMARK    9  A    between atoms: N3_31  and  C26_32
REMARK   10  A    between atoms: C28_34  and  O4_35
REMARK   11  A    between atoms: C28_34  and  C44_54
REMARK   12  A    between atoms: C29_36  and  O5_37
REMARK   13  A    between atoms: O5_37  and  C30_38
REMARK   14  A    between atoms: C30_38  and  C31_39
REMARK   15  A    between atoms: C32_41  and  C33_42
REMARK   16  A    between atoms: C33_42  and  C34_43
REMARK   17  A    between atoms: C44_54  and  O8_56
REMARK   18  A    between atoms: O8_56  and  C45_57
REMARK                            x       y       z     vdW  Elec       q    Type
REMARK                         _______ _______ _______ _____ _____    ______ ____
ROOT
ATOM      1  C21 UNL     1      73.512  61.385 104.801  0.00  0.00    +0.000 A 
ATOM      2  C22 UNL     1      72.157  61.312 105.270  0.00  0.00    +0.000 A 
ATOM      3  C24 UNL     1      71.561  62.436 105.900  0.00  0.00    +0.000 A 
ATOM      4  C25 UNL     1      72.308  63.602 106.062  0.00  0.00    +0.000 A 
ATOM      5  N3  UNL     1      71.899  64.796 106.705  0.00  0.00    +0.000 N 
ATOM      6  C26 UNL     1      70.518  65.083 107.093  0.00  0.00    +0.000 C 
ATOM      7  C27 UNL     1      72.992  65.785 106.649  0.00  0.00    +0.000 C 
ATOM      8  C28 UNL     1      73.287  66.412 108.078  0.00  0.00    +0.000 C 
ATOM      9  C29 UNL     1      74.807  66.433 108.447  0.00  0.00    +0.000 C 
ATOM     10  C32 UNL     1      75.536  65.094 108.146  0.00  0.00    +0.000 C 
ATOM     11  C35 UNL     1      76.991  65.228 108.620  0.00  0.00    +0.000 C 
ATOM     12  C36 UNL     1      78.021  65.477 107.783  0.00  0.00    +0.000 C 
ATOM     13  C37 UNL     1      77.827  65.557 106.288  0.00  0.00    +0.000 C 
ATOM     14  N4  UNL     1      76.423  65.877 105.999  0.00  0.00    +0.000 NA
ATOM     15  C38 UNL     1      76.081  65.847 104.583  0.00  0.00    +0.000 C 
ATOM     16  C39 UNL     1      74.563  65.750 104.555  0.00  0.00    +0.000 C 
ATOM     17  C40 UNL     1      74.176  65.044 105.886  0.00  0.00    +0.000 C 
ATOM     18  C41 UNL     1      75.533  64.895 106.618  0.00  0.00    +0.000 C 
ATOM     19  C42 UNL     1      73.578  63.693 105.597  0.00  0.00    +0.000 A 
ATOM     20  C43 UNL     1      74.191  62.619 104.961  0.00  0.00    +0.000 A 
ENDROOT
BRANCH   1  37
ATOM     21  C3  UNL     1      72.171  61.123  99.920  0.00  0.00    +0.000 C 
ATOM     22  C4  UNL     1      71.996  60.339 101.020  0.00  0.00    +0.000 C 
ATOM     23  C5  UNL     1      73.204  60.189 101.872  0.00  0.00    +0.000 C 
ATOM     24  C6  UNL     1      74.351  59.851 100.916  0.00  0.00    +0.000 C 
ATOM     25  N1  UNL     1      74.743  61.120 100.317  0.00  0.00    +0.000 NA
ATOM     26  C7  UNL     1      73.573  61.722  99.579  0.00  0.00    +0.000 C 
ATOM     27  C8  UNL     1      75.322  62.037 101.351  0.00  0.00    +0.000 C 
ATOM     28  C9  UNL     1      76.100  61.329 102.490  0.00  0.00    +0.000 A 
ATOM     29  C10 UNL     1      75.678  60.530 103.637  0.00  0.00    +0.000 A 
ATOM     30  N2  UNL     1      76.793  60.264 104.378  0.00  0.00    +0.000 N 
ATOM     31  C11 UNL     1      77.848  60.810 103.768  0.00  0.00    +0.000 A 
ATOM     32  C12 UNL     1      77.480  61.452 102.624  0.00  0.00    +0.000 A 
ATOM     33  C13 UNL     1      78.432  62.126 101.841  0.00  0.00    +0.000 A 
ATOM     34  C14 UNL     1      79.770  62.129 102.274  0.00  0.00    +0.000 A 
ATOM     35  C15 UNL     1      80.134  61.478 103.470  0.00  0.00    +0.000 A 
ATOM     36  C16 UNL     1      79.165  60.805 104.231  0.00  0.00    +0.000 A 
ATOM     37  C17 UNL     1      74.240  60.143 104.202  0.00  0.00    +0.000 C 
ATOM     38  C18 UNL     1      73.288  59.405 103.159  0.00  0.00    +0.000 C 
ATOM     39  H14 UNL     1      76.853  59.778 105.302  0.00  0.00    +0.000 HD
BRANCH  21  41
ATOM     40  C1  UNL     1      69.686  61.200  99.769  0.00  0.00    +0.000 C 
ATOM     41  C2  UNL     1      70.998  61.441  99.031  0.00  0.00    +0.000 C 
ENDBRANCH  21  41
BRANCH  37  42
ATOM     42  C19 UNL     1      74.457  59.155 105.352  0.00  0.00    +0.000 C 
ATOM     43  O1  UNL     1      74.489  57.913 105.127  0.00  0.00    +0.000 OA
BRANCH  42  44
ATOM     44  O2  UNL     1      74.735  59.633 106.641  0.00  0.00    +0.000 OA
ATOM     45  C20 UNL     1      74.135  59.090 107.808  0.00  0.00    +0.000 C 
ENDBRANCH  42  44
ENDBRANCH  37  42
ENDBRANCH   1  37
BRANCH   2  46
ATOM     46  O3  UNL     1      71.442  60.109 105.130  0.00  0.00    +0.000 OA
ATOM     47  C23 UNL     1      70.870  59.371 106.206  0.00  0.00    +0.000 C 
ENDBRANCH   2  46
BRANCH   8  48
ATOM     48  O4  UNL     1      72.580  65.679 109.063  0.00  0.00    +0.000 OA
ATOM     49  H32 UNL     1      71.613  65.667 108.836  0.00  0.00    +0.000 HD
ENDBRANCH   8  48
BRANCH  10  50
ATOM     50  C33 UNL     1      74.873  63.884 108.883  0.00  0.00    +0.000 C 
ATOM     51  C34 UNL     1      75.498  62.508 108.596  0.00  0.00    +0.000 C 
ENDBRANCH  10  50
BRANCH   8  52
ATOM     52  C44 UNL     1      72.778  67.849 108.067  0.00  0.00    +0.000 C 
ATOM     53  O7  UNL     1      73.465  68.770 107.541  0.00  0.00    +0.000 OA
BRANCH  52  54
ATOM     54  O8  UNL     1      71.557  68.149 108.683  0.00  0.00    +0.000 OA
ATOM     55  C45 UNL     1      70.459  68.709 107.975  0.00  0.00    +0.000 C 
ENDBRANCH  52  54
ENDBRANCH   8  52
BRANCH   9  56
ATOM     56  O5  UNL     1      74.987  66.772 109.830  0.00  0.00    +0.000 OA
BRANCH  56  57
ATOM     57  C30 UNL     1      75.356  68.040 110.293  0.00  0.00    +0.000 C 
ATOM     58  C31 UNL     1      76.473  68.762 109.623  0.00  0.00    +0.000 C 
ATOM     59  O6  UNL     1      74.763  68.570 111.272  0.00  0.00    +0.000 OA
ENDBRANCH  56  57
ENDBRANCH   9  56
TORSDOF 11
ENDMDL
MODEL 9
REMARK VINA RESULT:      -6.7      5.035     10.010
REMARK  Name = ./S4269.pdb
REMARK  18 active torsions:
REMARK  status: ('A' for Active; 'I' for Inactive)
REMARK    1  A    between atoms: C1_1  and  C2_2
REMARK    2  A    between atoms: C2_2  and  C3_3
REMARK    3  A    between atoms: C17_19  and  C19_21
REMARK    4  A    between atoms: C17_19  and  C21_25
REMARK    5  A    between atoms: C19_21  and  O2_23
REMARK    6  A    between atoms: O2_23  and  C20_24
REMARK    7  A    between atoms: C22_26  and  O3_27
REMARK    8  A    between atoms: O3_27  and  C23_28
REMARK    9  A    between atoms: N3_31  and  C26_32
REMARK   10  A    between atoms: C28_34  and  O4_35
REMARK   11  A    between atoms: C28_34  and  C44_54
REMARK   12  A    between atoms: C29_36  and  O5_37
REMARK   13  A    between atoms: O5_37  and  C30_38
REMARK   14  A    between atoms: C30_38  and  C31_39
REMARK   15  A    between atoms: C32_41  and  C33_42
REMARK   16  A    between atoms: C33_42  and  C34_43
REMARK   17  A    between atoms: C44_54  and  O8_56
REMARK   18  A    between atoms: O8_56  and  C45_57
REMARK                            x       y       z     vdW  Elec       q    Type
REMARK                         _______ _______ _______ _____ _____    ______ ____
ROOT
ATOM      1  C21 UNL     1      77.050  61.547 104.460  0.00  0.00    +0.000 A 
ATOM      2  C22 UNL     1      78.038  62.523 104.829  0.00  0.00    +0.000 A 
ATOM      3  C24 UNL     1      77.862  63.303 106.001  0.00  0.00    +0.000 A 
ATOM      4  C25 UNL     1      76.723  63.115 106.781  0.00  0.00    +0.000 A 
ATOM      5  N3  UNL     1      76.359  63.831 107.949  0.00  0.00    +0.000 N 
ATOM      6  C26 UNL     1      77.259  64.731 108.668  0.00  0.00    +0.000 C 
ATOM      7  C27 UNL     1      75.080  63.309 108.468  0.00  0.00    +0.000 C 
ATOM      8  C28 UNL     1      74.045  64.479 108.753  0.00  0.00    +0.000 C 
ATOM      9  C29 UNL     1      72.620  64.206 108.170  0.00  0.00    +0.000 C 
ATOM     10  C32 UNL     1      72.640  63.679 106.707  0.00  0.00    +0.000 C 
ATOM     11  C35 UNL     1      71.187  63.524 106.237  0.00  0.00    +0.000 C 
ATOM     12  C36 UNL     1      70.545  62.337 106.198  0.00  0.00    +0.000 C 
ATOM     13  C37 UNL     1      71.247  61.044 106.535  0.00  0.00    +0.000 C 
ATOM     14  N4  UNL     1      72.413  61.333 107.382  0.00  0.00    +0.000 NA
ATOM     15  C38 UNL     1      73.252  60.176 107.661  0.00  0.00    +0.000 C 
ATOM     16  C39 UNL     1      74.574  60.763 108.131  0.00  0.00    +0.000 C 
ATOM     17  C40 UNL     1      74.664  62.159 107.450  0.00  0.00    +0.000 C 
ATOM     18  C41 UNL     1      73.303  62.289 106.722  0.00  0.00    +0.000 C 
ATOM     19  C42 UNL     1      75.798  62.177 106.461  0.00  0.00    +0.000 A 
ATOM     20  C43 UNL     1      75.942  61.382 105.328  0.00  0.00    +0.000 A 
ENDROOT
BRANCH   1  37
ATOM     21  C3  UNL     1      72.414  61.555 102.411  0.00  0.00    +0.000 C 
ATOM     22  C4  UNL     1      73.259  60.606 102.902  0.00  0.00    +0.000 C 
ATOM     23  C5  UNL     1      74.678  60.767 102.494  0.00  0.00    +0.000 C 
ATOM     24  C6  UNL     1      74.653  61.001 100.980  0.00  0.00    +0.000 C 
ATOM     25  N1  UNL     1      74.285  62.401 100.811  0.00  0.00    +0.000 NA
ATOM     26  C7  UNL     1      72.932  62.653 101.428  0.00  0.00    +0.000 C 
ATOM     27  C8  UNL     1      75.355  63.299 101.353  0.00  0.00    +0.000 C 
ATOM     28  C9  UNL     1      76.799  62.751 101.216  0.00  0.00    +0.000 A 
ATOM     29  C10 UNL     1      77.532  61.695 101.907  0.00  0.00    +0.000 A 
ATOM     30  N2  UNL     1      78.820  61.732 101.456  0.00  0.00    +0.000 N 
ATOM     31  C11 UNL     1      78.920  62.700 100.539  0.00  0.00    +0.000 A 
ATOM     32  C12 UNL     1      77.727  63.333 100.356  0.00  0.00    +0.000 A 
ATOM     33  C13 UNL     1      77.615  64.407  99.458  0.00  0.00    +0.000 A 
ATOM     34  C14 UNL     1      78.767  64.818  98.764  0.00  0.00    +0.000 A 
ATOM     35  C15 UNL     1      79.999  64.168  98.977  0.00  0.00    +0.000 A 
ATOM     36  C16 UNL     1      80.083  63.091  99.874  0.00  0.00    +0.000 A 
ATOM     37  C17 UNL     1      77.148  60.746 103.127  0.00  0.00    +0.000 C 
ATOM     38  C18 UNL     1      75.827  59.882 102.912  0.00  0.00    +0.000 C 
ATOM     39  H14 UNL     1      79.636  61.167 101.784  0.00  0.00    +0.000 HD
BRANCH  21  41
ATOM     40  C1  UNL     1      70.235  62.743 102.203  0.00  0.00    +0.000 C 
ATOM     41  C2  UNL     1      70.970  61.566 102.834  0.00  0.00    +0.000 C 
ENDBRANCH  21  41
BRANCH  37  42
ATOM     42  C19 UNL     1      78.291  59.739 103.293  0.00  0.00    +0.000 C 
ATOM     43  O1  UNL     1      78.080  58.504 103.137  0.00  0.00    +0.000 OA
BRANCH  42  44
ATOM     44  O2  UNL     1      79.599  60.197 103.508  0.00  0.00    +0.000 OA
ATOM     45  C20 UNL     1      80.513  59.535 104.372  0.00  0.00    +0.000 C 
ENDBRANCH  42  44
ENDBRANCH  37  42
ENDBRANCH   1  37
BRANCH   2  46
ATOM     46  O3  UNL     1      79.156  62.720 103.999  0.00  0.00    +0.000 OA
ATOM     47  C23 UNL     1      80.170  63.697 104.217  0.00  0.00    +0.000 C 
ENDBRANCH   2  46
BRANCH   8  48
ATOM     48  O4  UNL     1      74.546  65.688 108.209  0.00  0.00    +0.000 OA
ATOM     49  H32 UNL     1      73.849  66.392 108.270  0.00  0.00    +0.000 HD
ENDBRANCH   8  48
BRANCH  10  50
ATOM     50  C33 UNL     1      73.383  64.659 105.739  0.00  0.00    +0.000 C 
ATOM     51  C34 UNL     1      73.588  64.145 104.304  0.00  0.00    +0.000 C 
ENDBRANCH  10  50
BRANCH   8  52
ATOM     52  C44 UNL     1      73.920  64.628 110.266  0.00  0.00    +0.000 C 
ATOM     53  O7  UNL     1      73.561  63.650 110.980  0.00  0.00    +0.000 OA
BRANCH  52  54
ATOM     54  O8  UNL     1      74.170  65.873 110.855  0.00  0.00    +0.000 OA
ATOM     55  C45 UNL     1      75.277  66.107 111.715  0.00  0.00    +0.000 C 
ENDBRANCH  52  54
ENDBRANCH   8  52
BRANCH   9  56
ATOM     56  O5  UNL     1      71.810  65.389 108.238  0.00  0.00    +0.000 OA
BRANCH  56  57
ATOM     57  C30 UNL     1      70.985  65.722 109.317  0.00  0.00    +0.000 C 
ATOM     58  C31 UNL     1      70.546  67.135 109.490  0.00  0.00    +0.000 C 
ATOM     59  O6  UNL     1      70.620  64.846 110.148  0.00  0.00    +0.000 OA
ENDBRANCH  56  57
ENDBRANCH   9  56
TORSDOF 11
ENDMDL
MODEL 10
REMARK VINA RESULT:      -6.6      5.695      9.735
REMARK  Name = ./S4269.pdb
REMARK  18 active torsions:
REMARK  status: ('A' for Active; 'I' for Inactive)
REMARK    1  A    between atoms: C1_1  and  C2_2
REMARK    2  A    between atoms: C2_2  and  C3_3
REMARK    3  A    between atoms: C17_19  and  C19_21
REMARK    4  A    between atoms: C17_19  and  C21_25
REMARK    5  A    between atoms: C19_21  and  O2_23
REMARK    6  A    between atoms: O2_23  and  C20_24
REMARK    7  A    between atoms: C22_26  and  O3_27
REMARK    8  A    between atoms: O3_27  and  C23_28
REMARK    9  A    between atoms: N3_31  and  C26_32
REMARK   10  A    between atoms: C28_34  and  O4_35
REMARK   11  A    between atoms: C28_34  and  C44_54
REMARK   12  A    between atoms: C29_36  and  O5_37
REMARK   13  A    between atoms: O5_37  and  C30_38
REMARK   14  A    between atoms: C30_38  and  C31_39
REMARK   15  A    between atoms: C32_41  and  C33_42
REMARK   16  A    between atoms: C33_42  and  C34_43
REMARK   17  A    between atoms: C44_54  and  O8_56
REMARK   18  A    between atoms: O8_56  and  C45_57
REMARK                            x       y       z     vdW  Elec       q    Type
REMARK                         _______ _______ _______ _____ _____    ______ ____
ROOT
ATOM      1  C21 UNL     1      72.942  66.313 106.654  0.00  0.00    +0.000 A 
ATOM      2  C22 UNL     1      73.675  66.981 105.614  0.00  0.00    +0.000 A 
ATOM      3  C24 UNL     1      74.190  66.240 104.519  0.00  0.00    +0.000 A 
ATOM      4  C25 UNL     1      73.983  64.863 104.471  0.00  0.00    +0.000 A 
ATOM      5  N3  UNL     1      74.462  63.961 103.489  0.00  0.00    +0.000 N 
ATOM      6  C26 UNL     1      75.054  64.377 102.218  0.00  0.00    +0.000 C 
ATOM      7  C27 UNL     1      74.009  62.594 103.812  0.00  0.00    +0.000 C 
ATOM      8  C28 UNL     1      75.211  61.556 103.775  0.00  0.00    +0.000 C 
ATOM      9  C29 UNL     1      75.262  60.619 105.026  0.00  0.00    +0.000 C 
ATOM     10  C32 UNL     1      75.076  61.373 106.373  0.00  0.00    +0.000 C 
ATOM     11  C35 UNL     1      75.221  60.354 107.512  0.00  0.00    +0.000 C 
ATOM     12  C36 UNL     1      74.167  59.818 108.163  0.00  0.00    +0.000 C 
ATOM     13  C37 UNL     1      72.750  60.255 107.874  0.00  0.00    +0.000 C 
ATOM     14  N4  UNL     1      72.690  60.836 106.526  0.00  0.00    +0.000 NA
ATOM     15  C38 UNL     1      71.400  61.419 106.183  0.00  0.00    +0.000 C 
ATOM     16  C39 UNL     1      71.690  62.325 104.996  0.00  0.00    +0.000 C 
ATOM     17  C40 UNL     1      73.179  62.747 105.160  0.00  0.00    +0.000 C 
ATOM     18  C41 UNL     1      73.644  61.937 106.397  0.00  0.00    +0.000 C 
ATOM     19  C42 UNL     1      73.269  64.225 105.430  0.00  0.00    +0.000 A 
ATOM     20  C43 UNL     1      72.734  64.919 106.511  0.00  0.00    +0.000 A 
ENDROOT
BRANCH   1  37
ATOM     21  C3  UNL     1      74.658  63.708 110.649  0.00  0.00    +0.000 C 
ATOM     22  C4  UNL     1      73.431  64.015 110.142  0.00  0.00    +0.000 C 
ATOM     23  C5  UNL     1      73.284  65.421 109.685  0.00  0.00    +0.000 C 
ATOM     24  C6  UNL     1      73.836  66.289 110.820  0.00  0.00    +0.000 C 
ATOM     25  N1  UNL     1      75.286  66.233 110.678  0.00  0.00    +0.000 NA
ATOM     26  C7  UNL     1      75.759  64.806 110.799  0.00  0.00    +0.000 C 
ATOM     27  C8  UNL     1      75.719  66.891 109.403  0.00  0.00    +0.000 C 
ATOM     28  C9  UNL     1      74.840  68.087 108.954  0.00  0.00    +0.000 A 
ATOM     29  C10 UNL     1      73.500  68.178 108.381  0.00  0.00    +0.000 A 
ATOM     30  N2  UNL     1      73.282  69.489 108.067  0.00  0.00    +0.000 N 
ATOM     31  C11 UNL     1      74.359  70.195 108.421  0.00  0.00    +0.000 A 
ATOM     32  C12 UNL     1      75.317  69.395 108.967  0.00  0.00    +0.000 A 
ATOM     33  C13 UNL     1      76.549  69.930 109.380  0.00  0.00    +0.000 A 
ATOM     34  C14 UNL     1      76.770  71.307 109.205  0.00  0.00    +0.000 A 
ATOM     35  C15 UNL     1      75.778  72.121 108.620  0.00  0.00    +0.000 A 
ATOM     36  C16 UNL     1      74.552  71.563 108.223  0.00  0.00    +0.000 A 
ATOM     37  C17 UNL     1      72.452  67.069 107.926  0.00  0.00    +0.000 C 
ATOM     38  C18 UNL     1      72.050  66.024 109.059  0.00  0.00    +0.000 C 
ATOM     39  H14 UNL     1      72.458  69.906 107.576  0.00  0.00    +0.000 HD
BRANCH  21  41
ATOM     40  C1  UNL     1      76.445  61.981 110.814  0.00  0.00    +0.000 C 
ATOM     41  C2  UNL     1      74.971  62.291 111.049  0.00  0.00    +0.000 C 
ENDBRANCH  21  41
BRANCH  37  42
ATOM     42  C19 UNL     1      71.161  67.798 107.543  0.00  0.00    +0.000 C 
ATOM     43  O1  UNL     1      70.290  68.056 108.420  0.00  0.00    +0.000 OA
BRANCH  42  44
ATOM     44  O2  UNL     1      70.992  68.282 106.237  0.00  0.00    +0.000 OA
ATOM     45  C20 UNL     1      70.330  69.505 105.949  0.00  0.00    +0.000 C 
ENDBRANCH  42  44
ENDBRANCH  37  42
ENDBRANCH   1  37
BRANCH   2  46
ATOM     46  O3  UNL     1      73.904  68.365 105.712  0.00  0.00    +0.000 OA
ATOM     47  C23 UNL     1      74.428  69.180 104.668  0.00  0.00    +0.000 C 
ENDBRANCH   2  46
BRANCH   8  48
ATOM     48  O4  UNL     1      76.435  62.264 103.674  0.00  0.00    +0.000 OA
ATOM     49  H32 UNL     1      76.687  62.618 104.567  0.00  0.00    +0.000 HD
ENDBRANCH   8  48
BRANCH  10  50
ATOM     50  C33 UNL     1      76.141  62.503 106.567  0.00  0.00    +0.000 C 
ATOM     51  C34 UNL     1      75.764  63.605 107.572  0.00  0.00    +0.000 C 
ENDBRANCH  10  50
BRANCH   8  52
ATOM     52  C44 UNL     1      75.034  60.688 102.535  0.00  0.00    +0.000 C 
ATOM     53  O7  UNL     1      73.994  59.987 102.384  0.00  0.00    +0.000 OA
BRANCH  52  54
ATOM     54  O8  UNL     1      76.057  60.641 101.580  0.00  0.00    +0.000 OA
ATOM     55  C45 UNL     1      75.895  61.138 100.258  0.00  0.00    +0.000 C 
ENDBRANCH  52  54
ENDBRANCH   8  52
BRANCH   9  56
ATOM     56  O5  UNL     1      76.496  59.885 105.058  0.00  0.00    +0.000 OA
BRANCH  56  57
ATOM     57  C30 UNL     1      76.593  58.496 104.936  0.00  0.00    +0.000 C 
ATOM     58  C31 UNL     1      75.351  57.674 104.956  0.00  0.00    +0.000 C 
ATOM     59  O6  UNL     1      77.715  57.932 104.820  0.00  0.00    +0.000 OA
ENDBRANCH  56  57
ENDBRANCH   9  56
TORSDOF 11
ENDMDL
MODEL 11
REMARK VINA RESULT:      -6.6      3.603      6.745
REMARK  Name = ./S4269.pdb
REMARK  18 active torsions:
REMARK  status: ('A' for Active; 'I' for Inactive)
REMARK    1  A    between atoms: C1_1  and  C2_2
REMARK    2  A    between atoms: C2_2  and  C3_3
REMARK    3  A    between atoms: C17_19  and  C19_21
REMARK    4  A    between atoms: C17_19  and  C21_25
REMARK    5  A    between atoms: C19_21  and  O2_23
REMARK    6  A    between atoms: O2_23  and  C20_24
REMARK    7  A    between atoms: C22_26  and  O3_27
REMARK    8  A    between atoms: O3_27  and  C23_28
REMARK    9  A    between atoms: N3_31  and  C26_32
REMARK   10  A    between atoms: C28_34  and  O4_35
REMARK   11  A    between atoms: C28_34  and  C44_54
REMARK   12  A    between atoms: C29_36  and  O5_37
REMARK   13  A    between atoms: O5_37  and  C30_38
REMARK   14  A    between atoms: C30_38  and  C31_39
REMARK   15  A    between atoms: C32_41  and  C33_42
REMARK   16  A    between atoms: C33_42  and  C34_43
REMARK   17  A    between atoms: C44_54  and  O8_56
REMARK   18  A    between atoms: O8_56  and  C45_57
REMARK                            x       y       z     vdW  Elec       q    Type
REMARK                         _______ _______ _______ _____ _____    ______ ____
ROOT
ATOM      1  C21 UNL     1      74.176  61.300 106.715  0.00  0.00    +0.000 A 
ATOM      2  C22 UNL     1      73.815  60.016 107.248  0.00  0.00    +0.000 A 
ATOM      3  C24 UNL     1      74.169  58.832 106.550  0.00  0.00    +0.000 A 
ATOM      4  C25 UNL     1      74.862  58.933 105.344  0.00  0.00    +0.000 A 
ATOM      5  N3  UNL     1      75.252  57.871 104.492  0.00  0.00    +0.000 N 
ATOM      6  C26 UNL     1      75.203  56.459 104.872  0.00  0.00    +0.000 C 
ATOM      7  C27 UNL     1      75.970  58.415 103.323  0.00  0.00    +0.000 C 
ATOM      8  C28 UNL     1      75.391  57.838 101.962  0.00  0.00    +0.000 C 
ATOM      9  C29 UNL     1      75.118  58.939 100.885  0.00  0.00    +0.000 C 
ATOM     10  C32 UNL     1      74.377  60.184 101.446  0.00  0.00    +0.000 C 
ATOM     11  C35 UNL     1      74.110  61.145 100.279  0.00  0.00    +0.000 C 
ATOM     12  C36 UNL     1      74.861  62.239 100.036  0.00  0.00    +0.000 C 
ATOM     13  C37 UNL     1      75.982  62.653 100.958  0.00  0.00    +0.000 C 
ATOM     14  N4  UNL     1      76.438  61.483 101.721  0.00  0.00    +0.000 NA
ATOM     15  C38 UNL     1      77.427  61.785 102.746  0.00  0.00    +0.000 C 
ATOM     16  C39 UNL     1      77.405  60.577 103.670  0.00  0.00    +0.000 C 
ATOM     17  C40 UNL     1      75.970  59.991 103.541  0.00  0.00    +0.000 C 
ATOM     18  C41 UNL     1      75.322  60.876 102.447  0.00  0.00    +0.000 C 
ATOM     19  C42 UNL     1      75.234  60.137 104.846  0.00  0.00    +0.000 A 
ATOM     20  C43 UNL     1      74.919  61.319 105.508  0.00  0.00    +0.000 A 
ENDROOT
BRANCH   1  37
ATOM     21  C3  UNL     1      77.347  62.147 110.577  0.00  0.00    +0.000 C 
ATOM     22  C4  UNL     1      76.015  61.890 110.451  0.00  0.00    +0.000 C 
ATOM     23  C5  UNL     1      75.343  62.633 109.354  0.00  0.00    +0.000 C 
ATOM     24  C6  UNL     1      75.788  64.091 109.502  0.00  0.00    +0.000 C 
ATOM     25  N1  UNL     1      77.126  64.147 108.926  0.00  0.00    +0.000 NA
ATOM     26  C7  UNL     1      78.045  63.213 109.673  0.00  0.00    +0.000 C 
ATOM     27  C8  UNL     1      77.080  63.873 107.453  0.00  0.00    +0.000 C 
ATOM     28  C9  UNL     1      75.797  64.368 106.737  0.00  0.00    +0.000 A 
ATOM     29  C10 UNL     1      74.417  63.892 106.725  0.00  0.00    +0.000 A 
ATOM     30  N2  UNL     1      73.735  64.645 105.814  0.00  0.00    +0.000 N 
ATOM     31  C11 UNL     1      74.575  65.546 105.295  0.00  0.00    +0.000 A 
ATOM     32  C12 UNL     1      75.823  65.422 105.827  0.00  0.00    +0.000 A 
ATOM     33  C13 UNL     1      76.872  66.251 105.397  0.00  0.00    +0.000 A 
ATOM     34  C14 UNL     1      76.603  67.202 104.398  0.00  0.00    +0.000 A 
ATOM     35  C15 UNL     1      75.312  67.307 103.840  0.00  0.00    +0.000 A 
ATOM     36  C16 UNL     1      74.279  66.471 104.293  0.00  0.00    +0.000 A 
ATOM     37  C17 UNL     1      73.715  62.627 107.391  0.00  0.00    +0.000 C 
ATOM     38  C18 UNL     1      73.887  62.521 108.972  0.00  0.00    +0.000 C 
ATOM     39  H14 UNL     1      72.746  64.535 105.496  0.00  0.00    +0.000 HD
BRANCH  21  41
ATOM     40  C1  UNL     1      77.762  61.757 113.002  0.00  0.00    +0.000 C 
ATOM     41  C2  UNL     1      78.167  61.381 111.581  0.00  0.00    +0.000 C 
ENDBRANCH  21  41
BRANCH  37  42
ATOM     42  C19 UNL     1      72.210  62.759 107.136  0.00  0.00    +0.000 C 
ATOM     43  O1  UNL     1      71.486  63.425 107.927  0.00  0.00    +0.000 OA
BRANCH  42  44
ATOM     44  O2  UNL     1      71.652  62.235 105.960  0.00  0.00    +0.000 OA
ATOM     45  C20 UNL     1      70.301  62.459 105.584  0.00  0.00    +0.000 C 
ENDBRANCH  42  44
ENDBRANCH  37  42
ENDBRANCH   1  37
BRANCH   2  46
ATOM     46  O3  UNL     1      73.080  59.948 108.444  0.00  0.00    +0.000 OA
ATOM     47  C23 UNL     1      72.963  58.788 109.264  0.00  0.00    +0.000 C 
ENDBRANCH   2  46
BRANCH   8  48
ATOM     48  O4  UNL     1      74.188  57.137 102.227  0.00  0.00    +0.000 OA
ATOM     49  H32 UNL     1      73.537  57.310 101.496  0.00  0.00    +0.000 HD
ENDBRANCH   8  48
BRANCH  10  50
ATOM     50  C33 UNL     1      73.013  59.806 102.113  0.00  0.00    +0.000 C 
ATOM     51  C34 UNL     1      72.237  60.974 102.747  0.00  0.00    +0.000 C 
ENDBRANCH  10  50
BRANCH   8  52
ATOM     52  C44 UNL     1      76.420  56.863 101.398  0.00  0.00    +0.000 C 
ATOM     53  O7  UNL     1      77.591  57.251 101.126  0.00  0.00    +0.000 OA
BRANCH  52  54
ATOM     54  O8  UNL     1      76.043  55.539 101.145  0.00  0.00    +0.000 OA
ATOM     55  C45 UNL     1      75.915  55.016  99.830  0.00  0.00    +0.000 C 
ENDBRANCH  52  54
ENDBRANCH   8  52
BRANCH   9  56
ATOM     56  O5  UNL     1      74.372  58.396  99.785  0.00  0.00    +0.000 OA
BRANCH  56  57
ATOM     57  C30 UNL     1      74.834  58.340  98.466  0.00  0.00    +0.000 C 
ATOM     58  C31 UNL     1      76.262  58.651  98.181  0.00  0.00    +0.000 C 
ATOM     59  O6  UNL     1      74.056  58.042  97.519  0.00  0.00    +0.000 OA
ENDBRANCH  56  57
ENDBRANCH   9  56
TORSDOF 11
ENDMDL
MODEL 12
REMARK VINA RESULT:      -6.6      6.139     10.070
REMARK  Name = ./S4269.pdb
REMARK  18 active torsions:
REMARK  status: ('A' for Active; 'I' for Inactive)
REMARK    1  A    between atoms: C1_1  and  C2_2
REMARK    2  A    between atoms: C2_2  and  C3_3
REMARK    3  A    between atoms: C17_19  and  C19_21
REMARK    4  A    between atoms: C17_19  and  C21_25
REMARK    5  A    between atoms: C19_21  and  O2_23
REMARK    6  A    between atoms: O2_23  and  C20_24
REMARK    7  A    between atoms: C22_26  and  O3_27
REMARK    8  A    between atoms: O3_27  and  C23_28
REMARK    9  A    between atoms: N3_31  and  C26_32
REMARK   10  A    between atoms: C28_34  and  O4_35
REMARK   11  A    between atoms: C28_34  and  C44_54
REMARK   12  A    between atoms: C29_36  and  O5_37
REMARK   13  A    between atoms: O5_37  and  C30_38
REMARK   14  A    between atoms: C30_38  and  C31_39
REMARK   15  A    between atoms: C32_41  and  C33_42
REMARK   16  A    between atoms: C33_42  and  C34_43
REMARK   17  A    between atoms: C44_54  and  O8_56
REMARK   18  A    between atoms: O8_56  and  C45_57
REMARK                            x       y       z     vdW  Elec       q    Type
REMARK                         _______ _______ _______ _____ _____    ______ ____
ROOT
ATOM      1  C21 UNL     1      79.076  64.175 104.748  0.00  0.00    +0.000 A 
ATOM      2  C22 UNL     1      79.442  65.277 105.594  0.00  0.00    +0.000 A 
ATOM      3  C24 UNL     1      78.593  65.665 106.663  0.00  0.00    +0.000 A 
ATOM      4  C25 UNL     1      77.404  64.970 106.876  0.00  0.00    +0.000 A 
ATOM      5  N3  UNL     1      76.418  65.245 107.855  0.00  0.00    +0.000 N 
ATOM      6  C26 UNL     1      76.613  66.166 108.974  0.00  0.00    +0.000 C 
ATOM      7  C27 UNL     1      75.321  64.264 107.739  0.00  0.00    +0.000 C 
ATOM      8  C28 UNL     1      73.903  64.976 107.691  0.00  0.00    +0.000 C 
ATOM      9  C29 UNL     1      72.980  64.449 106.543  0.00  0.00    +0.000 C 
ATOM     10  C32 UNL     1      73.705  64.321 105.174  0.00  0.00    +0.000 C 
ATOM     11  C35 UNL     1      72.675  63.869 104.130  0.00  0.00    +0.000 C 
ATOM     12  C36 UNL     1      72.567  62.593 103.703  0.00  0.00    +0.000 C 
ATOM     13  C37 UNL     1      73.523  61.519 104.163  0.00  0.00    +0.000 C 
ATOM     14  N4  UNL     1      74.124  61.921 105.442  0.00  0.00    +0.000 NA
ATOM     15  C38 UNL     1      75.169  61.027 105.920  0.00  0.00    +0.000 C 
ATOM     16  C39 UNL     1      75.929  61.841 106.955  0.00  0.00    +0.000 C 
ATOM     17  C40 UNL     1      75.740  63.324 106.525  0.00  0.00    +0.000 C 
ATOM     18  C41 UNL     1      74.777  63.224 105.316  0.00  0.00    +0.000 C 
ATOM     19  C42 UNL     1      77.061  63.910 106.103  0.00  0.00    +0.000 A 
ATOM     20  C43 UNL     1      77.874  63.491 105.056  0.00  0.00    +0.000 A 
ENDROOT
BRANCH   1  37
ATOM     21  C3  UNL     1      82.566  60.858 106.333  0.00  0.00    +0.000 C 
ATOM     22  C4  UNL     1      82.586  62.113 105.803  0.00  0.00    +0.000 C 
ATOM     23  C5  UNL     1      81.656  62.321 104.664  0.00  0.00    +0.000 C 
ATOM     24  C6  UNL     1      81.877  61.134 103.722  0.00  0.00    +0.000 C 
ATOM     25  N1  UNL     1      81.144  60.024 104.319  0.00  0.00    +0.000 NA
ATOM     26  C7  UNL     1      81.681  59.738 105.699  0.00  0.00    +0.000 C 
ATOM     27  C8  UNL     1      79.670  60.296 104.305  0.00  0.00    +0.000 C 
ATOM     28  C9  UNL     1      79.170  61.126 103.095  0.00  0.00    +0.000 A 
ATOM     29  C10 UNL     1      79.290  62.537 102.738  0.00  0.00    +0.000 A 
ATOM     30  N2  UNL     1      78.545  62.735 101.612  0.00  0.00    +0.000 N 
ATOM     31  C11 UNL     1      78.007  61.567 101.248  0.00  0.00    +0.000 A 
ATOM     32  C12 UNL     1      78.364  60.570 102.106  0.00  0.00    +0.000 A 
ATOM     33  C13 UNL     1      77.881  59.263 101.927  0.00  0.00    +0.000 A 
ATOM     34  C14 UNL     1      77.014  59.014 100.849  0.00  0.00    +0.000 A 
ATOM     35  C15 UNL     1      76.636  60.059  99.980  0.00  0.00    +0.000 A 
ATOM     36  C16 UNL     1      77.139  61.355 100.176  0.00  0.00    +0.000 A 
ATOM     37  C17 UNL     1      79.922  63.785 103.499  0.00  0.00    +0.000 C 
ATOM     38  C18 UNL     1      81.452  63.612 103.910  0.00  0.00    +0.000 C 
ATOM     39  H14 UNL     1      78.346  63.636 101.119  0.00  0.00    +0.000 HD
BRANCH  21  41
ATOM     40  C1  UNL     1      84.706  61.306 107.526  0.00  0.00    +0.000 C 
ATOM     41  C2  UNL     1      83.384  60.547 107.557  0.00  0.00    +0.000 C 
ENDBRANCH  21  41
BRANCH  37  42
ATOM     42  C19 UNL     1      79.873  64.974 102.536  0.00  0.00    +0.000 C 
ATOM     43  O1  UNL     1      80.918  65.355 101.938  0.00  0.00    +0.000 OA
BRANCH  42  44
ATOM     44  O2  UNL     1      78.642  65.573 102.227  0.00  0.00    +0.000 OA
ATOM     45  C20 UNL     1      78.435  66.977 102.285  0.00  0.00    +0.000 C 
ENDBRANCH  42  44
ENDBRANCH  37  42
ENDBRANCH   1  37
BRANCH   2  46
ATOM     46  O3  UNL     1      80.627  65.986 105.329  0.00  0.00    +0.000 OA
ATOM     47  C23 UNL     1      80.726  67.404 105.236  0.00  0.00    +0.000 C 
ENDBRANCH   2  46
BRANCH   8  48
ATOM     48  O4  UNL     1      74.088  66.373 107.535  0.00  0.00    +0.000 OA
ATOM     49  H32 UNL     1      74.236  66.789 108.425  0.00  0.00    +0.000 HD
ENDBRANCH   8  48
BRANCH  10  50
ATOM     50  C33 UNL     1      74.332  65.679 104.711  0.00  0.00    +0.000 C 
ATOM     51  C34 UNL     1      75.177  65.616 103.428  0.00  0.00    +0.000 C 
ENDBRANCH  10  50
BRANCH   8  52
ATOM     52  C44 UNL     1      73.207  64.713 109.022  0.00  0.00    +0.000 C 
ATOM     53  O7  UNL     1      72.659  63.598 109.250  0.00  0.00    +0.000 OA
BRANCH  52  54
ATOM     54  O8  UNL     1      73.145  65.734 109.977  0.00  0.00    +0.000 OA
ATOM     55  C45 UNL     1      71.942  66.427 110.282  0.00  0.00    +0.000 C 
ENDBRANCH  52  54
ENDBRANCH   8  52
BRANCH   9  56
ATOM     56  O5  UNL     1      71.828  65.293 106.394  0.00  0.00    +0.000 OA
BRANCH  56  57
ATOM     57  C30 UNL     1      70.540  64.955 106.822  0.00  0.00    +0.000 C 
ATOM     58  C31 UNL     1      69.956  63.647 106.414  0.00  0.00    +0.000 C 
ATOM     59  O6  UNL     1      69.867  65.746 107.538  0.00  0.00    +0.000 OA
ENDBRANCH  56  57
ENDBRANCH   9  56
TORSDOF 11
ENDMDL
MODEL 13
REMARK VINA RESULT:      -6.6      8.517     12.923
REMARK  Name = ./S4269.pdb
REMARK  18 active torsions:
REMARK  status: ('A' for Active; 'I' for Inactive)
REMARK    1  A    between atoms: C1_1  and  C2_2
REMARK    2  A    between atoms: C2_2  and  C3_3
REMARK    3  A    between atoms: C17_19  and  C19_21
REMARK    4  A    between atoms: C17_19  and  C21_25
REMARK    5  A    between atoms: C19_21  and  O2_23
REMARK    6  A    between atoms: O2_23  and  C20_24
REMARK    7  A    between atoms: C22_26  and  O3_27
REMARK    8  A    between atoms: O3_27  and  C23_28
REMARK    9  A    between atoms: N3_31  and  C26_32
REMARK   10  A    between atoms: C28_34  and  O4_35
REMARK   11  A    between atoms: C28_34  and  C44_54
REMARK   12  A    between atoms: C29_36  and  O5_37
REMARK   13  A    between atoms: O5_37  and  C30_38
REMARK   14  A    between atoms: C30_38  and  C31_39
REMARK   15  A    between atoms: C32_41  and  C33_42
REMARK   16  A    between atoms: C33_42  and  C34_43
REMARK   17  A    between atoms: C44_54  and  O8_56
REMARK   18  A    between atoms: O8_56  and  C45_57
REMARK                            x       y       z     vdW  Elec       q    Type
REMARK                         _______ _______ _______ _____ _____    ______ ____
ROOT
ATOM      1  C21 UNL     1      77.231  64.960 106.719  0.00  0.00    +0.000 A 
ATOM      2  C22 UNL     1      78.513  64.651 107.288  0.00  0.00    +0.000 A 
ATOM      3  C24 UNL     1      78.594  63.903 108.491  0.00  0.00    +0.000 A 
ATOM      4  C25 UNL     1      77.420  63.480 109.112  0.00  0.00    +0.000 A 
ATOM      5  N3  UNL     1      77.306  62.771 110.333  0.00  0.00    +0.000 N 
ATOM      6  C26 UNL     1      78.435  62.148 111.024  0.00  0.00    +0.000 C 
ATOM      7  C27 UNL     1      75.882  62.516 110.624  0.00  0.00    +0.000 C 
ATOM      8  C28 UNL     1      75.503  62.946 112.105  0.00  0.00    +0.000 C 
ATOM      9  C29 UNL     1      74.199  63.806 112.189  0.00  0.00    +0.000 C 
ATOM     10  C32 UNL     1      74.137  64.943 111.131  0.00  0.00    +0.000 C 
ATOM     11  C35 UNL     1      72.852  65.747 111.371  0.00  0.00    +0.000 C 
ATOM     12  C36 UNL     1      71.732  65.589 110.634  0.00  0.00    +0.000 C 
ATOM     13  C37 UNL     1      71.690  64.659 109.445  0.00  0.00    +0.000 C 
ATOM     14  N4  UNL     1      72.744  63.645 109.587  0.00  0.00    +0.000 NA
ATOM     15  C38 UNL     1      72.893  62.770 108.432  0.00  0.00    +0.000 C 
ATOM     16  C39 UNL     1      74.269  62.145 108.596  0.00  0.00    +0.000 C 
ATOM     17  C40 UNL     1      75.092  63.181 109.414  0.00  0.00    +0.000 C 
ATOM     18  C41 UNL     1      74.052  64.282 109.742  0.00  0.00    +0.000 C 
ATOM     19  C42 UNL     1      76.205  63.739 108.568  0.00  0.00    +0.000 A 
ATOM     20  C43 UNL     1      76.085  64.456 107.383  0.00  0.00    +0.000 A 
ENDROOT
BRANCH   1  37
ATOM     21  C3  UNL     1      73.486  68.233 107.693  0.00  0.00    +0.000 C 
ATOM     22  C4  UNL     1      73.691  67.229 106.795  0.00  0.00    +0.000 C 
ATOM     23  C5  UNL     1      75.047  67.208 106.189  0.00  0.00    +0.000 C 
ATOM     24  C6  UNL     1      75.329  68.646 105.744  0.00  0.00    +0.000 C 
ATOM     25  N1  UNL     1      75.715  69.357 106.956  0.00  0.00    +0.000 NA
ATOM     26  C7  UNL     1      74.592  69.304 107.962  0.00  0.00    +0.000 C 
ATOM     27  C8  UNL     1      77.010  68.827 107.492  0.00  0.00    +0.000 C 
ATOM     28  C9  UNL     1      78.007  68.328 106.414  0.00  0.00    +0.000 A 
ATOM     29  C10 UNL     1      78.039  67.145 105.559  0.00  0.00    +0.000 A 
ATOM     30  N2  UNL     1      79.227  67.163 104.886  0.00  0.00    +0.000 N 
ATOM     31  C11 UNL     1      79.900  68.261 105.242  0.00  0.00    +0.000 A 
ATOM     32  C12 UNL     1      79.200  68.996 106.152  0.00  0.00    +0.000 A 
ATOM     33  C13 UNL     1      79.740  70.177 106.687  0.00  0.00    +0.000 A 
ATOM     34  C14 UNL     1      81.022  70.574 106.268  0.00  0.00    +0.000 A 
ATOM     35  C15 UNL     1      81.743  69.794 105.341  0.00  0.00    +0.000 A 
ATOM     36  C16 UNL     1      81.178  68.622 104.815  0.00  0.00    +0.000 A 
ATOM     37  C17 UNL     1      77.092  65.869 105.460  0.00  0.00    +0.000 C 
ATOM     38  C18 UNL     1      75.556  66.195 105.192  0.00  0.00    +0.000 C 
ATOM     39  H14 UNL     1      79.615  66.436 104.243  0.00  0.00    +0.000 HD
BRANCH  21  41
ATOM     40  C1  UNL     1      71.020  67.913 107.562  0.00  0.00    +0.000 C 
ATOM     41  C2  UNL     1      72.190  68.304 108.456  0.00  0.00    +0.000 C 
ENDBRANCH  21  41
BRANCH  37  42
ATOM     42  C19 UNL     1      77.567  65.046 104.259  0.00  0.00    +0.000 C 
ATOM     43  O1  UNL     1      77.682  63.792 104.351  0.00  0.00    +0.000 OA
BRANCH  42  44
ATOM     44  O2  UNL     1      77.767  65.670 103.019  0.00  0.00    +0.000 OA
ATOM     45  C20 UNL     1      77.538  65.013 101.781  0.00  0.00    +0.000 C 
ENDBRANCH  42  44
ENDBRANCH  37  42
ENDBRANCH   1  37
BRANCH   2  46
ATOM     46  O3  UNL     1      79.679  65.127 106.663  0.00  0.00    +0.000 OA
ATOM     47  C23 UNL     1      80.679  64.305 106.068  0.00  0.00    +0.000 C 
ENDBRANCH   2  46
BRANCH   8  48
ATOM     48  O4  UNL     1      76.579  63.677 112.668  0.00  0.00    +0.000 OA
ATOM     49  H32 UNL     1      77.212  63.940 111.950  0.00  0.00    +0.000 HD
ENDBRANCH   8  48
BRANCH  10  50
ATOM     50  C33 UNL     1      75.364  65.908 111.233  0.00  0.00    +0.000 C 
ATOM     51  C34 UNL     1      75.041  67.407 111.115  0.00  0.00    +0.000 C 
ENDBRANCH  10  50
BRANCH   8  52
ATOM     52  C44 UNL     1      75.288  61.673 112.916  0.00  0.00    +0.000 C 
ATOM     53  O7  UNL     1      74.312  60.910 112.668  0.00  0.00    +0.000 OA
BRANCH  52  54
ATOM     54  O8  UNL     1      76.161  61.375 113.969  0.00  0.00    +0.000 OA
ATOM     55  C45 UNL     1      75.735  61.309 115.324  0.00  0.00    +0.000 C 
ENDBRANCH  52  54
ENDBRANCH   8  52
BRANCH   9  56
ATOM     56  O5  UNL     1      74.048  64.368 113.501  0.00  0.00    +0.000 OA
BRANCH  56  57
ATOM     57  C30 UNL     1      73.175  63.876 114.477  0.00  0.00    +0.000 C 
ATOM     58  C31 UNL     1      73.223  64.447 115.852  0.00  0.00    +0.000 C 
ATOM     59  O6  UNL     1      72.359  62.952 114.210  0.00  0.00    +0.000 OA
ENDBRANCH  56  57
ENDBRANCH   9  56
TORSDOF 11
ENDMDL
MODEL 14
REMARK VINA RESULT:      -6.6      6.271      9.731
REMARK  Name = ./S4269.pdb
REMARK  18 active torsions:
REMARK  status: ('A' for Active; 'I' for Inactive)
REMARK    1  A    between atoms: C1_1  and  C2_2
REMARK    2  A    between atoms: C2_2  and  C3_3
REMARK    3  A    between atoms: C17_19  and  C19_21
REMARK    4  A    between atoms: C17_19  and  C21_25
REMARK    5  A    between atoms: C19_21  and  O2_23
REMARK    6  A    between atoms: O2_23  and  C20_24
REMARK    7  A    between atoms: C22_26  and  O3_27
REMARK    8  A    between atoms: O3_27  and  C23_28
REMARK    9  A    between atoms: N3_31  and  C26_32
REMARK   10  A    between atoms: C28_34  and  O4_35
REMARK   11  A    between atoms: C28_34  and  C44_54
REMARK   12  A    between atoms: C29_36  and  O5_37
REMARK   13  A    between atoms: O5_37  and  C30_38
REMARK   14  A    between atoms: C30_38  and  C31_39
REMARK   15  A    between atoms: C32_41  and  C33_42
REMARK   16  A    between atoms: C33_42  and  C34_43
REMARK   17  A    between atoms: C44_54  and  O8_56
REMARK   18  A    between atoms: O8_56  and  C45_57
REMARK                            x       y       z     vdW  Elec       q    Type
REMARK                         _______ _______ _______ _____ _____    ______ ____
ROOT
ATOM      1  C21 UNL     1      75.834  65.291 107.633  0.00  0.00    +0.000 A 
ATOM      2  C22 UNL     1      76.543  66.539 107.686  0.00  0.00    +0.000 A 
ATOM      3  C24 UNL     1      77.058  67.115 106.495  0.00  0.00    +0.000 A 
ATOM      4  C25 UNL     1      76.873  66.453 105.282  0.00  0.00    +0.000 A 
ATOM      5  N3  UNL     1      77.355  66.850 104.010  0.00  0.00    +0.000 N 
ATOM      6  C26 UNL     1      77.925  68.167 103.728  0.00  0.00    +0.000 C 
ATOM      7  C27 UNL     1      76.927  65.870 102.994  0.00  0.00    +0.000 C 
ATOM      8  C28 UNL     1      78.145  65.396 102.091  0.00  0.00    +0.000 C 
ATOM      9  C29 UNL     1      78.227  63.843 101.920  0.00  0.00    +0.000 C 
ATOM     10  C32 UNL     1      78.044  63.063 103.252  0.00  0.00    +0.000 C 
ATOM     11  C35 UNL     1      78.219  61.567 102.954  0.00  0.00    +0.000 C 
ATOM     12  C36 UNL     1      77.181  60.715 102.816  0.00  0.00    +0.000 C 
ATOM     13  C37 UNL     1      75.755  61.160 103.033  0.00  0.00    +0.000 C 
ATOM     14  N4  UNL     1      75.669  62.615 102.848  0.00  0.00    +0.000 NA
ATOM     15  C38 UNL     1      74.366  63.183 103.166  0.00  0.00    +0.000 C 
ATOM     16  C39 UNL     1      74.628  64.670 103.346  0.00  0.00    +0.000 C 
ATOM     17  C40 UNL     1      76.111  64.770 103.804  0.00  0.00    +0.000 C 
ATOM     18  C41 UNL     1      76.603  63.303 103.739  0.00  0.00    +0.000 C 
ATOM     19  C42 UNL     1      76.180  65.290 105.215  0.00  0.00    +0.000 A 
ATOM     20  C43 UNL     1      75.647  64.703 106.357  0.00  0.00    +0.000 A 
ENDROOT
BRANCH   1  37
ATOM     21  C3  UNL     1      71.191  67.064 108.628  0.00  0.00    +0.000 C 
ATOM     22  C4  UNL     1      72.402  67.103 109.252  0.00  0.00    +0.000 C 
ATOM     23  C5  UNL     1      73.145  65.818 109.243  0.00  0.00    +0.000 C 
ATOM     24  C6  UNL     1      72.139  64.750 109.682  0.00  0.00    +0.000 C 
ATOM     25  N1  UNL     1      71.333  64.468 108.501  0.00  0.00    +0.000 NA
ATOM     26  C7  UNL     1      70.636  65.726 108.044  0.00  0.00    +0.000 C 
ATOM     27  C8  UNL     1      72.168  63.836 107.430  0.00  0.00    +0.000 C 
ATOM     28  C9  UNL     1      73.314  62.928 107.945  0.00  0.00    +0.000 A 
ATOM     29  C10 UNL     1      74.597  63.208 108.583  0.00  0.00    +0.000 A 
ATOM     30  N2  UNL     1      75.256  62.020 108.708  0.00  0.00    +0.000 N 
ATOM     31  C11 UNL     1      74.476  61.048 108.226  0.00  0.00    +0.000 A 
ATOM     32  C12 UNL     1      73.295  61.547 107.764  0.00  0.00    +0.000 A 
ATOM     33  C13 UNL     1      72.337  60.700 107.183  0.00  0.00    +0.000 A 
ATOM     34  C14 UNL     1      72.633  59.330 107.080  0.00  0.00    +0.000 A 
ATOM     35  C15 UNL     1      73.868  58.830 107.542  0.00  0.00    +0.000 A 
ATOM     36  C16 UNL     1      74.805  59.696 108.127  0.00  0.00    +0.000 A 
ATOM     37  C17 UNL     1      75.347  64.571 108.926  0.00  0.00    +0.000 C 
ATOM     38  C18 UNL     1      74.515  65.582 109.833  0.00  0.00    +0.000 C 
ATOM     39  H14 UNL     1      76.228  61.855 109.056  0.00  0.00    +0.000 HD
BRANCH  21  41
ATOM     40  C1  UNL     1      70.473  68.848 107.045  0.00  0.00    +0.000 C 
ATOM     41  C2  UNL     1      70.385  68.326 108.475  0.00  0.00    +0.000 C 
ENDBRANCH  21  41
BRANCH  37  42
ATOM     42  C19 UNL     1      76.597  64.207 109.733  0.00  0.00    +0.000 C 
ATOM     43  O1  UNL     1      76.537  64.107 110.990  0.00  0.00    +0.000 OA
BRANCH  42  44
ATOM     44  O2  UNL     1      77.786  63.874 109.067  0.00  0.00    +0.000 OA
ATOM     45  C20 UNL     1      78.853  63.181 109.699  0.00  0.00    +0.000 C 
ENDBRANCH  42  44
ENDBRANCH  37  42
ENDBRANCH   1  37
BRANCH   2  46
ATOM     46  O3  UNL     1      76.752  67.162 108.929  0.00  0.00    +0.000 OA
ATOM     47  C23 UNL     1      76.537  68.546 109.193  0.00  0.00    +0.000 C 
ENDBRANCH   2  46
BRANCH   8  48
ATOM     48  O4  UNL     1      79.356  65.865 102.659  0.00  0.00    +0.000 OA
ATOM     49  H32 UNL     1      79.579  66.754 102.275  0.00  0.00    +0.000 HD
ENDBRANCH   8  48
BRANCH  10  50
ATOM     50  C33 UNL     1      79.093  63.489 104.332  0.00  0.00    +0.000 C 
ATOM     51  C34 UNL     1      78.834  62.962 105.754  0.00  0.00    +0.000 C 
ENDBRANCH  10  50
BRANCH   8  52
ATOM     52  C44 UNL     1      77.968  66.020 100.711  0.00  0.00    +0.000 C 
ATOM     53  O7  UNL     1      78.950  66.542 100.112  0.00  0.00    +0.000 OA
BRANCH  52  54
ATOM     54  O8  UNL     1      76.696  66.045 100.128  0.00  0.00    +0.000 OA
ATOM     55  C45 UNL     1      76.387  65.348  98.929  0.00  0.00    +0.000 C 
ENDBRANCH  52  54
ENDBRANCH   8  52
BRANCH   9  56
ATOM     56  O5  UNL     1      79.472  63.466 101.314  0.00  0.00    +0.000 OA
BRANCH  56  57
ATOM     57  C30 UNL     1      79.595  62.924 100.031  0.00  0.00    +0.000 C 
ATOM     58  C31 UNL     1      80.678  63.415  99.133  0.00  0.00    +0.000 C 
ATOM     59  O6  UNL     1      78.798  62.036  99.623  0.00  0.00    +0.000 OA
ENDBRANCH  56  57
ENDBRANCH   9  56
TORSDOF 11
ENDMDL
MODEL 15
REMARK VINA RESULT:      -6.6      2.580      8.854
REMARK  Name = ./S4269.pdb
REMARK  18 active torsions:
REMARK  status: ('A' for Active; 'I' for Inactive)
REMARK    1  A    between atoms: C1_1  and  C2_2
REMARK    2  A    between atoms: C2_2  and  C3_3
REMARK    3  A    between atoms: C17_19  and  C19_21
REMARK    4  A    between atoms: C17_19  and  C21_25
REMARK    5  A    between atoms: C19_21  and  O2_23
REMARK    6  A    between atoms: O2_23  and  C20_24
REMARK    7  A    between atoms: C22_26  and  O3_27
REMARK    8  A    between atoms: O3_27  and  C23_28
REMARK    9  A    between atoms: N3_31  and  C26_32
REMARK   10  A    between atoms: C28_34  and  O4_35
REMARK   11  A    between atoms: C28_34  and  C44_54
REMARK   12  A    between atoms: C29_36  and  O5_37
REMARK   13  A    between atoms: O5_37  and  C30_38
REMARK   14  A    between atoms: C30_38  and  C31_39
REMARK   15  A    between atoms: C32_41  and  C33_42
REMARK   16  A    between atoms: C33_42  and  C34_43
REMARK   17  A    between atoms: C44_54  and  O8_56
REMARK   18  A    between atoms: O8_56  and  C45_57
REMARK                            x       y       z     vdW  Elec       q    Type
REMARK                         _______ _______ _______ _____ _____    ______ ____
ROOT
ATOM      1  C21 UNL     1      71.772  61.334 100.146  0.00  0.00    +0.000 A 
ATOM      2  C22 UNL     1      70.415  61.388 100.613  0.00  0.00    +0.000 A 
ATOM      3  C24 UNL     1      70.137  61.808 101.940  0.00  0.00    +0.000 A 
ATOM      4  C25 UNL     1      71.193  62.158 102.779  0.00  0.00    +0.000 A 
ATOM      5  N3  UNL     1      71.109  62.551 104.138  0.00  0.00    +0.000 N 
ATOM      6  C26 UNL     1      69.858  62.891 104.815  0.00  0.00    +0.000 C 
ATOM      7  C27 UNL     1      72.462  62.842 104.651  0.00  0.00    +0.000 C 
ATOM      8  C28 UNL     1      72.740  62.092 106.023  0.00  0.00    +0.000 C 
ATOM      9  C29 UNL     1      74.115  61.347 106.059  0.00  0.00    +0.000 C 
ATOM     10  C32 UNL     1      74.401  60.514 104.778  0.00  0.00    +0.000 C 
ATOM     11  C35 UNL     1      75.736  59.783 104.975  0.00  0.00    +0.000 C 
ATOM     12  C36 UNL     1      76.899  60.208 104.437  0.00  0.00    +0.000 C 
ATOM     13  C37 UNL     1      76.957  61.403 103.515  0.00  0.00    +0.000 C 
ATOM     14  N4  UNL     1      75.790  62.261 103.763  0.00  0.00    +0.000 NA
ATOM     15  C38 UNL     1      75.661  63.378 102.838  0.00  0.00    +0.000 C 
ATOM     16  C39 UNL     1      74.216  63.830 102.978  0.00  0.00    +0.000 C 
ATOM     17  C40 UNL     1      73.434  62.561 103.423  0.00  0.00    +0.000 C 
ATOM     18  C41 UNL     1      74.549  61.502 103.605  0.00  0.00    +0.000 C 
ATOM     19  C42 UNL     1      72.475  62.141 102.341  0.00  0.00    +0.000 A 
ATOM     20  C43 UNL     1      72.787  61.750 101.043  0.00  0.00    +0.000 A 
ENDROOT
BRANCH   1  37
ATOM     21  C3  UNL     1      75.706  58.199 100.772  0.00  0.00    +0.000 C 
ATOM     22  C4  UNL     1      75.495  59.376 100.121  0.00  0.00    +0.000 C 
ATOM     23  C5  UNL     1      74.213  59.450  99.373  0.00  0.00    +0.000 C 
ATOM     24  C6  UNL     1      74.124  58.151  98.568  0.00  0.00    +0.000 C 
ATOM     25  N1  UNL     1      73.688  57.135  99.518  0.00  0.00    +0.000 NA
ATOM     26  C7  UNL     1      74.691  57.019 100.639  0.00  0.00    +0.000 C 
ATOM     27  C8  UNL     1      72.298  57.422  99.999  0.00  0.00    +0.000 C 
ATOM     28  C9  UNL     1      71.373  58.100  98.955  0.00  0.00    +0.000 A 
ATOM     29  C10 UNL     1      71.311  59.452  98.408  0.00  0.00    +0.000 A 
ATOM     30  N2  UNL     1      70.208  59.516  97.608  0.00  0.00    +0.000 N 
ATOM     31  C11 UNL     1      69.615  58.319  97.606  0.00  0.00    +0.000 A 
ATOM     32  C12 UNL     1      70.286  57.433  98.395  0.00  0.00    +0.000 A 
ATOM     33  C13 UNL     1      69.815  56.121  98.562  0.00  0.00    +0.000 A 
ATOM     34  C14 UNL     1      68.629  55.749  97.904  0.00  0.00    +0.000 A 
ATOM     35  C15 UNL     1      67.933  56.681  97.107  0.00  0.00    +0.000 A 
ATOM     36  C16 UNL     1      68.429  57.984  96.949  0.00  0.00    +0.000 A 
ATOM     37  C17 UNL     1      72.131  60.778  98.734  0.00  0.00    +0.000 C 
ATOM     38  C18 UNL     1      73.712  60.639  98.590  0.00  0.00    +0.000 C 
ATOM     39  H14 UNL     1      69.817  60.350  97.112  0.00  0.00    +0.000 HD
BRANCH  21  41
ATOM     40  C1  UNL     1      76.855  56.710 102.405  0.00  0.00    +0.000 C 
ATOM     41  C2  UNL     1      76.916  58.034 101.652  0.00  0.00    +0.000 C 
ENDBRANCH  21  41
BRANCH  37  42
ATOM     42  C19 UNL     1      71.703  61.836  97.714  0.00  0.00    +0.000 C 
ATOM     43  O1  UNL     1      70.889  61.543  96.794  0.00  0.00    +0.000 OA
BRANCH  42  44
ATOM     44  O2  UNL     1      72.126  63.165  97.867  0.00  0.00    +0.000 OA
ATOM     45  C20 UNL     1      72.419  64.010  96.763  0.00  0.00    +0.000 C 
ENDBRANCH  42  44
ENDBRANCH  37  42
ENDBRANCH   1  37
BRANCH   2  46
ATOM     46  O3  UNL     1      69.375  60.987  99.757  0.00  0.00    +0.000 OA
ATOM     47  C23 UNL     1      68.030  60.752 100.163  0.00  0.00    +0.000 C 
ENDBRANCH   2  46
BRANCH   8  48
ATOM     48  O4  UNL     1      71.699  61.160 106.264  0.00  0.00    +0.000 OA
ATOM     49  H32 UNL     1      71.456  60.708 105.413  0.00  0.00    +0.000 HD
ENDBRANCH   8  48
BRANCH  10  50
ATOM     50  C33 UNL     1      73.282  59.457 104.500  0.00  0.00    +0.000 C 
ATOM     51  C34 UNL     1      73.774  58.074 104.041  0.00  0.00    +0.000 C 
ENDBRANCH  10  50
BRANCH   8  52
ATOM     52  C44 UNL     1      72.735  63.139 107.132  0.00  0.00    +0.000 C 
ATOM     53  O7  UNL     1      71.830  63.138 108.013  0.00  0.00    +0.000 OA
BRANCH  52  54
ATOM     54  O8  UNL     1      73.724  64.131 107.142  0.00  0.00    +0.000 OA
ATOM     55  C45 UNL     1      73.868  65.058 108.210  0.00  0.00    +0.000 C 
ENDBRANCH  52  54
ENDBRANCH   8  52
BRANCH   9  56
ATOM     56  O5  UNL     1      74.197  60.493 107.210  0.00  0.00    +0.000 OA
BRANCH  56  57
ATOM     57  C30 UNL     1      74.548  60.925 108.493  0.00  0.00    +0.000 C 
ATOM     58  C31 UNL     1      75.750  61.788 108.666  0.00  0.00    +0.000 C 
ATOM     59  O6  UNL     1      73.869  60.586 109.500  0.00  0.00    +0.000 OA
ENDBRANCH  56  57
ENDBRANCH   9  56
TORSDOF 11
ENDMDL
MODEL 16
REMARK VINA RESULT:      -6.6      3.960      6.794
REMARK  Name = ./S4269.pdb
REMARK  18 active torsions:
REMARK  status: ('A' for Active; 'I' for Inactive)
REMARK    1  A    between atoms: C1_1  and  C2_2
REMARK    2  A    between atoms: C2_2  and  C3_3
REMARK    3  A    between atoms: C17_19  and  C19_21
REMARK    4  A    between atoms: C17_19  and  C21_25
REMARK    5  A    between atoms: C19_21  and  O2_23
REMARK    6  A    between atoms: O2_23  and  C20_24
REMARK    7  A    between atoms: C22_26  and  O3_27
REMARK    8  A    between atoms: O3_27  and  C23_28
REMARK    9  A    between atoms: N3_31  and  C26_32
REMARK   10  A    between atoms: C28_34  and  O4_35
REMARK   11  A    between atoms: C28_34  and  C44_54
REMARK   12  A    between atoms: C29_36  and  O5_37
REMARK   13  A    between atoms: O5_37  and  C30_38
REMARK   14  A    between atoms: C30_38  and  C31_39
REMARK   15  A    between atoms: C32_41  and  C33_42
REMARK   16  A    between atoms: C33_42  and  C34_43
REMARK   17  A    between atoms: C44_54  and  O8_56
REMARK   18  A    between atoms: O8_56  and  C45_57
REMARK                            x       y       z     vdW  Elec       q    Type
REMARK                         _______ _______ _______ _____ _____    ______ ____
ROOT
ATOM      1  C21 UNL     1      73.643  63.245 106.518  0.00  0.00    +0.000 A 
ATOM      2  C22 UNL     1      72.467  64.046 106.321  0.00  0.00    +0.000 A 
ATOM      3  C24 UNL     1      71.564  63.736 105.271  0.00  0.00    +0.000 A 
ATOM      4  C25 UNL     1      71.836  62.655 104.435  0.00  0.00    +0.000 A 
ATOM      5  N3  UNL     1      71.080  62.229 103.315  0.00  0.00    +0.000 N 
ATOM      6  C26 UNL     1      69.739  62.721 103.001  0.00  0.00    +0.000 C 
ATOM      7  C27 UNL     1      71.714  61.040 102.714  0.00  0.00    +0.000 C 
ATOM      8  C28 UNL     1      71.899  61.206 101.146  0.00  0.00    +0.000 C 
ATOM      9  C29 UNL     1      73.331  60.826 100.644  0.00  0.00    +0.000 C 
ATOM     10  C32 UNL     1      74.471  61.425 101.513  0.00  0.00    +0.000 C 
ATOM     11  C35 UNL     1      75.812  61.039 100.872  0.00  0.00    +0.000 C 
ATOM     12  C36 UNL     1      76.584  60.028 101.325  0.00  0.00    +0.000 C 
ATOM     13  C37 UNL     1      76.223  59.249 102.567  0.00  0.00    +0.000 C 
ATOM     14  N4  UNL     1      74.779  59.367 102.809  0.00  0.00    +0.000 NA
ATOM     15  C38 UNL     1      74.331  58.769 104.059  0.00  0.00    +0.000 C 
ATOM     16  C39 UNL     1      72.964  59.386 104.313  0.00  0.00    +0.000 C 
ATOM     17  C40 UNL     1      73.004  60.771 103.606  0.00  0.00    +0.000 C 
ATOM     18  C41 UNL     1      74.386  60.773 102.906  0.00  0.00    +0.000 C 
ATOM     19  C42 UNL     1      72.927  61.873 104.629  0.00  0.00    +0.000 A 
ATOM     20  C43 UNL     1      73.827  62.136 105.656  0.00  0.00    +0.000 A 
ENDROOT
BRANCH   1  37
ATOM     21  C3  UNL     1      78.146  63.048 104.198  0.00  0.00    +0.000 C 
ATOM     22  C4  UNL     1      77.543  62.367 105.212  0.00  0.00    +0.000 C 
ATOM     23  C5  UNL     1      76.803  63.219 106.178  0.00  0.00    +0.000 C 
ATOM     24  C6  UNL     1      77.754  64.363 106.539  0.00  0.00    +0.000 C 
ATOM     25  N1  UNL     1      77.679  65.297 105.423  0.00  0.00    +0.000 NA
ATOM     26  C7  UNL     1      78.106  64.609 104.150  0.00  0.00    +0.000 C 
ATOM     27  C8  UNL     1      76.312  65.905 105.333  0.00  0.00    +0.000 C 
ATOM     28  C9  UNL     1      75.597  66.107 106.694  0.00  0.00    +0.000 A 
ATOM     29  C10 UNL     1      74.970  65.185 107.636  0.00  0.00    +0.000 A 
ATOM     30  N2  UNL     1      74.387  65.938 108.614  0.00  0.00    +0.000 N 
ATOM     31  C11 UNL     1      74.626  67.227 108.357  0.00  0.00    +0.000 A 
ATOM     32  C12 UNL     1      75.358  67.376 107.217  0.00  0.00    +0.000 A 
ATOM     33  C13 UNL     1      75.696  68.654 106.743  0.00  0.00    +0.000 A 
ATOM     34  C14 UNL     1      75.250  69.773 107.468  0.00  0.00    +0.000 A 
ATOM     35  C15 UNL     1      74.476  69.606 108.634  0.00  0.00    +0.000 A 
ATOM     36  C16 UNL     1      74.159  68.317 109.092  0.00  0.00    +0.000 A 
ATOM     37  C17 UNL     1      74.715  63.614 107.588  0.00  0.00    +0.000 C 
ATOM     38  C18 UNL     1      76.024  62.730 107.374  0.00  0.00    +0.000 C 
ATOM     39  H14 UNL     1      73.792  65.613 109.410  0.00  0.00    +0.000 HD
BRANCH  21  41
ATOM     40  C1  UNL     1      79.325  63.253 102.014  0.00  0.00    +0.000 C 
ATOM     41  C2  UNL     1      78.839  62.294 103.095  0.00  0.00    +0.000 C 
ENDBRANCH  21  41
BRANCH  37  42
ATOM     42  C19 UNL     1      74.145  63.206 108.950  0.00  0.00    +0.000 C 
ATOM     43  O1  UNL     1      73.155  62.426 109.019  0.00  0.00    +0.000 OA
BRANCH  42  44
ATOM     44  O2  UNL     1      74.793  63.609 110.127  0.00  0.00    +0.000 OA
ATOM     45  C20 UNL     1      75.334  62.687 111.062  0.00  0.00    +0.000 C 
ENDBRANCH  42  44
ENDBRANCH  37  42
ENDBRANCH   1  37
BRANCH   2  46
ATOM     46  O3  UNL     1      72.241  65.156 107.153  0.00  0.00    +0.000 OA
ATOM     47  C23 UNL     1      71.057  65.949 107.152  0.00  0.00    +0.000 C 
ENDBRANCH   2  46
BRANCH   8  48
ATOM     48  O4  UNL     1      71.619  62.547 100.783  0.00  0.00    +0.000 OA
ATOM     49  H32 UNL     1      72.172  62.799  99.997  0.00  0.00    +0.000 HD
ENDBRANCH   8  48
BRANCH  10  50
ATOM     50  C33 UNL     1      74.385  62.985 101.604  0.00  0.00    +0.000 C 
ATOM     51  C34 UNL     1      75.717  63.734 101.435  0.00  0.00    +0.000 C 
ENDBRANCH  10  50
BRANCH   8  52
ATOM     52  C44 UNL     1      70.894  60.286 100.462  0.00  0.00    +0.000 C 
ATOM     53  O7  UNL     1      71.022  59.031 100.530  0.00  0.00    +0.000 OA
BRANCH  52  54
ATOM     54  O8  UNL     1      69.846  60.845  99.721  0.00  0.00    +0.000 OA
ATOM     55  C45 UNL     1      68.490  60.784 100.143  0.00  0.00    +0.000 C 
ENDBRANCH  52  54
ENDBRANCH   8  52
BRANCH   9  56
ATOM     56  O5  UNL     1      73.512  61.230  99.278  0.00  0.00    +0.000 OA
BRANCH  56  57
ATOM     57  C30 UNL     1      73.262  60.412  98.171  0.00  0.00    +0.000 C 
ATOM     58  C31 UNL     1      72.339  60.891  97.105  0.00  0.00    +0.000 C 
ATOM     59  O6  UNL     1      73.799  59.275  98.072  0.00  0.00    +0.000 OA
ENDBRANCH  56  57
ENDBRANCH   9  56
TORSDOF 11
ENDMDL
MODEL 17
REMARK VINA RESULT:      -6.5      7.905     11.665
REMARK  Name = ./S4269.pdb
REMARK  18 active torsions:
REMARK  status: ('A' for Active; 'I' for Inactive)
REMARK    1  A    between atoms: C1_1  and  C2_2
REMARK    2  A    between atoms: C2_2  and  C3_3
REMARK    3  A    between atoms: C17_19  and  C19_21
REMARK    4  A    between atoms: C17_19  and  C21_25
REMARK    5  A    between atoms: C19_21  and  O2_23
REMARK    6  A    between atoms: O2_23  and  C20_24
REMARK    7  A    between atoms: C22_26  and  O3_27
REMARK    8  A    between atoms: O3_27  and  C23_28
REMARK    9  A    between atoms: N3_31  and  C26_32
REMARK   10  A    between atoms: C28_34  and  O4_35
REMARK   11  A    between atoms: C28_34  and  C44_54
REMARK   12  A    between atoms: C29_36  and  O5_37
REMARK   13  A    between atoms: O5_37  and  C30_38
REMARK   14  A    between atoms: C30_38  and  C31_39
REMARK   15  A    between atoms: C32_41  and  C33_42
REMARK   16  A    between atoms: C33_42  and  C34_43
REMARK   17  A    between atoms: C44_54  and  O8_56
REMARK   18  A    between atoms: O8_56  and  C45_57
REMARK                            x       y       z     vdW  Elec       q    Type
REMARK                         _______ _______ _______ _____ _____    ______ ____
ROOT
ATOM      1  C21 UNL     1      75.613  65.728 108.829  0.00  0.00    +0.000 A 
ATOM      2  C22 UNL     1      76.076  67.025 109.234  0.00  0.00    +0.000 A 
ATOM      3  C24 UNL     1      76.963  67.755 108.401  0.00  0.00    +0.000 A 
ATOM      4  C25 UNL     1      77.381  67.196 107.195  0.00  0.00    +0.000 A 
ATOM      5  N3  UNL     1      78.295  67.752 106.266  0.00  0.00    +0.000 N 
ATOM      6  C26 UNL     1      78.764  69.137 106.312  0.00  0.00    +0.000 C 
ATOM      7  C27 UNL     1      78.453  66.836 105.120  0.00  0.00    +0.000 C 
ATOM      8  C28 UNL     1      79.984  66.563 104.797  0.00  0.00    +0.000 C 
ATOM      9  C29 UNL     1      80.320  65.048 104.605  0.00  0.00    +0.000 C 
ATOM     10  C32 UNL     1      79.698  64.133 105.697  0.00  0.00    +0.000 C 
ATOM     11  C35 UNL     1      80.164  62.694 105.433  0.00  0.00    +0.000 C 
ATOM     12  C36 UNL     1      79.391  61.766 104.829  0.00  0.00    +0.000 C 
ATOM     13  C37 UNL     1      77.960  62.055 104.442  0.00  0.00    +0.000 C 
ATOM     14  N4  UNL     1      77.780  63.507 104.306  0.00  0.00    +0.000 NA
ATOM     15  C38 UNL     1      76.404  63.920 104.068  0.00  0.00    +0.000 C 
ATOM     16  C39 UNL     1      76.382  65.402 104.410  0.00  0.00    +0.000 C 
ATOM     17  C40 UNL     1      77.516  65.595 105.457  0.00  0.00    +0.000 C 
ATOM     18  C41 UNL     1      78.168  64.192 105.539  0.00  0.00    +0.000 C 
ATOM     19  C42 UNL     1      76.928  65.985 106.787  0.00  0.00    +0.000 A 
ATOM     20  C43 UNL     1      76.046  65.246 107.568  0.00  0.00    +0.000 A 
ENDROOT
BRANCH   1  37
ATOM     21  C3  UNL     1      70.826  67.253 108.150  0.00  0.00    +0.000 C 
ATOM     22  C4  UNL     1      71.708  67.248 109.189  0.00  0.00    +0.000 C 
ATOM     23  C5  UNL     1      72.486  65.992 109.336  0.00  0.00    +0.000 C 
ATOM     24  C6  UNL     1      71.464  64.855 109.249  0.00  0.00    +0.000 C 
ATOM     25  N1  UNL     1      71.183  64.694 107.828  0.00  0.00    +0.000 NA
ATOM     26  C7  UNL     1      70.624  65.979 107.268  0.00  0.00    +0.000 C 
ATOM     27  C8  UNL     1      72.400  64.214 107.099  0.00  0.00    +0.000 C 
ATOM     28  C9  UNL     1      73.327  63.281 107.919  0.00  0.00    +0.000 A 
ATOM     29  C10 UNL     1      74.254  63.516 109.022  0.00  0.00    +0.000 A 
ATOM     30  N2  UNL     1      74.897  62.338 109.271  0.00  0.00    +0.000 N 
ATOM     31  C11 UNL     1      74.424  61.411 108.432  0.00  0.00    +0.000 A 
ATOM     32  C12 UNL     1      73.472  61.931 107.608  0.00  0.00    +0.000 A 
ATOM     33  C13 UNL     1      72.863  61.135 106.624  0.00  0.00    +0.000 A 
ATOM     34  C14 UNL     1      73.269  59.794 106.505  0.00  0.00    +0.000 A 
ATOM     35  C15 UNL     1      74.271  59.274 107.351  0.00  0.00    +0.000 A 
ATOM     36  C16 UNL     1      74.858  60.089 108.332  0.00  0.00    +0.000 A 
ATOM     37  C17 UNL     1      74.725  64.847 109.760  0.00  0.00    +0.000 C 
ATOM     38  C18 UNL     1      73.546  65.723 110.376  0.00  0.00    +0.000 C 
ATOM     39  H14 UNL     1      75.676  62.158 109.944  0.00  0.00    +0.000 HD
BRANCH  21  41
ATOM     40  C1  UNL     1      70.491  69.072 106.483  0.00  0.00    +0.000 C 
ATOM     41  C2  UNL     1      70.053  68.503 107.827  0.00  0.00    +0.000 C 
ENDBRANCH  21  41
BRANCH  37  42
ATOM     42  C19 UNL     1      75.602  64.422 110.942  0.00  0.00    +0.000 C 
ATOM     43  O1  UNL     1      75.181  64.548 112.125  0.00  0.00    +0.000 OA
BRANCH  42  44
ATOM     44  O2  UNL     1      76.830  63.786 110.708  0.00  0.00    +0.000 OA
ATOM     45  C20 UNL     1      77.499  63.018 111.698  0.00  0.00    +0.000 C 
ENDBRANCH  42  44
ENDBRANCH  37  42
ENDBRANCH   1  37
BRANCH   2  46
ATOM     46  O3  UNL     1      75.671  67.545 110.476  0.00  0.00    +0.000 OA
ATOM     47  C23 UNL     1      75.081  68.828 110.669  0.00  0.00    +0.000 C 
ENDBRANCH   2  46
BRANCH   8  48
ATOM     48  O4  UNL     1      80.782  67.088 105.845  0.00  0.00    +0.000 OA
ATOM     49  H32 UNL     1      80.202  67.325 106.616  0.00  0.00    +0.000 HD
ENDBRANCH   8  48
BRANCH  10  50
ATOM     50  C33 UNL     1      80.143  64.551 107.138  0.00  0.00    +0.000 C 
ATOM     51  C34 UNL     1      79.474  63.781 108.289  0.00  0.00    +0.000 C 
ENDBRANCH  10  50
BRANCH   8  52
ATOM     52  C44 UNL     1      80.320  67.295 103.502  0.00  0.00    +0.000 C 
ATOM     53  O7  UNL     1      79.659  67.073 102.449  0.00  0.00    +0.000 OA
BRANCH  52  54
ATOM     54  O8  UNL     1      81.398  68.188 103.479  0.00  0.00    +0.000 OA
ATOM     55  C45 UNL     1      82.613  67.906 102.797  0.00  0.00    +0.000 C 
ENDBRANCH  52  54
ENDBRANCH   8  52
BRANCH   9  56
ATOM     56  O5  UNL     1      81.740  64.846 104.566  0.00  0.00    +0.000 OA
BRANCH  56  57
ATOM     57  C30 UNL     1      82.424  64.234 103.511  0.00  0.00    +0.000 C 
ATOM     58  C31 UNL     1      81.767  64.135 102.178  0.00  0.00    +0.000 C 
ATOM     59  O6  UNL     1      83.580  63.757 103.677  0.00  0.00    +0.000 OA
ENDBRANCH  56  57
ENDBRANCH   9  56
TORSDOF 11
ENDMDL
MODEL 18
REMARK VINA RESULT:      -6.5      5.947     10.504
REMARK  Name = ./S4269.pdb
REMARK  18 active torsions:
REMARK  status: ('A' for Active; 'I' for Inactive)
REMARK    1  A    between atoms: C1_1  and  C2_2
REMARK    2  A    between atoms: C2_2  and  C3_3
REMARK    3  A    between atoms: C17_19  and  C19_21
REMARK    4  A    between atoms: C17_19  and  C21_25
REMARK    5  A    between atoms: C19_21  and  O2_23
REMARK    6  A    between atoms: O2_23  and  C20_24
REMARK    7  A    between atoms: C22_26  and  O3_27
REMARK    8  A    between atoms: O3_27  and  C23_28
REMARK    9  A    between atoms: N3_31  and  C26_32
REMARK   10  A    between atoms: C28_34  and  O4_35
REMARK   11  A    between atoms: C28_34  and  C44_54
REMARK   12  A    between atoms: C29_36  and  O5_37
REMARK   13  A    between atoms: O5_37  and  C30_38
REMARK   14  A    between atoms: C30_38  and  C31_39
REMARK   15  A    between atoms: C32_41  and  C33_42
REMARK   16  A    between atoms: C33_42  and  C34_43
REMARK   17  A    between atoms: C44_54  and  O8_56
REMARK   18  A    between atoms: O8_56  and  C45_57
REMARK                            x       y       z     vdW  Elec       q    Type
REMARK                         _______ _______ _______ _____ _____    ______ ____
ROOT
ATOM      1  C21 UNL     1      78.073  63.281 104.910  0.00  0.00    +0.000 A 
ATOM      2  C22 UNL     1      78.760  64.542 104.893  0.00  0.00    +0.000 A 
ATOM      3  C24 UNL     1      78.289  65.619 105.690  0.00  0.00    +0.000 A 
ATOM      4  C25 UNL     1      77.154  65.437 106.478  0.00  0.00    +0.000 A 
ATOM      5  N3  UNL     1      76.516  66.405 107.293  0.00  0.00    +0.000 N 
ATOM      6  C26 UNL     1      77.102  67.702 107.630  0.00  0.00    +0.000 C 
ATOM      7  C27 UNL     1      75.351  65.795 107.963  0.00  0.00    +0.000 C 
ATOM      8  C28 UNL     1      74.046  66.682 107.786  0.00  0.00    +0.000 C 
ATOM      9  C29 UNL     1      72.791  65.862 107.339  0.00  0.00    +0.000 C 
ATOM     10  C32 UNL     1      73.082  64.870 106.178  0.00  0.00    +0.000 C 
ATOM     11  C35 UNL     1      71.761  64.189 105.792  0.00  0.00    +0.000 C 
ATOM     12  C36 UNL     1      71.425  62.945 106.194  0.00  0.00    +0.000 C 
ATOM     13  C37 UNL     1      72.375  62.086 106.993  0.00  0.00    +0.000 C 
ATOM     14  N4  UNL     1      73.349  62.948 107.676  0.00  0.00    +0.000 NA
ATOM     15  C38 UNL     1      74.405  62.225 108.371  0.00  0.00    +0.000 C 
ATOM     16  C39 UNL     1      75.497  63.259 108.595  0.00  0.00    +0.000 C 
ATOM     17  C40 UNL     1      75.323  64.291 107.444  0.00  0.00    +0.000 C 
ATOM     18  C41 UNL     1      74.049  63.797 106.713  0.00  0.00    +0.000 C 
ATOM     19  C42 UNL     1      76.514  64.243 106.525  0.00  0.00    +0.000 A 
ATOM     20  C43 UNL     1      76.954  63.161 105.771  0.00  0.00    +0.000 A 
ENDROOT
BRANCH   1  37
ATOM     21  C3  UNL     1      73.816  61.517 102.798  0.00  0.00    +0.000 C 
ATOM     22  C4  UNL     1      74.762  61.019 103.641  0.00  0.00    +0.000 C 
ATOM     23  C5  UNL     1      76.162  61.345 103.266  0.00  0.00    +0.000 C 
ATOM     24  C6  UNL     1      76.280  61.023 101.773  0.00  0.00    +0.000 C 
ATOM     25  N1  UNL     1      75.669  62.152 101.084  0.00  0.00    +0.000 NA
ATOM     26  C7  UNL     1      74.227  62.289 101.503  0.00  0.00    +0.000 C 
ATOM     27  C8  UNL     1      76.467  63.401 101.303  0.00  0.00    +0.000 C 
ATOM     28  C9  UNL     1      77.996  63.183 101.442  0.00  0.00    +0.000 A 
ATOM     29  C10 UNL     1      78.830  62.631 102.506  0.00  0.00    +0.000 A 
ATOM     30  N2  UNL     1      80.132  62.801 102.130  0.00  0.00    +0.000 N 
ATOM     31  C11 UNL     1      80.154  63.382 100.927  0.00  0.00    +0.000 A 
ATOM     32  C12 UNL     1      78.892  63.622 100.471  0.00  0.00    +0.000 A 
ATOM     33  C13 UNL     1      78.685  64.259  99.236  0.00  0.00    +0.000 A 
ATOM     34  C14 UNL     1      79.811  64.651  98.491  0.00  0.00    +0.000 A 
ATOM     35  C15 UNL     1      81.111  64.415  98.984  0.00  0.00    +0.000 A 
ATOM     36  C16 UNL     1      81.291  63.769 100.217  0.00  0.00    +0.000 A 
ATOM     37  C17 UNL     1      78.491  62.109 103.971  0.00  0.00    +0.000 C 
ATOM     38  C18 UNL     1      77.400  60.948 104.031  0.00  0.00    +0.000 C 
ATOM     39  H14 UNL     1      80.995  62.588 102.680  0.00  0.00    +0.000 HD
BRANCH  21  41
ATOM     40  C1  UNL     1      71.526  62.427 102.440  0.00  0.00    +0.000 C 
ATOM     41  C2  UNL     1      72.356  61.347 103.123  0.00  0.00    +0.000 C 
ENDBRANCH  21  41
BRANCH  37  42
ATOM     42  C19 UNL     1      79.778  61.512 104.548  0.00  0.00    +0.000 C 
ATOM     43  O1  UNL     1      80.406  60.618 103.914  0.00  0.00    +0.000 OA
BRANCH  42  44
ATOM     44  O2  UNL     1      80.324  62.037 105.728  0.00  0.00    +0.000 OA
ATOM     45  C20 UNL     1      81.710  61.967 106.032  0.00  0.00    +0.000 C 
ENDBRANCH  42  44
ENDBRANCH  37  42
ENDBRANCH   1  37
BRANCH   2  46
ATOM     46  O3  UNL     1      79.877  64.708 104.056  0.00  0.00    +0.000 OA
ATOM     47  C23 UNL     1      81.097  65.336 104.440  0.00  0.00    +0.000 C 
ENDBRANCH   2  46
BRANCH   8  48
ATOM     48  O4  UNL     1      74.299  67.701 106.833  0.00  0.00    +0.000 OA
ATOM     49  H32 UNL     1      75.088  67.450 106.283  0.00  0.00    +0.000 HD
ENDBRANCH   8  48
BRANCH  10  50
ATOM     50  C33 UNL     1      73.666  65.592 104.919  0.00  0.00    +0.000 C 
ATOM     51  C34 UNL     1      74.183  64.667 103.803  0.00  0.00    +0.000 C 
ENDBRANCH  10  50
BRANCH   8  52
ATOM     52  C44 UNL     1      73.739  67.327 109.133  0.00  0.00    +0.000 C 
ATOM     53  O7  UNL     1      73.945  68.559 109.317  0.00  0.00    +0.000 OA
BRANCH  52  54
ATOM     54  O8  UNL     1      73.263  66.531 110.182  0.00  0.00    +0.000 OA
ATOM     55  C45 UNL     1      73.655  66.729 111.534  0.00  0.00    +0.000 C 
ENDBRANCH  52  54
ENDBRANCH   8  52
BRANCH   9  56
ATOM     56  O5  UNL     1      71.722  66.740 106.957  0.00  0.00    +0.000 OA
BRANCH  56  57
ATOM     57  C30 UNL     1      70.692  67.150 107.810  0.00  0.00    +0.000 C 
ATOM     58  C31 UNL     1      70.419  68.605 107.975  0.00  0.00    +0.000 C 
ATOM     59  O6  UNL     1      70.004  66.306 108.446  0.00  0.00    +0.000 OA
ENDBRANCH  56  57
ENDBRANCH   9  56
TORSDOF 11
ENDMDL
MODEL 19
REMARK VINA RESULT:      -6.4      3.941      7.399
REMARK  Name = ./S4269.pdb
REMARK  18 active torsions:
REMARK  status: ('A' for Active; 'I' for Inactive)
REMARK    1  A    between atoms: C1_1  and  C2_2
REMARK    2  A    between atoms: C2_2  and  C3_3
REMARK    3  A    between atoms: C17_19  and  C19_21
REMARK    4  A    between atoms: C17_19  and  C21_25
REMARK    5  A    between atoms: C19_21  and  O2_23
REMARK    6  A    between atoms: O2_23  and  C20_24
REMARK    7  A    between atoms: C22_26  and  O3_27
REMARK    8  A    between atoms: O3_27  and  C23_28
REMARK    9  A    between atoms: N3_31  and  C26_32
REMARK   10  A    between atoms: C28_34  and  O4_35
REMARK   11  A    between atoms: C28_34  and  C44_54
REMARK   12  A    between atoms: C29_36  and  O5_37
REMARK   13  A    between atoms: O5_37  and  C30_38
REMARK   14  A    between atoms: C30_38  and  C31_39
REMARK   15  A    between atoms: C32_41  and  C33_42
REMARK   16  A    between atoms: C33_42  and  C34_43
REMARK   17  A    between atoms: C44_54  and  O8_56
REMARK   18  A    between atoms: O8_56  and  C45_57
REMARK                            x       y       z     vdW  Elec       q    Type
REMARK                         _______ _______ _______ _____ _____    ______ ____
ROOT
ATOM      1  C21 UNL     1      73.835  63.330 106.657  0.00  0.00    +0.000 A 
ATOM      2  C22 UNL     1      72.604  63.785 106.073  0.00  0.00    +0.000 A 
ATOM      3  C24 UNL     1      72.039  63.089 104.972  0.00  0.00    +0.000 A 
ATOM      4  C25 UNL     1      72.695  61.968 104.466  0.00  0.00    +0.000 A 
ATOM      5  N3  UNL     1      72.309  61.184 103.351  0.00  0.00    +0.000 N 
ATOM      6  C26 UNL     1      71.006  61.284 102.694  0.00  0.00    +0.000 C 
ATOM      7  C27 UNL     1      73.278  60.087 103.160  0.00  0.00    +0.000 C 
ATOM      8  C28 UNL     1      73.780  60.007 101.655  0.00  0.00    +0.000 C 
ATOM      9  C29 UNL     1      75.333  59.887 101.522  0.00  0.00    +0.000 C 
ATOM     10  C32 UNL     1      76.111  60.883 102.429  0.00  0.00    +0.000 C 
ATOM     11  C35 UNL     1      77.610  60.711 102.147  0.00  0.00    +0.000 C 
ATOM     12  C36 UNL     1      78.437  60.007 102.949  0.00  0.00    +0.000 C 
ATOM     13  C37 UNL     1      77.959  59.402 104.247  0.00  0.00    +0.000 C 
ATOM     14  N4  UNL     1      76.502  59.221 104.188  0.00  0.00    +0.000 NA
ATOM     15  C38 UNL     1      75.903  58.770 105.437  0.00  0.00    +0.000 C 
ATOM     16  C39 UNL     1      74.423  59.086 105.290  0.00  0.00    +0.000 C 
ATOM     17  C40 UNL     1      74.358  60.292 104.310  0.00  0.00    +0.000 C 
ATOM     18  C41 UNL     1      75.837  60.490 103.893  0.00  0.00    +0.000 C 
ATOM     19  C42 UNL     1      73.841  61.511 105.026  0.00  0.00    +0.000 A 
ATOM     20  C43 UNL     1      74.418  62.157 106.115  0.00  0.00    +0.000 A 
ENDROOT
BRANCH   1  37
ATOM     21  C3  UNL     1      78.659  63.930 105.222  0.00  0.00    +0.000 C 
ATOM     22  C4  UNL     1      78.019  63.285 106.238  0.00  0.00    +0.000 C 
ATOM     23  C5  UNL     1      76.921  64.061 106.869  0.00  0.00    +0.000 C 
ATOM     24  C6  UNL     1      77.496  65.453 107.144  0.00  0.00    +0.000 C 
ATOM     25  N1  UNL     1      77.457  66.148 105.863  0.00  0.00    +0.000 NA
ATOM     26  C7  UNL     1      78.288  65.401 104.849  0.00  0.00    +0.000 C 
ATOM     27  C8  UNL     1      76.042  66.363 105.421  0.00  0.00    +0.000 C 
ATOM     28  C9  UNL     1      75.026  66.587 106.570  0.00  0.00    +0.000 A 
ATOM     29  C10 UNL     1      74.431  65.696 107.562  0.00  0.00    +0.000 A 
ATOM     30  N2  UNL     1      73.501  66.418 108.252  0.00  0.00    +0.000 N 
ATOM     31  C11 UNL     1      73.500  67.669 107.780  0.00  0.00    +0.000 A 
ATOM     32  C12 UNL     1      74.407  67.818 106.775  0.00  0.00    +0.000 A 
ATOM     33  C13 UNL     1      74.548  69.049 106.113  0.00  0.00    +0.000 A 
ATOM     34  C14 UNL     1      73.722  70.116 106.507  0.00  0.00    +0.000 A 
ATOM     35  C15 UNL     1      72.773  69.943 107.535  0.00  0.00    +0.000 A 
ATOM     36  C16 UNL     1      72.658  68.704 108.186  0.00  0.00    +0.000 A 
ATOM     37  C17 UNL     1      74.545  64.124 107.794  0.00  0.00    +0.000 C 
ATOM     38  C18 UNL     1      76.031  63.583 107.991  0.00  0.00    +0.000 C 
ATOM     39  H14 UNL     1      72.836  66.082 108.985  0.00  0.00    +0.000 HD
BRANCH  21  41
ATOM     40  C1  UNL     1      80.428  62.178 105.296  0.00  0.00    +0.000 C 
ATOM     41  C2  UNL     1      79.721  63.214 104.430  0.00  0.00    +0.000 C 
ENDBRANCH  21  41
BRANCH  37  42
ATOM     42  C19 UNL     1      73.801  63.805 109.094  0.00  0.00    +0.000 C 
ATOM     43  O1  UNL     1      72.935  62.887 109.124  0.00  0.00    +0.000 OA
BRANCH  42  44
ATOM     44  O2  UNL     1      74.162  64.456 110.284  0.00  0.00    +0.000 OA
ATOM     45  C20 UNL     1      74.688  63.766 111.409  0.00  0.00    +0.000 C 
ENDBRANCH  42  44
ENDBRANCH  37  42
ENDBRANCH   1  37
BRANCH   2  46
ATOM     46  O3  UNL     1      71.988  64.943 106.579  0.00  0.00    +0.000 OA
ATOM     47  C23 UNL     1      70.601  65.062 106.881  0.00  0.00    +0.000 C 
ENDBRANCH   2  46
BRANCH   8  48
ATOM     48  O4  UNL     1      73.339  61.158 100.955  0.00  0.00    +0.000 OA
ATOM     49  H32 UNL     1      74.125  61.705 100.691  0.00  0.00    +0.000 HD
ENDBRANCH   8  48
BRANCH  10  50
ATOM     50  C33 UNL     1      75.710  62.369 102.149  0.00  0.00    +0.000 C 
ATOM     51  C34 UNL     1      76.881  63.337 101.903  0.00  0.00    +0.000 C 
ENDBRANCH  10  50
BRANCH   8  52
ATOM     52  C44 UNL     1      73.150  58.770 101.024  0.00  0.00    +0.000 C 
ATOM     53  O7  UNL     1      73.398  57.618 101.481  0.00  0.00    +0.000 OA
BRANCH  52  54
ATOM     54  O8  UNL     1      72.324  58.917  99.904  0.00  0.00    +0.000 OA
ATOM     55  C45 UNL     1      72.750  58.591  98.588  0.00  0.00    +0.000 C 
ENDBRANCH  52  54
ENDBRANCH   8  52
BRANCH   9  56
ATOM     56  O5  UNL     1      75.739  60.070 100.158  0.00  0.00    +0.000 OA
BRANCH  56  57
ATOM     57  C30 UNL     1      76.354  59.086  99.377  0.00  0.00    +0.000 C 
ATOM     58  C31 UNL     1      76.715  57.782 100.000  0.00  0.00    +0.000 C 
ATOM     59  O6  UNL     1      76.614  59.292  98.160  0.00  0.00    +0.000 OA
ENDBRANCH  56  57
ENDBRANCH   9  56
TORSDOF 11
ENDMDL
MODEL 20
REMARK VINA RESULT:      -6.3      1.527      1.922
REMARK  Name = ./S4269.pdb
REMARK  18 active torsions:
REMARK  status: ('A' for Active; 'I' for Inactive)
REMARK    1  A    between atoms: C1_1  and  C2_2
REMARK    2  A    between atoms: C2_2  and  C3_3
REMARK    3  A    between atoms: C17_19  and  C19_21
REMARK    4  A    between atoms: C17_19  and  C21_25
REMARK    5  A    between atoms: C19_21  and  O2_23
REMARK    6  A    between atoms: O2_23  and  C20_24
REMARK    7  A    between atoms: C22_26  and  O3_27
REMARK    8  A    between atoms: O3_27  and  C23_28
REMARK    9  A    between atoms: N3_31  and  C26_32
REMARK   10  A    between atoms: C28_34  and  O4_35
REMARK   11  A    between atoms: C28_34  and  C44_54
REMARK   12  A    between atoms: C29_36  and  O5_37
REMARK   13  A    between atoms: O5_37  and  C30_38
REMARK   14  A    between atoms: C30_38  and  C31_39
REMARK   15  A    between atoms: C32_41  and  C33_42
REMARK   16  A    between atoms: C33_42  and  C34_43
REMARK   17  A    between atoms: C44_54  and  O8_56
REMARK   18  A    between atoms: O8_56  and  C45_57
REMARK                            x       y       z     vdW  Elec       q    Type
REMARK                         _______ _______ _______ _____ _____    ______ ____
ROOT
ATOM      1  C21 UNL     1      75.106  58.746 100.956  0.00  0.00    +0.000 A 
ATOM      2  C22 UNL     1      75.840  57.744 100.235  0.00  0.00    +0.000 A 
ATOM      3  C24 UNL     1      75.435  57.369  98.927  0.00  0.00    +0.000 A 
ATOM      4  C25 UNL     1      74.318  57.979  98.359  0.00  0.00    +0.000 A 
ATOM      5  N3  UNL     1      73.742  57.700  97.095  0.00  0.00    +0.000 N 
ATOM      6  C26 UNL     1      74.387  56.884  96.067  0.00  0.00    +0.000 C 
ATOM      7  C27 UNL     1      72.576  58.577  96.880  0.00  0.00    +0.000 C 
ATOM      8  C28 UNL     1      71.300  57.751  96.419  0.00  0.00    +0.000 C 
ATOM      9  C29 UNL     1      70.002  58.114  97.213  0.00  0.00    +0.000 C 
ATOM     10  C32 UNL     1      70.220  58.197  98.750  0.00  0.00    +0.000 C 
ATOM     11  C35 UNL     1      68.863  58.486  99.407  0.00  0.00    +0.000 C 
ATOM     12  C36 UNL     1      68.491  59.713  99.828  0.00  0.00    +0.000 C 
ATOM     13  C37 UNL     1      69.431  60.893  99.763  0.00  0.00    +0.000 C 
ATOM     14  N4  UNL     1      70.457  60.637  98.743  0.00  0.00    +0.000 NA
ATOM     15  C38 UNL     1      71.505  61.646  98.681  0.00  0.00    +0.000 C 
ATOM     16  C39 UNL     1      72.643  60.976  97.926  0.00  0.00    +0.000 C 
ATOM     17  C40 UNL     1      72.474  59.454  98.203  0.00  0.00    +0.000 C 
ATOM     18  C41 UNL     1      71.161  59.385  99.023  0.00  0.00    +0.000 C 
ATOM     19  C42 UNL     1      73.634  58.947  99.018  0.00  0.00    +0.000 A 
ATOM     20  C43 UNL     1      74.009  59.352 100.294  0.00  0.00    +0.000 A 
ENDROOT
BRANCH   1  37
ATOM     21  C3  UNL     1      78.437  62.562 100.779  0.00  0.00    +0.000 C 
ATOM     22  C4  UNL     1      78.457  61.273 101.220  0.00  0.00    +0.000 C 
ATOM     23  C5  UNL     1      77.249  60.858 101.978  0.00  0.00    +0.000 C 
ATOM     24  C6  UNL     1      76.997  61.970 103.002  0.00  0.00    +0.000 C 
ATOM     25  N1  UNL     1      76.349  63.042 102.257  0.00  0.00    +0.000 NA
ATOM     26  C7  UNL     1      77.254  63.514 101.146  0.00  0.00    +0.000 C 
ATOM     27  C8  UNL     1      74.999  62.609 101.772  0.00  0.00    +0.000 C 
ATOM     28  C9  UNL     1      74.256  61.619 102.706  0.00  0.00    +0.000 A 
ATOM     29  C10 UNL     1      74.446  60.203 103.009  0.00  0.00    +0.000 A 
ATOM     30  N2  UNL     1      73.414  59.819 103.817  0.00  0.00    +0.000 N 
ATOM     31  C11 UNL     1      72.636  60.881 104.045  0.00  0.00    +0.000 A 
ATOM     32  C12 UNL     1      73.110  61.987 103.405  0.00  0.00    +0.000 A 
ATOM     33  C13 UNL     1      72.423  63.210 103.484  0.00  0.00    +0.000 A 
ATOM     34  C14 UNL     1      71.233  63.260 104.230  0.00  0.00    +0.000 A 
ATOM     35  C15 UNL     1      70.743  62.103 104.870  0.00  0.00    +0.000 A 
ATOM     36  C16 UNL     1      71.452  60.895 104.783  0.00  0.00    +0.000 A 
ATOM     37  C17 UNL     1      75.450  59.109 102.432  0.00  0.00    +0.000 C 
ATOM     38  C18 UNL     1      76.993  59.487 102.555  0.00  0.00    +0.000 C 
ATOM     39  H14 UNL     1      73.193  58.860 104.168  0.00  0.00    +0.000 HD
BRANCH  21  41
ATOM     40  C1  UNL     1      79.345  64.550  99.584  0.00  0.00    +0.000 C 
ATOM     41  C2  UNL     1      79.553  63.075  99.908  0.00  0.00    +0.000 C 
ENDBRANCH  21  41
BRANCH  37  42
ATOM     42  C19 UNL     1      75.257  57.837 103.263  0.00  0.00    +0.000 C 
ATOM     43  O1  UNL     1      74.214  57.139 103.127  0.00  0.00    +0.000 OA
BRANCH  42  44
ATOM     44  O2  UNL     1      76.291  57.382 104.095  0.00  0.00    +0.000 OA
ATOM     45  C20 UNL     1      76.237  56.139 104.779  0.00  0.00    +0.000 C 
ENDBRANCH  42  44
ENDBRANCH  37  42
ENDBRANCH   1  37
BRANCH   2  46
ATOM     46  O3  UNL     1      76.937  57.116 100.851  0.00  0.00    +0.000 OA
ATOM     47  C23 UNL     1      77.290  55.745 100.686  0.00  0.00    +0.000 C 
ENDBRANCH   2  46
BRANCH   8  48
ATOM     48  O4  UNL     1      71.564  56.366  96.567  0.00  0.00    +0.000 OA
ATOM     49  H32 UNL     1      72.414  56.243  97.067  0.00  0.00    +0.000 HD
ENDBRANCH   8  48
BRANCH  10  50
ATOM     50  C33 UNL     1      70.793  56.865  99.337  0.00  0.00    +0.000 C 
ATOM     51  C34 UNL     1      69.786  55.989 100.101  0.00  0.00    +0.000 C 
ENDBRANCH  10  50
BRANCH   8  52
ATOM     52  C44 UNL     1      71.059  58.056  94.945  0.00  0.00    +0.000 C 
ATOM     53  O7  UNL     1      70.992  57.121  94.098  0.00  0.00    +0.000 OA
BRANCH  52  54
ATOM     54  O8  UNL     1      70.953  59.388  94.529  0.00  0.00    +0.000 OA
ATOM     55  C45 UNL     1      70.237  59.773  93.363  0.00  0.00    +0.000 C 
ENDBRANCH  52  54
ENDBRANCH   8  52
BRANCH   9  56
ATOM     56  O5  UNL     1      68.957  57.171  96.931  0.00  0.00    +0.000 OA
BRANCH  56  57
ATOM     57  C30 UNL     1      67.894  57.408  96.053  0.00  0.00    +0.000 C 
ATOM     58  C31 UNL     1      67.530  58.812  95.713  0.00  0.00    +0.000 C 
ATOM     59  O6  UNL     1      67.237  56.452  95.558  0.00  0.00    +0.000 OA
ENDBRANCH  56  57
ENDBRANCH   9  56
TORSDOF 11
ENDMDL
