MODEL 1
REMARK VINA RESULT:      -7.6      0.000      0.000
REMARK  Name = ./S4286.pdb
REMARK  27 active torsions:
REMARK  status: ('A' for Active; 'I' for Inactive)
REMARK    1  A    between atoms: C1_1  and  C2_2
REMARK    2  A    between atoms: C2_2  and  C3_3
REMARK    3  A    between atoms: C3_3  and  C4_4
REMARK    4  A    between atoms: C4_4  and  C5_5
REMARK    5  A    between atoms: C5_5  and  O1_6
REMARK    6  A    between atoms: O1_6  and  C6_7
REMARK    7  A    between atoms: C9_10  and  C12_13
REMARK    8  A    between atoms: C15_16  and  C18_19
REMARK    9  A    between atoms: C21_22  and  C24_25
REMARK   10  A    between atoms: N1_27  and  C25_28
REMARK   11  A    between atoms: C27_30  and  O3_31
REMARK   12  A    between atoms: C28_32  and  O4_33
REMARK   13  A    between atoms: C31_38  and  O6_39
REMARK   14  A    between atoms: C32_40  and  C33_41
REMARK   15  A    between atoms: C36_46  and  C57_80
REMARK   16  A    between atoms: C38_50  and  C49_69
REMARK   17  A    between atoms: C42_56  and  O10_57
REMARK   18  A    between atoms: C45_62  and  C47_66
REMARK   19  A    between atoms: C47_66  and  C48_67
REMARK   20  A    between atoms: C47_66  and  O13_68
REMARK   21  A    between atoms: C49_69  and  O14_70
REMARK   22  A    between atoms: C49_69  and  C50_71
REMARK   23  A    between atoms: C50_71  and  O15_72
REMARK   24  A    between atoms: C50_71  and  C51_73
REMARK   25  A    between atoms: C54_76  and  O16_77
REMARK   26  A    between atoms: C57_80  and  C58_81
REMARK   27  A    between atoms: C57_80  and  O17_82
REMARK                            x       y       z     vdW  Elec       q    Type
REMARK                         _______ _______ _______ _____ _____    ______ ____
ROOT
ATOM      1  C25 UNL     1      79.115  65.342 102.451  0.00  0.00    +0.000 C 
ATOM      2  C26 UNL     1      78.141  64.293 101.841  0.00  0.00    +0.000 C 
ATOM      3  C27 UNL     1      76.792  64.921 101.422  0.00  0.00    +0.000 C 
ATOM      4  C28 UNL     1      75.778  63.878 100.899  0.00  0.00    +0.000 C 
ATOM      5  N2  UNL     1      75.246  63.055 101.990  0.00  0.00    +0.000 N 
ATOM      6  C29 UNL     1      74.090  62.220 101.812  0.00  0.00    +0.000 C 
ATOM      7  O5  UNL     1      73.505  62.175 100.696  0.00  0.00    +0.000 OA
ATOM      8  C30 UNL     1      73.558  61.392 102.954  0.00  0.00    +0.000 C 
ATOM      9  C31 UNL     1      74.576  60.318 103.379  0.00  0.00    +0.000 C 
ATOM     10  C32 UNL     1      74.562  60.339 104.912  0.00  0.00    +0.000 C 
ATOM     11  C33 UNL     1      75.936  60.032 105.521  0.00  0.00    +0.000 C 
ATOM     12  C34 UNL     1      74.052  61.726 105.296  0.00  0.00    +0.000 C 
ATOM     13  N3  UNL     1      73.317  62.211 104.139  0.00  0.00    +0.000 N 
ATOM     14  C35 UNL     1      72.382  63.316 104.158  0.00  0.00    +0.000 C 
ATOM     15  O7  UNL     1      72.073  63.878 103.074  0.00  0.00    +0.000 OA
ATOM     16  C36 UNL     1      71.690  63.789 105.429  0.00  0.00    +0.000 C 
ATOM     17  N4  UNL     1      72.691  64.236 106.414  0.00  0.00    +0.000 N 
ATOM     18  C37 UNL     1      72.364  64.715 107.731  0.00  0.00    +0.000 C 
ATOM     19  O8  UNL     1      71.628  64.017 108.479  0.00  0.00    +0.000 OA
ATOM     20  C38 UNL     1      72.954  65.996 108.301  0.00  0.00    +0.000 C 
ATOM     21  N5  UNL     1      73.853  66.677 107.360  0.00  0.00    +0.000 N 
ATOM     22  C39 UNL     1      74.915  67.541 107.803  0.00  0.00    +0.000 C 
ATOM     23  O9  UNL     1      75.105  67.733 109.033  0.00  0.00    +0.000 OA
ATOM     24  C40 UNL     1      75.833  68.200 106.806  0.00  0.00    +0.000 C 
ATOM     25  C41 UNL     1      75.057  69.008 105.755  0.00  0.00    +0.000 C 
ATOM     26  C42 UNL     1      75.406  68.391 104.394  0.00  0.00    +0.000 C 
ATOM     27  C43 UNL     1      76.231  67.133 104.672  0.00  0.00    +0.000 C 
ATOM     28  N6  UNL     1      76.586  67.182 106.081  0.00  0.00    +0.000 N 
ATOM     29  C44 UNL     1      77.759  66.550 106.647  0.00  0.00    +0.000 C 
ATOM     30  O11 UNL     1      78.398  67.155 107.549  0.00  0.00    +0.000 OA
ATOM     31  C45 UNL     1      78.227  65.150 106.270  0.00  0.00    +0.000 C 
ATOM     32  N7  UNL     1      78.176  64.925 104.822  0.00  0.00    +0.000 N 
ATOM     33  C46 UNL     1      79.279  65.258 103.958  0.00  0.00    +0.000 C 
ATOM     34  O12 UNL     1      80.384  65.596 104.466  0.00  0.00    +0.000 OA
ATOM     35  H32 UNL     1      75.669  63.117 102.944  0.00  0.00    +0.000 HD
ATOM     36  H43 UNL     1      73.653  64.432 106.061  0.00  0.00    +0.000 HD
ATOM     37  H45 UNL     1      73.651  66.634 106.337  0.00  0.00    +0.000 HD
ATOM     38  H54 UNL     1      77.286  64.571 104.407  0.00  0.00    +0.000 HD
ENDROOT
BRANCH   1  41
ATOM     39  C24 UNL     1      80.735  65.933 100.554  0.00  0.00    +0.000 C 
ATOM     40  O2  UNL     1      79.920  66.772 100.079  0.00  0.00    +0.000 OA
ATOM     41  N1  UNL     1      80.424  65.258 101.789  0.00  0.00    +0.000 N 
ATOM     42  H24 UNL     1      81.166  64.700 102.266  0.00  0.00    +0.000 HD
BRANCH  39  46
ATOM     43  C18 UNL     1      84.424  65.178  98.457  0.00  0.00    +0.000 A 
ATOM     44  C19 UNL     1      84.075  64.412  99.583  0.00  0.00    +0.000 A 
ATOM     45  C20 UNL     1      82.878  64.651 100.263  0.00  0.00    +0.000 A 
ATOM     46  C21 UNL     1      82.006  65.669  99.839  0.00  0.00    +0.000 A 
ATOM     47  C22 UNL     1      82.347  66.424  98.705  0.00  0.00    +0.000 A 
ATOM     48  C23 UNL     1      83.544  66.184  98.023  0.00  0.00    +0.000 A 
BRANCH  43  52
ATOM     49  C12 UNL     1      88.107  64.394  96.358  0.00  0.00    +0.000 A 
ATOM     50  C13 UNL     1      87.872  63.833  97.625  0.00  0.00    +0.000 A 
ATOM     51  C14 UNL     1      86.681  64.094  98.307  0.00  0.00    +0.000 A 
ATOM     52  C15 UNL     1      85.698  64.922  97.740  0.00  0.00    +0.000 A 
ATOM     53  C16 UNL     1      85.936  65.490  96.477  0.00  0.00    +0.000 A 
ATOM     54  C17 UNL     1      87.127  65.229  95.792  0.00  0.00    +0.000 A 
BRANCH  49  58
ATOM     55  C6  UNL     1      91.717  63.484  94.188  0.00  0.00    +0.000 A 
ATOM     56  C7  UNL     1      90.929  64.594  93.829  0.00  0.00    +0.000 A 
ATOM     57  C8  UNL     1      89.765  64.894  94.540  0.00  0.00    +0.000 A 
ATOM     58  C9  UNL     1      89.362  64.091  95.623  0.00  0.00    +0.000 A 
ATOM     59  C10 UNL     1      90.158  62.990  95.985  0.00  0.00    +0.000 A 
ATOM     60  C11 UNL     1      91.325  62.695  95.273  0.00  0.00    +0.000 A 
BRANCH  55  61
ATOM     61  O1  UNL     1      92.885  63.134  93.494  0.00  0.00    +0.000 OA
BRANCH  61  62
ATOM     62  C5  UNL     1      92.926  62.805  92.108  0.00  0.00    +0.000 C 
BRANCH  62  63
ATOM     63  C4  UNL     1      92.454  61.363  91.913  0.00  0.00    +0.000 C 
BRANCH  63  64
ATOM     64  C3  UNL     1      91.050  61.262  91.279  0.00  0.00    +0.000 C 
BRANCH  64  66
ATOM     65  C1  UNL     1      90.426  60.077  89.086  0.00  0.00    +0.000 C 
ATOM     66  C2  UNL     1      90.767  59.923  90.568  0.00  0.00    +0.000 C 
ENDBRANCH  64  66
ENDBRANCH  63  64
ENDBRANCH  62  63
ENDBRANCH  61  62
ENDBRANCH  55  61
ENDBRANCH  49  58
ENDBRANCH  43  52
ENDBRANCH  39  46
ENDBRANCH   1  41
BRANCH   3  67
ATOM     67  O3  UNL     1      77.029  65.872 100.414  0.00  0.00    +0.000 OA
ATOM     68  H29 UNL     1      77.405  65.383  99.634  0.00  0.00    +0.000 HD
ENDBRANCH   3  67
BRANCH   4  69
ATOM     69  O4  UNL     1      76.387  63.059  99.931  0.00  0.00    +0.000 OA
ATOM     70  H31 UNL     1      75.772  62.302  99.758  0.00  0.00    +0.000 HD
ENDBRANCH   4  69
BRANCH   9  71
ATOM     71  O6  UNL     1      74.200  59.052 102.907  0.00  0.00    +0.000 OA
ATOM     72  H35 UNL     1      73.711  59.203 102.055  0.00  0.00    +0.000 HD
ENDBRANCH   9  71
BRANCH  26  73
ATOM     73  O10 UNL     1      74.261  68.115 103.624  0.00  0.00    +0.000 OA
ATOM     74  H50 UNL     1      73.464  68.358 104.161  0.00  0.00    +0.000 HD
ENDBRANCH  26  73
BRANCH  31  75
ATOM     75  C47 UNL     1      77.453  64.041 107.020  0.00  0.00    +0.000 C 
ATOM     76  C48 UNL     1      77.923  63.873 108.475  0.00  0.00    +0.000 C 
BRANCH  75  77
ATOM     77  O13 UNL     1      76.068  64.258 106.956  0.00  0.00    +0.000 OA
ATOM     78  H59 UNL     1      75.889  65.175 107.282  0.00  0.00    +0.000 HD
ENDBRANCH  75  77
ENDBRANCH  31  75
BRANCH  16  79
ATOM     79  C57 UNL     1      70.699  62.721 106.006  0.00  0.00    +0.000 C 
ATOM     80  C58 UNL     1      70.342  61.596 105.017  0.00  0.00    +0.000 C 
BRANCH  79  81
ATOM     81  O17 UNL     1      69.513  63.339 106.440  0.00  0.00    +0.000 OA
ATOM     82  H73 UNL     1      68.996  62.672 106.966  0.00  0.00    +0.000 HD
ENDBRANCH  79  81
ENDBRANCH  16  79
BRANCH  20  83
ATOM     83  C49 UNL     1      71.856  66.977 108.801  0.00  0.00    +0.000 C 
BRANCH  83  84
ATOM     84  O14 UNL     1      71.151  66.395 109.870  0.00  0.00    +0.000 OA
ATOM     85  H61 UNL     1      70.528  65.728 109.477  0.00  0.00    +0.000 HD
ENDBRANCH  83  84
BRANCH  83  86
ATOM     86  C50 UNL     1      70.852  67.398 107.700  0.00  0.00    +0.000 C 
BRANCH  86  87
ATOM     87  C51 UNL     1      70.828  68.906 107.553  0.00  0.00    +0.000 A 
ATOM     88  C52 UNL     1      71.896  69.682 108.035  0.00  0.00    +0.000 A 
ATOM     89  C53 UNL     1      71.891  71.071 107.870  0.00  0.00    +0.000 A 
ATOM     90  C54 UNL     1      70.823  71.699 107.216  0.00  0.00    +0.000 A 
ATOM     91  C55 UNL     1      69.760  70.932 106.728  0.00  0.00    +0.000 A 
ATOM     92  C56 UNL     1      69.763  69.544 106.893  0.00  0.00    +0.000 A 
BRANCH  90  93
ATOM     93  O16 UNL     1      70.810  73.081 107.041  0.00  0.00    +0.000 OA
ATOM     94  H66 UNL     1      70.669  73.713 107.820  0.00  0.00    +0.000 HD
ENDBRANCH  90  93
ENDBRANCH  86  87
BRANCH  86  95
ATOM     95  O15 UNL     1      71.208  66.816 106.470  0.00  0.00    +0.000 OA
ATOM     96  H63 UNL     1      71.173  65.833 106.598  0.00  0.00    +0.000 HD
ENDBRANCH  86  95
ENDBRANCH  83  86
ENDBRANCH  20  83
TORSDOF 23
ENDMDL
MODEL 2
REMARK VINA RESULT:      -7.4      9.949     15.036
REMARK  Name = ./S4286.pdb
REMARK  27 active torsions:
REMARK  status: ('A' for Active; 'I' for Inactive)
REMARK    1  A    between atoms: C1_1  and  C2_2
REMARK    2  A    between atoms: C2_2  and  C3_3
REMARK    3  A    between atoms: C3_3  and  C4_4
REMARK    4  A    between atoms: C4_4  and  C5_5
REMARK    5  A    between atoms: C5_5  and  O1_6
REMARK    6  A    between atoms: O1_6  and  C6_7
REMARK    7  A    between atoms: C9_10  and  C12_13
REMARK    8  A    between atoms: C15_16  and  C18_19
REMARK    9  A    between atoms: C21_22  and  C24_25
REMARK   10  A    between atoms: N1_27  and  C25_28
REMARK   11  A    between atoms: C27_30  and  O3_31
REMARK   12  A    between atoms: C28_32  and  O4_33
REMARK   13  A    between atoms: C31_38  and  O6_39
REMARK   14  A    between atoms: C32_40  and  C33_41
REMARK   15  A    between atoms: C36_46  and  C57_80
REMARK   16  A    between atoms: C38_50  and  C49_69
REMARK   17  A    between atoms: C42_56  and  O10_57
REMARK   18  A    between atoms: C45_62  and  C47_66
REMARK   19  A    between atoms: C47_66  and  C48_67
REMARK   20  A    between atoms: C47_66  and  O13_68
REMARK   21  A    between atoms: C49_69  and  O14_70
REMARK   22  A    between atoms: C49_69  and  C50_71
REMARK   23  A    between atoms: C50_71  and  O15_72
REMARK   24  A    between atoms: C50_71  and  C51_73
REMARK   25  A    between atoms: C54_76  and  O16_77
REMARK   26  A    between atoms: C57_80  and  C58_81
REMARK   27  A    between atoms: C57_80  and  O17_82
REMARK                            x       y       z     vdW  Elec       q    Type
REMARK                         _______ _______ _______ _____ _____    ______ ____
ROOT
ATOM      1  C25 UNL     1      74.217  68.252 107.211  0.00  0.00    +0.000 C 
ATOM      2  C26 UNL     1      72.745  68.686 107.466  0.00  0.00    +0.000 C 
ATOM      3  C27 UNL     1      71.904  68.700 106.168  0.00  0.00    +0.000 C 
ATOM      4  C28 UNL     1      70.465  69.218 106.389  0.00  0.00    +0.000 C 
ATOM      5  N2  UNL     1      70.445  70.666 106.615  0.00  0.00    +0.000 N 
ATOM      6  C29 UNL     1      69.224  71.423 106.558  0.00  0.00    +0.000 C 
ATOM      7  O5  UNL     1      68.130  70.847 106.313  0.00  0.00    +0.000 OA
ATOM      8  C30 UNL     1      69.235  72.913 106.784  0.00  0.00    +0.000 C 
ATOM      9  C31 UNL     1      69.668  73.251 108.222  0.00  0.00    +0.000 C 
ATOM     10  C32 UNL     1      70.633  74.435 108.081  0.00  0.00    +0.000 C 
ATOM     11  C33 UNL     1      71.753  74.414 109.130  0.00  0.00    +0.000 C 
ATOM     12  C34 UNL     1      71.172  74.353 106.655  0.00  0.00    +0.000 C 
ATOM     13  N3  UNL     1      70.193  73.580 105.907  0.00  0.00    +0.000 N 
ATOM     14  C35 UNL     1      70.105  73.534 104.463  0.00  0.00    +0.000 C 
ATOM     15  O7  UNL     1      69.478  72.589 103.914  0.00  0.00    +0.000 OA
ATOM     16  C36 UNL     1      70.677  74.624 103.567  0.00  0.00    +0.000 C 
ATOM     17  N4  UNL     1      72.133  74.732 103.768  0.00  0.00    +0.000 N 
ATOM     18  C37 UNL     1      72.969  75.690 103.092  0.00  0.00    +0.000 C 
ATOM     19  O8  UNL     1      72.659  76.911 103.119  0.00  0.00    +0.000 OA
ATOM     20  C38 UNL     1      74.275  75.298 102.418  0.00  0.00    +0.000 C 
ATOM     21  N5  UNL     1      74.558  73.860 102.520  0.00  0.00    +0.000 N 
ATOM     22  C39 UNL     1      75.899  73.338 102.476  0.00  0.00    +0.000 C 
ATOM     23  O9  UNL     1      76.880  74.118 102.352  0.00  0.00    +0.000 OA
ATOM     24  C40 UNL     1      76.150  71.858 102.610  0.00  0.00    +0.000 C 
ATOM     25  C41 UNL     1      75.357  71.043 101.578  0.00  0.00    +0.000 C 
ATOM     26  C42 UNL     1      74.446  70.103 102.378  0.00  0.00    +0.000 C 
ATOM     27  C43 UNL     1      74.583  70.496 103.851  0.00  0.00    +0.000 C 
ATOM     28  N6  UNL     1      75.717  71.402 103.927  0.00  0.00    +0.000 N 
ATOM     29  C44 UNL     1      76.535  71.584 105.107  0.00  0.00    +0.000 C 
ATOM     30  O11 UNL     1      77.780  71.724 104.966  0.00  0.00    +0.000 OA
ATOM     31  C45 UNL     1      75.970  71.696 106.517  0.00  0.00    +0.000 C 
ATOM     32  N7  UNL     1      74.925  70.698 106.770  0.00  0.00    +0.000 N 
ATOM     33  C46 UNL     1      75.231  69.380 107.264  0.00  0.00    +0.000 C 
ATOM     34  O12 UNL     1      76.404  69.120 107.651  0.00  0.00    +0.000 OA
ATOM     35  H32 UNL     1      71.342  71.184 106.758  0.00  0.00    +0.000 HD
ATOM     36  H43 UNL     1      72.610  73.935 104.241  0.00  0.00    +0.000 HD
ATOM     37  H45 UNL     1      73.768  73.180 102.505  0.00  0.00    +0.000 HD
ATOM     38  H54 UNL     1      73.940  70.938 106.523  0.00  0.00    +0.000 HD
ENDROOT
BRANCH   1  41
ATOM     39  C24 UNL     1      74.404  67.265 109.569  0.00  0.00    +0.000 C 
ATOM     40  O2  UNL     1      73.739  68.222 110.055  0.00  0.00    +0.000 OA
ATOM     41  N1  UNL     1      74.594  67.180 108.143  0.00  0.00    +0.000 N 
ATOM     42  H24 UNL     1      74.992  66.307 107.732  0.00  0.00    +0.000 HD
BRANCH  39  46
ATOM     43  C18 UNL     1      76.040  64.259 112.189  0.00  0.00    +0.000 A 
ATOM     44  C19 UNL     1      75.334  65.354 112.715  0.00  0.00    +0.000 A 
ATOM     45  C20 UNL     1      74.799  66.330 111.869  0.00  0.00    +0.000 A 
ATOM     46  C21 UNL     1      74.966  66.236 110.476  0.00  0.00    +0.000 A 
ATOM     47  C22 UNL     1      75.657  65.133 109.949  0.00  0.00    +0.000 A 
ATOM     48  C23 UNL     1      76.191  64.157 110.795  0.00  0.00    +0.000 A 
BRANCH  43  52
ATOM     49  C12 UNL     1      77.731  61.287 114.815  0.00  0.00    +0.000 A 
ATOM     50  C13 UNL     1      78.034  61.285 113.443  0.00  0.00    +0.000 A 
ATOM     51  C14 UNL     1      77.479  62.245 112.591  0.00  0.00    +0.000 A 
ATOM     52  C15 UNL     1      76.609  63.227 113.092  0.00  0.00    +0.000 A 
ATOM     53  C16 UNL     1      76.298  63.225 114.462  0.00  0.00    +0.000 A 
ATOM     54  C17 UNL     1      76.854  62.266 115.315  0.00  0.00    +0.000 A 
BRANCH  49  58
ATOM     55  C6  UNL     1      79.484  58.401 117.491  0.00  0.00    +0.000 A 
ATOM     56  C7  UNL     1      78.218  58.169 116.921  0.00  0.00    +0.000 A 
ATOM     57  C8  UNL     1      77.656  59.100 116.045  0.00  0.00    +0.000 A 
ATOM     58  C9  UNL     1      78.344  60.283 115.722  0.00  0.00    +0.000 A 
ATOM     59  C10 UNL     1      79.614  60.506 116.285  0.00  0.00    +0.000 A 
ATOM     60  C11 UNL     1      80.176  59.570 117.158  0.00  0.00    +0.000 A 
BRANCH  55  61
ATOM     61  O1  UNL     1      80.083  57.503 118.387  0.00  0.00    +0.000 OA
BRANCH  61  62
ATOM     62  C5  UNL     1      80.445  56.164 118.059  0.00  0.00    +0.000 C 
BRANCH  62  63
ATOM     63  C4  UNL     1      81.752  56.169 117.266  0.00  0.00    +0.000 C 
BRANCH  63  64
ATOM     64  C3  UNL     1      81.552  55.889 115.761  0.00  0.00    +0.000 C 
BRANCH  64  66
ATOM     65  C1  UNL     1      80.544  57.547 114.077  0.00  0.00    +0.000 C 
ATOM     66  C2  UNL     1      81.789  57.109 114.849  0.00  0.00    +0.000 C 
ENDBRANCH  64  66
ENDBRANCH  63  64
ENDBRANCH  62  63
ENDBRANCH  61  62
ENDBRANCH  55  61
ENDBRANCH  49  58
ENDBRANCH  43  52
ENDBRANCH  39  46
ENDBRANCH   1  41
BRANCH   3  67
ATOM     67  O3  UNL     1      71.846  67.394 105.653  0.00  0.00    +0.000 OA
ATOM     68  H29 UNL     1      72.668  67.259 105.109  0.00  0.00    +0.000 HD
ENDBRANCH   3  67
BRANCH   4  69
ATOM     69  O4  UNL     1      69.877  68.552 107.479  0.00  0.00    +0.000 OA
ATOM     70  H31 UNL     1      70.011  69.122 108.279  0.00  0.00    +0.000 HD
ENDBRANCH   4  69
BRANCH   9  71
ATOM     71  O6  UNL     1      68.566  73.615 109.010  0.00  0.00    +0.000 OA
ATOM     72  H35 UNL     1      68.171  74.422 108.584  0.00  0.00    +0.000 HD
ENDBRANCH   9  71
BRANCH  26  73
ATOM     73  O10 UNL     1      73.111  70.152 101.938  0.00  0.00    +0.000 OA
ATOM     74  H50 UNL     1      72.701  70.983 102.291  0.00  0.00    +0.000 HD
ENDBRANCH  26  73
BRANCH  31  75
ATOM     75  C47 UNL     1      75.453  73.117 106.841  0.00  0.00    +0.000 C 
ATOM     76  C48 UNL     1      76.593  74.106 107.138  0.00  0.00    +0.000 C 
BRANCH  75  77
ATOM     77  O13 UNL     1      74.618  73.597 105.821  0.00  0.00    +0.000 OA
ATOM     78  H59 UNL     1      75.027  74.422 105.457  0.00  0.00    +0.000 HD
ENDBRANCH  75  77
ENDBRANCH  31  75
BRANCH  16  79
ATOM     79  C57 UNL     1      69.933  75.992 103.737  0.00  0.00    +0.000 C 
ATOM     80  C58 UNL     1      68.579  75.886 104.464  0.00  0.00    +0.000 C 
BRANCH  79  81
ATOM     81  O17 UNL     1      69.729  76.597 102.484  0.00  0.00    +0.000 OA
ATOM     82  H73 UNL     1      69.242  75.950 101.908  0.00  0.00    +0.000 HD
ENDBRANCH  79  81
ENDBRANCH  16  79
BRANCH  20  83
ATOM     83  C49 UNL     1      74.331  75.753 100.933  0.00  0.00    +0.000 C 
BRANCH  83  84
ATOM     84  O14 UNL     1      74.377  77.157 100.869  0.00  0.00    +0.000 OA
ATOM     85  H61 UNL     1      73.625  77.497 101.423  0.00  0.00    +0.000 HD
ENDBRANCH  83  84
BRANCH  83  86
ATOM     86  C50 UNL     1      73.140  75.244 100.083  0.00  0.00    +0.000 C 
BRANCH  86  87
ATOM     87  C51 UNL     1      72.895  76.169  98.908  0.00  0.00    +0.000 A 
ATOM     88  C52 UNL     1      71.705  76.913  98.828  0.00  0.00    +0.000 A 
ATOM     89  C53 UNL     1      71.492  77.793  97.762  0.00  0.00    +0.000 A 
ATOM     90  C54 UNL     1      72.468  77.945  96.768  0.00  0.00    +0.000 A 
ATOM     91  C55 UNL     1      73.657  77.212  96.845  0.00  0.00    +0.000 A 
ATOM     92  C56 UNL     1      73.871  76.332  97.909  0.00  0.00    +0.000 A 
BRANCH  90  93
ATOM     93  O16 UNL     1      72.269  78.822  95.704  0.00  0.00    +0.000 OA
ATOM     94  H66 UNL     1      71.644  78.595  94.940  0.00  0.00    +0.000 HD
ENDBRANCH  90  93
ENDBRANCH  86  87
BRANCH  86  95
ATOM     95  O15 UNL     1      73.403  73.947  99.607  0.00  0.00    +0.000 OA
ATOM     96  H63 UNL     1      74.088  74.036  98.894  0.00  0.00    +0.000 HD
ENDBRANCH  86  95
ENDBRANCH  83  86
ENDBRANCH  20  83
TORSDOF 23
ENDMDL
MODEL 3
REMARK VINA RESULT:      -7.3     10.022     15.002
REMARK  Name = ./S4286.pdb
REMARK  27 active torsions:
REMARK  status: ('A' for Active; 'I' for Inactive)
REMARK    1  A    between atoms: C1_1  and  C2_2
REMARK    2  A    between atoms: C2_2  and  C3_3
REMARK    3  A    between atoms: C3_3  and  C4_4
REMARK    4  A    between atoms: C4_4  and  C5_5
REMARK    5  A    between atoms: C5_5  and  O1_6
REMARK    6  A    between atoms: O1_6  and  C6_7
REMARK    7  A    between atoms: C9_10  and  C12_13
REMARK    8  A    between atoms: C15_16  and  C18_19
REMARK    9  A    between atoms: C21_22  and  C24_25
REMARK   10  A    between atoms: N1_27  and  C25_28
REMARK   11  A    between atoms: C27_30  and  O3_31
REMARK   12  A    between atoms: C28_32  and  O4_33
REMARK   13  A    between atoms: C31_38  and  O6_39
REMARK   14  A    between atoms: C32_40  and  C33_41
REMARK   15  A    between atoms: C36_46  and  C57_80
REMARK   16  A    between atoms: C38_50  and  C49_69
REMARK   17  A    between atoms: C42_56  and  O10_57
REMARK   18  A    between atoms: C45_62  and  C47_66
REMARK   19  A    between atoms: C47_66  and  C48_67
REMARK   20  A    between atoms: C47_66  and  O13_68
REMARK   21  A    between atoms: C49_69  and  O14_70
REMARK   22  A    between atoms: C49_69  and  C50_71
REMARK   23  A    between atoms: C50_71  and  O15_72
REMARK   24  A    between atoms: C50_71  and  C51_73
REMARK   25  A    between atoms: C54_76  and  O16_77
REMARK   26  A    between atoms: C57_80  and  C58_81
REMARK   27  A    between atoms: C57_80  and  O17_82
REMARK                            x       y       z     vdW  Elec       q    Type
REMARK                         _______ _______ _______ _____ _____    ______ ____
ROOT
ATOM      1  C25 UNL     1      74.220  68.270 106.817  0.00  0.00    +0.000 C 
ATOM      2  C26 UNL     1      72.782  68.734 107.190  0.00  0.00    +0.000 C 
ATOM      3  C27 UNL     1      71.863  68.845 105.952  0.00  0.00    +0.000 C 
ATOM      4  C28 UNL     1      70.458  69.392 106.292  0.00  0.00    +0.000 C 
ATOM      5  N2  UNL     1      70.501  70.825 106.597  0.00  0.00    +0.000 N 
ATOM      6  C29 UNL     1      69.305  71.621 106.660  0.00  0.00    +0.000 C 
ATOM      7  O5  UNL     1      68.179  71.092 106.455  0.00  0.00    +0.000 OA
ATOM      8  C30 UNL     1      69.379  73.094 106.965  0.00  0.00    +0.000 C 
ATOM      9  C31 UNL     1      69.913  73.338 108.388  0.00  0.00    +0.000 C 
ATOM     10  C32 UNL     1      70.906  74.499 108.249  0.00  0.00    +0.000 C 
ATOM     11  C33 UNL     1      72.088  74.386 109.221  0.00  0.00    +0.000 C 
ATOM     12  C34 UNL     1      71.351  74.481 106.789  0.00  0.00    +0.000 C 
ATOM     13  N3  UNL     1      70.303  73.780 106.065  0.00  0.00    +0.000 N 
ATOM     14  C35 UNL     1      70.123  73.818 104.629  0.00  0.00    +0.000 C 
ATOM     15  O7  UNL     1      69.432  72.924 104.072  0.00  0.00    +0.000 OA
ATOM     16  C36 UNL     1      70.673  74.939 103.758  0.00  0.00    +0.000 C 
ATOM     17  N4  UNL     1      72.142  74.993 103.871  0.00  0.00    +0.000 N 
ATOM     18  C37 UNL     1      72.965  75.961 103.195  0.00  0.00    +0.000 C 
ATOM     19  O8  UNL     1      72.698  77.187 103.308  0.00  0.00    +0.000 OA
ATOM     20  C38 UNL     1      74.213  75.568 102.418  0.00  0.00    +0.000 C 
ATOM     21  N5  UNL     1      74.454  74.120 102.424  0.00  0.00    +0.000 N 
ATOM     22  C39 UNL     1      75.771  73.561 102.265  0.00  0.00    +0.000 C 
ATOM     23  O9  UNL     1      76.767  74.318 102.121  0.00  0.00    +0.000 OA
ATOM     24  C40 UNL     1      75.980  72.069 102.303  0.00  0.00    +0.000 C 
ATOM     25  C41 UNL     1      75.098  71.337 101.281  0.00  0.00    +0.000 C 
ATOM     26  C42 UNL     1      74.208  70.382 102.087  0.00  0.00    +0.000 C 
ATOM     27  C43 UNL     1      74.450  70.687 103.567  0.00  0.00    +0.000 C 
ATOM     28  N6  UNL     1      75.615  71.553 103.619  0.00  0.00    +0.000 N 
ATOM     29  C44 UNL     1      76.512  71.644 104.752  0.00  0.00    +0.000 C 
ATOM     30  O11 UNL     1      77.750  71.755 104.538  0.00  0.00    +0.000 OA
ATOM     31  C45 UNL     1      76.040  71.694 106.198  0.00  0.00    +0.000 C 
ATOM     32  N7  UNL     1      74.981  70.715 106.465  0.00  0.00    +0.000 N 
ATOM     33  C46 UNL     1      75.273  69.362 106.865  0.00  0.00    +0.000 C 
ATOM     34  O12 UNL     1      76.459  69.047 107.162  0.00  0.00    +0.000 OA
ATOM     35  H32 UNL     1      71.422  71.307 106.709  0.00  0.00    +0.000 HD
ATOM     36  H43 UNL     1      72.620  74.156 104.269  0.00  0.00    +0.000 HD
ATOM     37  H45 UNL     1      73.641  73.466 102.423  0.00  0.00    +0.000 HD
ATOM     38  H54 UNL     1      73.990  70.998 106.294  0.00  0.00    +0.000 HD
ENDROOT
BRANCH   1  41
ATOM     39  C24 UNL     1      74.701  67.211 109.101  0.00  0.00    +0.000 C 
ATOM     40  O2  UNL     1      74.261  68.230 109.701  0.00  0.00    +0.000 OA
ATOM     41  N1  UNL     1      74.620  67.137 107.664  0.00  0.00    +0.000 N 
ATOM     42  H24 UNL     1      74.822  66.232 107.187  0.00  0.00    +0.000 HD
BRANCH  39  46
ATOM     43  C18 UNL     1      76.390  63.962 111.375  0.00  0.00    +0.000 A 
ATOM     44  C19 UNL     1      75.645  64.968 112.015  0.00  0.00    +0.000 A 
ATOM     45  C20 UNL     1      75.093  66.021 111.281  0.00  0.00    +0.000 A 
ATOM     46  C21 UNL     1      75.281  66.098 109.890  0.00  0.00    +0.000 A 
ATOM     47  C22 UNL     1      76.010  65.084 109.248  0.00  0.00    +0.000 A 
ATOM     48  C23 UNL     1      76.562  64.029 109.982  0.00  0.00    +0.000 A 
BRANCH  43  52
ATOM     49  C12 UNL     1      78.136  60.746 113.656  0.00  0.00    +0.000 A 
ATOM     50  C13 UNL     1      78.323  60.821 112.265  0.00  0.00    +0.000 A 
ATOM     51  C14 UNL     1      77.750  61.860 111.526  0.00  0.00    +0.000 A 
ATOM     52  C15 UNL     1      76.977  62.847 112.160  0.00  0.00    +0.000 A 
ATOM     53  C16 UNL     1      76.783  62.768 113.549  0.00  0.00    +0.000 A 
ATOM     54  C17 UNL     1      77.356  61.730 114.290  0.00  0.00    +0.000 A 
BRANCH  49  58
ATOM     55  C6  UNL     1      79.921  57.562 115.943  0.00  0.00    +0.000 A 
ATOM     56  C7  UNL     1      79.756  57.434 114.551  0.00  0.00    +0.000 A 
ATOM     57  C8  UNL     1      79.186  58.472 113.810  0.00  0.00    +0.000 A 
ATOM     58  C9  UNL     1      78.769  59.657 114.442  0.00  0.00    +0.000 A 
ATOM     59  C10 UNL     1      78.947  59.784 115.831  0.00  0.00    +0.000 A 
ATOM     60  C11 UNL     1      79.520  58.746 116.571  0.00  0.00    +0.000 A 
BRANCH  55  61
ATOM     61  O1  UNL     1      80.473  56.542 116.733  0.00  0.00    +0.000 OA
BRANCH  61  62
ATOM     62  C5  UNL     1      79.757  55.832 117.740  0.00  0.00    +0.000 C 
BRANCH  62  63
ATOM     63  C4  UNL     1      78.638  55.017 117.091  0.00  0.00    +0.000 C 
BRANCH  63  64
ATOM     64  C3  UNL     1      77.247  55.676 117.224  0.00  0.00    +0.000 C 
BRANCH  64  66
ATOM     65  C1  UNL     1      76.039  57.403 115.755  0.00  0.00    +0.000 C 
ATOM     66  C2  UNL     1      76.550  55.968 115.880  0.00  0.00    +0.000 C 
ENDBRANCH  64  66
ENDBRANCH  63  64
ENDBRANCH  62  63
ENDBRANCH  61  62
ENDBRANCH  55  61
ENDBRANCH  49  58
ENDBRANCH  43  52
ENDBRANCH  39  46
ENDBRANCH   1  41
BRANCH   3  67
ATOM     67  O3  UNL     1      71.730  67.572 105.371  0.00  0.00    +0.000 OA
ATOM     68  H29 UNL     1      71.460  67.710 104.424  0.00  0.00    +0.000 HD
ENDBRANCH   3  67
BRANCH   4  69
ATOM     69  O4  UNL     1      69.918  68.684 107.380  0.00  0.00    +0.000 OA
ATOM     70  H31 UNL     1      69.639  69.353 108.057  0.00  0.00    +0.000 HD
ENDBRANCH   4  69
BRANCH   9  71
ATOM     71  O6  UNL     1      68.875  73.690 109.263  0.00  0.00    +0.000 OA
ATOM     72  H35 UNL     1      68.746  72.915 109.872  0.00  0.00    +0.000 HD
ENDBRANCH   9  71
BRANCH  26  73
ATOM     73  O10 UNL     1      72.850  70.494 101.737  0.00  0.00    +0.000 OA
ATOM     74  H50 UNL     1      72.651  69.806 101.052  0.00  0.00    +0.000 HD
ENDBRANCH  26  73
BRANCH  31  75
ATOM     75  C47 UNL     1      75.592  73.109 106.632  0.00  0.00    +0.000 C 
ATOM     76  C48 UNL     1      75.704  73.325 108.151  0.00  0.00    +0.000 C 
BRANCH  75  77
ATOM     77  O13 UNL     1      76.293  74.100 105.927  0.00  0.00    +0.000 OA
ATOM     78  H59 UNL     1      77.076  73.672 105.498  0.00  0.00    +0.000 HD
ENDBRANCH  75  77
ENDBRANCH  31  75
BRANCH  16  79
ATOM     79  C57 UNL     1      69.987  76.317 104.050  0.00  0.00    +0.000 C 
ATOM     80  C58 UNL     1      68.627  76.204 104.763  0.00  0.00    +0.000 C 
BRANCH  79  81
ATOM     81  O17 UNL     1      69.816  77.040 102.855  0.00  0.00    +0.000 OA
ATOM     82  H73 UNL     1      69.833  78.008 103.079  0.00  0.00    +0.000 HD
ENDBRANCH  79  81
ENDBRANCH  16  79
BRANCH  20  83
ATOM     83  C49 UNL     1      74.190  76.104 100.959  0.00  0.00    +0.000 C 
BRANCH  83  84
ATOM     84  O14 UNL     1      74.147  77.510 100.971  0.00  0.00    +0.000 OA
ATOM     85  H61 UNL     1      75.085  77.828 101.055  0.00  0.00    +0.000 HD
ENDBRANCH  83  84
BRANCH  83  86
ATOM     86  C50 UNL     1      73.006  75.567 100.118  0.00  0.00    +0.000 C 
BRANCH  86  87
ATOM     87  C51 UNL     1      72.748  76.468  98.929  0.00  0.00    +0.000 A 
ATOM     88  C52 UNL     1      73.697  76.571  97.897  0.00  0.00    +0.000 A 
ATOM     89  C53 UNL     1      73.445  77.377  96.782  0.00  0.00    +0.000 A 
ATOM     90  C54 UNL     1      72.239  78.084  96.682  0.00  0.00    +0.000 A 
ATOM     91  C55 UNL     1      71.287  77.981  97.702  0.00  0.00    +0.000 A 
ATOM     92  C56 UNL     1      71.538  77.177  98.817  0.00  0.00    +0.000 A 
BRANCH  90  93
ATOM     93  O16 UNL     1      71.975  78.885  95.574  0.00  0.00    +0.000 OA
ATOM     94  H66 UNL     1      72.532  78.823  94.730  0.00  0.00    +0.000 HD
ENDBRANCH  90  93
ENDBRANCH  86  87
BRANCH  86  95
ATOM     95  O15 UNL     1      73.284  74.265  99.665  0.00  0.00    +0.000 OA
ATOM     96  H63 UNL     1      73.441  74.330  98.687  0.00  0.00    +0.000 HD
ENDBRANCH  86  95
ENDBRANCH  83  86
ENDBRANCH  20  83
TORSDOF 23
ENDMDL
MODEL 4
REMARK VINA RESULT:      -7.2      6.581     16.905
REMARK  Name = ./S4286.pdb
REMARK  27 active torsions:
REMARK  status: ('A' for Active; 'I' for Inactive)
REMARK    1  A    between atoms: C1_1  and  C2_2
REMARK    2  A    between atoms: C2_2  and  C3_3
REMARK    3  A    between atoms: C3_3  and  C4_4
REMARK    4  A    between atoms: C4_4  and  C5_5
REMARK    5  A    between atoms: C5_5  and  O1_6
REMARK    6  A    between atoms: O1_6  and  C6_7
REMARK    7  A    between atoms: C9_10  and  C12_13
REMARK    8  A    between atoms: C15_16  and  C18_19
REMARK    9  A    between atoms: C21_22  and  C24_25
REMARK   10  A    between atoms: N1_27  and  C25_28
REMARK   11  A    between atoms: C27_30  and  O3_31
REMARK   12  A    between atoms: C28_32  and  O4_33
REMARK   13  A    between atoms: C31_38  and  O6_39
REMARK   14  A    between atoms: C32_40  and  C33_41
REMARK   15  A    between atoms: C36_46  and  C57_80
REMARK   16  A    between atoms: C38_50  and  C49_69
REMARK   17  A    between atoms: C42_56  and  O10_57
REMARK   18  A    between atoms: C45_62  and  C47_66
REMARK   19  A    between atoms: C47_66  and  C48_67
REMARK   20  A    between atoms: C47_66  and  O13_68
REMARK   21  A    between atoms: C49_69  and  O14_70
REMARK   22  A    between atoms: C49_69  and  C50_71
REMARK   23  A    between atoms: C50_71  and  O15_72
REMARK   24  A    between atoms: C50_71  and  C51_73
REMARK   25  A    between atoms: C54_76  and  O16_77
REMARK   26  A    between atoms: C57_80  and  C58_81
REMARK   27  A    between atoms: C57_80  and  O17_82
REMARK                            x       y       z     vdW  Elec       q    Type
REMARK                         _______ _______ _______ _____ _____    ______ ____
ROOT
ATOM      1  C25 UNL     1      73.540  66.820 105.761  0.00  0.00    +0.000 C 
ATOM      2  C26 UNL     1      72.774  65.484 105.539  0.00  0.00    +0.000 C 
ATOM      3  C27 UNL     1      73.083  64.441 106.638  0.00  0.00    +0.000 C 
ATOM      4  C28 UNL     1      72.402  63.078 106.384  0.00  0.00    +0.000 C 
ATOM      5  N2  UNL     1      73.046  62.354 105.283  0.00  0.00    +0.000 N 
ATOM      6  C29 UNL     1      72.791  60.961 105.043  0.00  0.00    +0.000 C 
ATOM      7  O5  UNL     1      71.992  60.324 105.783  0.00  0.00    +0.000 OA
ATOM      8  C30 UNL     1      73.475  60.239 103.910  0.00  0.00    +0.000 C 
ATOM      9  C31 UNL     1      73.039  60.808 102.548  0.00  0.00    +0.000 C 
ATOM     10  C32 UNL     1      74.329  60.910 101.725  0.00  0.00    +0.000 C 
ATOM     11  C33 UNL     1      74.328  62.109 100.768  0.00  0.00    +0.000 C 
ATOM     12  C34 UNL     1      75.460  60.985 102.748  0.00  0.00    +0.000 C 
ATOM     13  N3  UNL     1      74.925  60.405 103.971  0.00  0.00    +0.000 N 
ATOM     14  C35 UNL     1      75.724  59.954 105.090  0.00  0.00    +0.000 C 
ATOM     15  O7  UNL     1      75.178  59.803 106.215  0.00  0.00    +0.000 OA
ATOM     16  C36 UNL     1      77.194  59.580 104.956  0.00  0.00    +0.000 C 
ATOM     17  N4  UNL     1      77.972  60.742 104.490  0.00  0.00    +0.000 N 
ATOM     18  C37 UNL     1      79.388  60.711 104.234  0.00  0.00    +0.000 C 
ATOM     19  O8  UNL     1      79.861  59.821 103.477  0.00  0.00    +0.000 OA
ATOM     20  C38 UNL     1      80.335  61.775 104.767  0.00  0.00    +0.000 C 
ATOM     21  N5  UNL     1      79.650  62.794 105.572  0.00  0.00    +0.000 N 
ATOM     22  C39 UNL     1      80.165  64.131 105.715  0.00  0.00    +0.000 C 
ATOM     23  O9  UNL     1      81.233  64.465 105.138  0.00  0.00    +0.000 OA
ATOM     24  C40 UNL     1      79.418  65.157 106.529  0.00  0.00    +0.000 C 
ATOM     25  C41 UNL     1      79.141  64.668 107.958  0.00  0.00    +0.000 C 
ATOM     26  C42 UNL     1      77.615  64.664 108.123  0.00  0.00    +0.000 C 
ATOM     27  C43 UNL     1      77.017  64.977 106.750  0.00  0.00    +0.000 C 
ATOM     28  N6  UNL     1      78.120  65.422 105.916  0.00  0.00    +0.000 N 
ATOM     29  C44 UNL     1      77.977  66.310 104.782  0.00  0.00    +0.000 C 
ATOM     30  O11 UNL     1      78.857  67.191 104.586  0.00  0.00    +0.000 OA
ATOM     31  C45 UNL     1      76.857  66.193 103.756  0.00  0.00    +0.000 C 
ATOM     32  N7  UNL     1      75.555  65.961 104.389  0.00  0.00    +0.000 N 
ATOM     33  C46 UNL     1      74.711  67.045 104.821  0.00  0.00    +0.000 C 
ATOM     34  O12 UNL     1      75.011  68.229 104.502  0.00  0.00    +0.000 OA
ATOM     35  H32 UNL     1      73.761  62.836 104.690  0.00  0.00    +0.000 HD
ATOM     36  H43 UNL     1      77.523  61.680 104.572  0.00  0.00    +0.000 HD
ATOM     37  H45 UNL     1      78.831  62.520 106.156  0.00  0.00    +0.000 HD
ATOM     38  H54 UNL     1      75.268  64.976 104.585  0.00  0.00    +0.000 HD
ENDROOT
BRANCH   1  41
ATOM     39  C24 UNL     1      71.921  68.484 106.847  0.00  0.00    +0.000 C 
ATOM     40  O2  UNL     1      72.238  68.086 108.002  0.00  0.00    +0.000 OA
ATOM     41  N1  UNL     1      72.607  67.953 105.695  0.00  0.00    +0.000 N 
ATOM     42  H24 UNL     1      72.466  68.404 104.765  0.00  0.00    +0.000 HD
BRANCH  39  46
ATOM     43  C18 UNL     1      68.823  71.446 106.391  0.00  0.00    +0.000 A 
ATOM     44  C19 UNL     1      69.845  71.624 107.339  0.00  0.00    +0.000 A 
ATOM     45  C20 UNL     1      70.853  70.668 107.488  0.00  0.00    +0.000 A 
ATOM     46  C21 UNL     1      70.858  69.506 106.697  0.00  0.00    +0.000 A 
ATOM     47  C22 UNL     1      69.847  69.335 105.737  0.00  0.00    +0.000 A 
ATOM     48  C23 UNL     1      68.838  70.292 105.588  0.00  0.00    +0.000 A 
BRANCH  43  52
ATOM     49  C12 UNL     1      65.690  74.371 105.923  0.00  0.00    +0.000 A 
ATOM     50  C13 UNL     1      66.685  74.223 104.940  0.00  0.00    +0.000 A 
ATOM     51  C14 UNL     1      67.703  73.279 105.097  0.00  0.00    +0.000 A 
ATOM     52  C15 UNL     1      67.753  72.463 106.239  0.00  0.00    +0.000 A 
ATOM     53  C16 UNL     1      66.764  72.616 107.226  0.00  0.00    +0.000 A 
ATOM     54  C17 UNL     1      65.743  73.559 107.069  0.00  0.00    +0.000 A 
BRANCH  49  58
ATOM     55  C6  UNL     1      62.509  77.216 105.335  0.00  0.00    +0.000 A 
ATOM     56  C7  UNL     1      62.221  75.848 105.499  0.00  0.00    +0.000 A 
ATOM     57  C8  UNL     1      63.253  74.928 105.701  0.00  0.00    +0.000 A 
ATOM     58  C9  UNL     1      64.593  75.355 105.740  0.00  0.00    +0.000 A 
ATOM     59  C10 UNL     1      64.875  76.724 105.586  0.00  0.00    +0.000 A 
ATOM     60  C11 UNL     1      63.840  77.643 105.388  0.00  0.00    +0.000 A 
BRANCH  55  61
ATOM     61  O1  UNL     1      61.509  78.175 105.114  0.00  0.00    +0.000 OA
BRANCH  61  62
ATOM     62  C5  UNL     1      61.352  78.905 103.900  0.00  0.00    +0.000 C 
BRANCH  62  63
ATOM     63  C4  UNL     1      60.990  77.942 102.769  0.00  0.00    +0.000 C 
BRANCH  63  64
ATOM     64  C3  UNL     1      62.166  77.661 101.808  0.00  0.00    +0.000 C 
BRANCH  64  66
ATOM     65  C1  UNL     1      64.134  76.023 102.019  0.00  0.00    +0.000 C 
ATOM     66  C2  UNL     1      62.632  76.192 101.785  0.00  0.00    +0.000 C 
ENDBRANCH  64  66
ENDBRANCH  63  64
ENDBRANCH  62  63
ENDBRANCH  61  62
ENDBRANCH  55  61
ENDBRANCH  49  58
ENDBRANCH  43  52
ENDBRANCH  39  46
ENDBRANCH   1  41
BRANCH   3  67
ATOM     67  O3  UNL     1      72.647  64.946 107.876  0.00  0.00    +0.000 OA
ATOM     68  H29 UNL     1      72.130  65.773 107.687  0.00  0.00    +0.000 HD
ENDBRANCH   3  67
BRANCH   4  69
ATOM     69  O4  UNL     1      71.037  63.268 106.102  0.00  0.00    +0.000 OA
ATOM     70  H31 UNL     1      70.555  63.262 106.968  0.00  0.00    +0.000 HD
ENDBRANCH   4  69
BRANCH   9  71
ATOM     71  O6  UNL     1      72.125  59.955 101.913  0.00  0.00    +0.000 OA
ATOM     72  H35 UNL     1      71.300  60.489 101.762  0.00  0.00    +0.000 HD
ENDBRANCH   9  71
BRANCH  26  73
ATOM     73  O10 UNL     1      77.138  63.448 108.645  0.00  0.00    +0.000 OA
ATOM     74  H50 UNL     1      77.850  62.767 108.539  0.00  0.00    +0.000 HD
ENDBRANCH  26  73
BRANCH  31  75
ATOM     75  C47 UNL     1      77.141  65.115 102.684  0.00  0.00    +0.000 C 
ATOM     76  C48 UNL     1      78.108  65.607 101.594  0.00  0.00    +0.000 C 
BRANCH  75  77
ATOM     77  O13 UNL     1      77.599  63.926 103.270  0.00  0.00    +0.000 OA
ATOM     78  H59 UNL     1      76.836  63.298 103.321  0.00  0.00    +0.000 HD
ENDBRANCH  75  77
ENDBRANCH  31  75
BRANCH  16  79
ATOM     79  C57 UNL     1      77.410  58.305 104.072  0.00  0.00    +0.000 C 
ATOM     80  C58 UNL     1      76.164  57.408 103.946  0.00  0.00    +0.000 C 
BRANCH  79  81
ATOM     81  O17 UNL     1      78.475  57.536 104.575  0.00  0.00    +0.000 OA
ATOM     82  H73 UNL     1      79.255  57.663 103.972  0.00  0.00    +0.000 HD
ENDBRANCH  79  81
ENDBRANCH  16  79
BRANCH  20  83
ATOM     83  C49 UNL     1      81.517  61.161 105.569  0.00  0.00    +0.000 C 
BRANCH  83  84
ATOM     84  O14 UNL     1      81.613  61.785 106.826  0.00  0.00    +0.000 OA
ATOM     85  H61 UNL     1      80.861  61.441 107.378  0.00  0.00    +0.000 HD
ENDBRANCH  83  84
BRANCH  83  86
ATOM     86  C50 UNL     1      82.881  61.267 104.844  0.00  0.00    +0.000 C 
BRANCH  86  87
ATOM     87  C51 UNL     1      84.018  61.235 105.845  0.00  0.00    +0.000 A 
ATOM     88  C52 UNL     1      84.311  60.054 106.548  0.00  0.00    +0.000 A 
ATOM     89  C53 UNL     1      85.381  60.014 107.447  0.00  0.00    +0.000 A 
ATOM     90  C54 UNL     1      86.175  61.151 107.649  0.00  0.00    +0.000 A 
ATOM     91  C55 UNL     1      85.893  62.328 106.947  0.00  0.00    +0.000 A 
ATOM     92  C56 UNL     1      84.824  62.370 106.048  0.00  0.00    +0.000 A 
BRANCH  90  93
ATOM     93  O16 UNL     1      87.247  61.121 108.538  0.00  0.00    +0.000 OA
ATOM     94  H66 UNL     1      87.374  61.840 109.240  0.00  0.00    +0.000 HD
ENDBRANCH  90  93
ENDBRANCH  86  87
BRANCH  86  95
ATOM     95  O15 UNL     1      83.032  60.206 103.934  0.00  0.00    +0.000 OA
ATOM     96  H63 UNL     1      82.237  59.620 104.043  0.00  0.00    +0.000 HD
ENDBRANCH  86  95
ENDBRANCH  83  86
ENDBRANCH  20  83
TORSDOF 23
ENDMDL
MODEL 5
REMARK VINA RESULT:      -7.2      6.780     18.668
REMARK  Name = ./S4286.pdb
REMARK  27 active torsions:
REMARK  status: ('A' for Active; 'I' for Inactive)
REMARK    1  A    between atoms: C1_1  and  C2_2
REMARK    2  A    between atoms: C2_2  and  C3_3
REMARK    3  A    between atoms: C3_3  and  C4_4
REMARK    4  A    between atoms: C4_4  and  C5_5
REMARK    5  A    between atoms: C5_5  and  O1_6
REMARK    6  A    between atoms: O1_6  and  C6_7
REMARK    7  A    between atoms: C9_10  and  C12_13
REMARK    8  A    between atoms: C15_16  and  C18_19
REMARK    9  A    between atoms: C21_22  and  C24_25
REMARK   10  A    between atoms: N1_27  and  C25_28
REMARK   11  A    between atoms: C27_30  and  O3_31
REMARK   12  A    between atoms: C28_32  and  O4_33
REMARK   13  A    between atoms: C31_38  and  O6_39
REMARK   14  A    between atoms: C32_40  and  C33_41
REMARK   15  A    between atoms: C36_46  and  C57_80
REMARK   16  A    between atoms: C38_50  and  C49_69
REMARK   17  A    between atoms: C42_56  and  O10_57
REMARK   18  A    between atoms: C45_62  and  C47_66
REMARK   19  A    between atoms: C47_66  and  C48_67
REMARK   20  A    between atoms: C47_66  and  O13_68
REMARK   21  A    between atoms: C49_69  and  O14_70
REMARK   22  A    between atoms: C49_69  and  C50_71
REMARK   23  A    between atoms: C50_71  and  O15_72
REMARK   24  A    between atoms: C50_71  and  C51_73
REMARK   25  A    between atoms: C54_76  and  O16_77
REMARK   26  A    between atoms: C57_80  and  C58_81
REMARK   27  A    between atoms: C57_80  and  O17_82
REMARK                            x       y       z     vdW  Elec       q    Type
REMARK                         _______ _______ _______ _____ _____    ______ ____
ROOT
ATOM      1  C25 UNL     1      85.025  66.352  98.109  0.00  0.00    +0.000 C 
ATOM      2  C26 UNL     1      85.501  67.251  99.286  0.00  0.00    +0.000 C 
ATOM      3  C27 UNL     1      85.419  68.757  98.944  0.00  0.00    +0.000 C 
ATOM      4  C28 UNL     1      85.974  69.661 100.068  0.00  0.00    +0.000 C 
ATOM      5  N2  UNL     1      87.436  69.587 100.141  0.00  0.00    +0.000 N 
ATOM      6  C29 UNL     1      88.204  70.538 100.897  0.00  0.00    +0.000 C 
ATOM      7  O5  UNL     1      87.626  71.466 101.525  0.00  0.00    +0.000 OA
ATOM      8  C30 UNL     1      89.707  70.445 100.947  0.00  0.00    +0.000 C 
ATOM      9  C31 UNL     1      90.158  69.151 101.647  0.00  0.00    +0.000 C 
ATOM     10  C32 UNL     1      91.311  68.612 100.791  0.00  0.00    +0.000 C 
ATOM     11  C33 UNL     1      91.362  67.079 100.762  0.00  0.00    +0.000 C 
ATOM     12  C34 UNL     1      91.103  69.213  99.404  0.00  0.00    +0.000 C 
ATOM     13  N3  UNL     1      90.284  70.399  99.605  0.00  0.00    +0.000 N 
ATOM     14  C35 UNL     1      90.119  71.463  98.639  0.00  0.00    +0.000 C 
ATOM     15  O7  UNL     1      89.140  72.249  98.750  0.00  0.00    +0.000 OA
ATOM     16  C36 UNL     1      91.121  71.728  97.524  0.00  0.00    +0.000 C 
ATOM     17  N4  UNL     1      91.224  70.549  96.646  0.00  0.00    +0.000 N 
ATOM     18  C37 UNL     1      92.109  70.465  95.513  0.00  0.00    +0.000 C 
ATOM     19  O8  UNL     1      93.333  70.726  95.663  0.00  0.00    +0.000 OA
ATOM     20  C38 UNL     1      91.643  69.977  94.150  0.00  0.00    +0.000 C 
ATOM     21  N5  UNL     1      90.215  69.634  94.127  0.00  0.00    +0.000 N 
ATOM     22  C39 UNL     1      89.671  68.678  93.198  0.00  0.00    +0.000 C 
ATOM     23  O9  UNL     1      90.423  68.098  92.371  0.00  0.00    +0.000 OA
ATOM     24  C40 UNL     1      88.204  68.334  93.224  0.00  0.00    +0.000 C 
ATOM     25  C41 UNL     1      87.317  69.582  93.096  0.00  0.00    +0.000 C 
ATOM     26  C42 UNL     1      86.461  69.634  94.368  0.00  0.00    +0.000 C 
ATOM     27  C43 UNL     1      86.974  68.531  95.297  0.00  0.00    +0.000 C 
ATOM     28  N6  UNL     1      87.866  67.708  94.498  0.00  0.00    +0.000 N 
ATOM     29  C44 UNL     1      88.134  66.309  94.758  0.00  0.00    +0.000 C 
ATOM     30  O11 UNL     1      88.243  65.521  93.780  0.00  0.00    +0.000 OA
ATOM     31  C45 UNL     1      88.372  65.741  96.150  0.00  0.00    +0.000 C 
ATOM     32  N7  UNL     1      87.414  66.267  97.129  0.00  0.00    +0.000 N 
ATOM     33  C46 UNL     1      86.138  65.641  97.361  0.00  0.00    +0.000 C 
ATOM     34  O12 UNL     1      85.895  64.518  96.839  0.00  0.00    +0.000 OA
ATOM     35  H32 UNL     1      87.951  68.869  99.582  0.00  0.00    +0.000 HD
ATOM     36  H43 UNL     1      90.463  69.840  96.708  0.00  0.00    +0.000 HD
ATOM     37  H45 UNL     1      89.548  70.179  94.715  0.00  0.00    +0.000 HD
ATOM     38  H54 UNL     1      87.648  67.157  97.621  0.00  0.00    +0.000 HD
ENDROOT
BRANCH   1  41
ATOM     39  C24 UNL     1      82.619  65.667  98.669  0.00  0.00    +0.000 C 
ATOM     40  O2  UNL     1      82.166  66.731  98.163  0.00  0.00    +0.000 OA
ATOM     41  N1  UNL     1      84.029  65.382  98.587  0.00  0.00    +0.000 N 
ATOM     42  H24 UNL     1      84.374  64.432  98.849  0.00  0.00    +0.000 HD
BRANCH  39  46
ATOM     43  C18 UNL     1      79.893  62.915 100.560  0.00  0.00    +0.000 A 
ATOM     44  C19 UNL     1      80.913  63.533 101.305  0.00  0.00    +0.000 A 
ATOM     45  C20 UNL     1      81.797  64.428 100.696  0.00  0.00    +0.000 A 
ATOM     46  C21 UNL     1      81.686  64.720  99.326  0.00  0.00    +0.000 A 
ATOM     47  C22 UNL     1      80.657  64.116  98.585  0.00  0.00    +0.000 A 
ATOM     48  C23 UNL     1      79.772  63.221  99.194  0.00  0.00    +0.000 A 
BRANCH  43  52
ATOM     49  C12 UNL     1      77.159  60.183 102.471  0.00  0.00    +0.000 A 
ATOM     50  C13 UNL     1      78.293  60.656 103.154  0.00  0.00    +0.000 A 
ATOM     51  C14 UNL     1      79.183  61.535 102.530  0.00  0.00    +0.000 A 
ATOM     52  C15 UNL     1      78.959  61.962 101.211  0.00  0.00    +0.000 A 
ATOM     53  C16 UNL     1      77.830  61.484 100.525  0.00  0.00    +0.000 A 
ATOM     54  C17 UNL     1      76.939  60.605 101.148  0.00  0.00    +0.000 A 
BRANCH  49  58
ATOM     55  C6  UNL     1      74.362  57.582 104.464  0.00  0.00    +0.000 A 
ATOM     56  C7  UNL     1      73.958  58.349 103.355  0.00  0.00    +0.000 A 
ATOM     57  C8  UNL     1      74.868  59.184 102.703  0.00  0.00    +0.000 A 
ATOM     58  C9  UNL     1      76.200  59.271 103.146  0.00  0.00    +0.000 A 
ATOM     59  C10 UNL     1      76.603  58.495 104.247  0.00  0.00    +0.000 A 
ATOM     60  C11 UNL     1      75.690  57.657 104.895  0.00  0.00    +0.000 A 
BRANCH  55  61
ATOM     61  O1  UNL     1      73.481  56.741 105.160  0.00  0.00    +0.000 OA
BRANCH  61  62
ATOM     62  C5  UNL     1      72.247  57.170 105.731  0.00  0.00    +0.000 C 
BRANCH  62  63
ATOM     63  C4  UNL     1      72.508  57.783 107.107  0.00  0.00    +0.000 C 
BRANCH  63  64
ATOM     64  C3  UNL     1      72.513  59.327 107.095  0.00  0.00    +0.000 C 
BRANCH  64  66
ATOM     65  C1  UNL     1      74.277  60.928 106.132  0.00  0.00    +0.000 C 
ATOM     66  C2  UNL     1      73.908  59.961 107.258  0.00  0.00    +0.000 C 
ENDBRANCH  64  66
ENDBRANCH  63  64
ENDBRANCH  62  63
ENDBRANCH  61  62
ENDBRANCH  55  61
ENDBRANCH  49  58
ENDBRANCH  43  52
ENDBRANCH  39  46
ENDBRANCH   1  41
BRANCH   3  67
ATOM     67  O3  UNL     1      84.075  69.094  98.708  0.00  0.00    +0.000 OA
ATOM     68  H29 UNL     1      83.769  69.633  99.485  0.00  0.00    +0.000 HD
ENDBRANCH   3  67
BRANCH   4  69
ATOM     69  O4  UNL     1      85.411  69.293 101.303  0.00  0.00    +0.000 OA
ATOM     70  H31 UNL     1      85.270  68.312 101.281  0.00  0.00    +0.000 HD
ENDBRANCH   4  69
BRANCH   9  71
ATOM     71  O6  UNL     1      90.603  69.411 102.952  0.00  0.00    +0.000 OA
ATOM     72  H35 UNL     1      91.590  69.524 102.895  0.00  0.00    +0.000 HD
ENDBRANCH   9  71
BRANCH  26  73
ATOM     73  O10 UNL     1      86.492  70.900  94.981  0.00  0.00    +0.000 OA
ATOM     74  H50 UNL     1      86.891  70.795  95.883  0.00  0.00    +0.000 HD
ENDBRANCH  26  73
BRANCH  31  75
ATOM     75  C47 UNL     1      89.823  65.954  96.641  0.00  0.00    +0.000 C 
ATOM     76  C48 UNL     1      90.291  64.844  97.598  0.00  0.00    +0.000 C 
BRANCH  75  77
ATOM     77  O13 UNL     1      90.707  66.099  95.562  0.00  0.00    +0.000 OA
ATOM     78  H59 UNL     1      90.478  66.939  95.092  0.00  0.00    +0.000 HD
ENDBRANCH  75  77
ENDBRANCH  31  75
BRANCH  16  79
ATOM     79  C57 UNL     1      92.510  72.209  98.067  0.00  0.00    +0.000 C 
ATOM     80  C58 UNL     1      92.461  72.785  99.495  0.00  0.00    +0.000 C 
BRANCH  79  81
ATOM     81  O17 UNL     1      93.064  73.173  97.206  0.00  0.00    +0.000 OA
ATOM     82  H73 UNL     1      92.329  73.765  96.896  0.00  0.00    +0.000 HD
ENDBRANCH  79  81
ENDBRANCH  16  79
BRANCH  20  83
ATOM     83  C49 UNL     1      91.971  70.991  93.019  0.00  0.00    +0.000 C 
BRANCH  83  84
ATOM     84  O14 UNL     1      93.347  70.950  92.729  0.00  0.00    +0.000 OA
ATOM     85  H61 UNL     1      93.828  71.018  93.596  0.00  0.00    +0.000 HD
ENDBRANCH  83  84
BRANCH  83  86
ATOM     86  C50 UNL     1      91.566  72.448  93.354  0.00  0.00    +0.000 C 
BRANCH  86  87
ATOM     87  C51 UNL     1      91.682  73.326  92.125  0.00  0.00    +0.000 A 
ATOM     88  C52 UNL     1      90.997  72.988  90.945  0.00  0.00    +0.000 A 
ATOM     89  C53 UNL     1      91.076  73.816  89.820  0.00  0.00    +0.000 A 
ATOM     90  C54 UNL     1      91.833  74.995  89.864  0.00  0.00    +0.000 A 
ATOM     91  C55 UNL     1      92.511  75.340  91.038  0.00  0.00    +0.000 A 
ATOM     92  C56 UNL     1      92.434  74.514  92.163  0.00  0.00    +0.000 A 
BRANCH  90  93
ATOM     93  O16 UNL     1      91.915  75.830  88.752  0.00  0.00    +0.000 OA
ATOM     94  H66 UNL     1      92.228  76.790  88.832  0.00  0.00    +0.000 HD
ENDBRANCH  90  93
ENDBRANCH  86  87
BRANCH  86  95
ATOM     95  O15 UNL     1      90.244  72.486  93.831  0.00  0.00    +0.000 OA
ATOM     96  H63 UNL     1      89.778  71.698  93.449  0.00  0.00    +0.000 HD
ENDBRANCH  86  95
ENDBRANCH  83  86
ENDBRANCH  20  83
TORSDOF 23
ENDMDL
MODEL 6
REMARK VINA RESULT:      -7.2      6.923     17.381
REMARK  Name = ./S4286.pdb
REMARK  27 active torsions:
REMARK  status: ('A' for Active; 'I' for Inactive)
REMARK    1  A    between atoms: C1_1  and  C2_2
REMARK    2  A    between atoms: C2_2  and  C3_3
REMARK    3  A    between atoms: C3_3  and  C4_4
REMARK    4  A    between atoms: C4_4  and  C5_5
REMARK    5  A    between atoms: C5_5  and  O1_6
REMARK    6  A    between atoms: O1_6  and  C6_7
REMARK    7  A    between atoms: C9_10  and  C12_13
REMARK    8  A    between atoms: C15_16  and  C18_19
REMARK    9  A    between atoms: C21_22  and  C24_25
REMARK   10  A    between atoms: N1_27  and  C25_28
REMARK   11  A    between atoms: C27_30  and  O3_31
REMARK   12  A    between atoms: C28_32  and  O4_33
REMARK   13  A    between atoms: C31_38  and  O6_39
REMARK   14  A    between atoms: C32_40  and  C33_41
REMARK   15  A    between atoms: C36_46  and  C57_80
REMARK   16  A    between atoms: C38_50  and  C49_69
REMARK   17  A    between atoms: C42_56  and  O10_57
REMARK   18  A    between atoms: C45_62  and  C47_66
REMARK   19  A    between atoms: C47_66  and  C48_67
REMARK   20  A    between atoms: C47_66  and  O13_68
REMARK   21  A    between atoms: C49_69  and  O14_70
REMARK   22  A    between atoms: C49_69  and  C50_71
REMARK   23  A    between atoms: C50_71  and  O15_72
REMARK   24  A    between atoms: C50_71  and  C51_73
REMARK   25  A    between atoms: C54_76  and  O16_77
REMARK   26  A    between atoms: C57_80  and  C58_81
REMARK   27  A    between atoms: C57_80  and  O17_82
REMARK                            x       y       z     vdW  Elec       q    Type
REMARK                         _______ _______ _______ _____ _____    ______ ____
ROOT
ATOM      1  C25 UNL     1      73.536  67.081 105.603  0.00  0.00    +0.000 C 
ATOM      2  C26 UNL     1      72.813  65.703 105.559  0.00  0.00    +0.000 C 
ATOM      3  C27 UNL     1      73.290  64.755 106.684  0.00  0.00    +0.000 C 
ATOM      4  C28 UNL     1      72.650  63.351 106.599  0.00  0.00    +0.000 C 
ATOM      5  N2  UNL     1      73.202  62.577 105.484  0.00  0.00    +0.000 N 
ATOM      6  C29 UNL     1      72.987  61.160 105.368  0.00  0.00    +0.000 C 
ATOM      7  O5  UNL     1      72.305  60.548 106.234  0.00  0.00    +0.000 OA
ATOM      8  C30 UNL     1      73.575  60.387 104.216  0.00  0.00    +0.000 C 
ATOM      9  C31 UNL     1      72.965  60.839 102.877  0.00  0.00    +0.000 C 
ATOM     10  C32 UNL     1      74.150  60.932 101.908  0.00  0.00    +0.000 C 
ATOM     11  C33 UNL     1      73.988  62.059 100.879  0.00  0.00    +0.000 C 
ATOM     12  C34 UNL     1      75.382  61.124 102.789  0.00  0.00    +0.000 C 
ATOM     13  N3  UNL     1      75.014  60.612 104.101  0.00  0.00    +0.000 N 
ATOM     14  C35 UNL     1      75.952  60.275 105.150  0.00  0.00    +0.000 C 
ATOM     15  O7  UNL     1      75.540  60.183 106.337  0.00  0.00    +0.000 OA
ATOM     16  C36 UNL     1      77.413  59.950 104.876  0.00  0.00    +0.000 C 
ATOM     17  N4  UNL     1      78.080  61.105 104.248  0.00  0.00    +0.000 N 
ATOM     18  C37 UNL     1      79.459  61.110 103.836  0.00  0.00    +0.000 C 
ATOM     19  O8  UNL     1      79.887  60.188 103.091  0.00  0.00    +0.000 OA
ATOM     20  C38 UNL     1      80.409  62.246 104.186  0.00  0.00    +0.000 C 
ATOM     21  N5  UNL     1      79.770  63.293 104.993  0.00  0.00    +0.000 N 
ATOM     22  C39 UNL     1      80.234  64.656 104.987  0.00  0.00    +0.000 C 
ATOM     23  O9  UNL     1      81.215  64.989 104.272  0.00  0.00    +0.000 OA
ATOM     24  C40 UNL     1      79.534  65.707 105.810  0.00  0.00    +0.000 C 
ATOM     25  C41 UNL     1      79.439  65.311 107.291  0.00  0.00    +0.000 C 
ATOM     26  C42 UNL     1      77.943  65.260 107.628  0.00  0.00    +0.000 C 
ATOM     27  C43 UNL     1      77.183  65.450 106.313  0.00  0.00    +0.000 C 
ATOM     28  N6  UNL     1      78.166  65.877 105.332  0.00  0.00    +0.000 N 
ATOM     29  C44 UNL     1      77.857  66.675 104.164  0.00  0.00    +0.000 C 
ATOM     30  O11 UNL     1      78.668  67.573 103.811  0.00  0.00    +0.000 OA
ATOM     31  C45 UNL     1      76.638  66.442 103.282  0.00  0.00    +0.000 C 
ATOM     32  N7  UNL     1      75.425  66.205 104.072  0.00  0.00    +0.000 N 
ATOM     33  C46 UNL     1      74.584  67.283 104.524  0.00  0.00    +0.000 C 
ATOM     34  O12 UNL     1      74.792  68.452 104.094  0.00  0.00    +0.000 OA
ATOM     35  H32 UNL     1      73.823  63.042 104.783  0.00  0.00    +0.000 HD
ATOM     36  H43 UNL     1      77.600  62.028 104.317  0.00  0.00    +0.000 HD
ATOM     37  H45 UNL     1      79.033  63.030 105.683  0.00  0.00    +0.000 HD
ATOM     38  H54 UNL     1      75.208  65.226 104.364  0.00  0.00    +0.000 HD
ENDROOT
BRANCH   1  41
ATOM     39  C24 UNL     1      71.970  68.754 106.751  0.00  0.00    +0.000 C 
ATOM     40  O2  UNL     1      72.431  68.452 107.887  0.00  0.00    +0.000 OA
ATOM     41  N1  UNL     1      72.549  68.169 105.568  0.00  0.00    +0.000 N 
ATOM     42  H24 UNL     1      72.287  68.546 104.631  0.00  0.00    +0.000 HD
BRANCH  39  46
ATOM     43  C18 UNL     1      68.706  71.552 106.452  0.00  0.00    +0.000 A 
ATOM     44  C19 UNL     1      69.819  71.839 107.261  0.00  0.00    +0.000 A 
ATOM     45  C20 UNL     1      70.880  70.936 107.358  0.00  0.00    +0.000 A 
ATOM     46  C21 UNL     1      70.850  69.720 106.654  0.00  0.00    +0.000 A 
ATOM     47  C22 UNL     1      69.747  69.440 105.832  0.00  0.00    +0.000 A 
ATOM     48  C23 UNL     1      68.685  70.344 105.734  0.00  0.00    +0.000 A 
BRANCH  43  52
ATOM     49  C12 UNL     1      65.411  74.316 106.139  0.00  0.00    +0.000 A 
ATOM     50  C13 UNL     1      66.429  74.303 105.169  0.00  0.00    +0.000 A 
ATOM     51  C14 UNL     1      67.500  73.411 105.276  0.00  0.00    +0.000 A 
ATOM     52  C15 UNL     1      67.579  72.514 106.354  0.00  0.00    +0.000 A 
ATOM     53  C16 UNL     1      66.566  72.532 107.328  0.00  0.00    +0.000 A 
ATOM     54  C17 UNL     1      65.493  73.422 107.221  0.00  0.00    +0.000 A 
BRANCH  49  58
ATOM     55  C6  UNL     1      62.038  76.973 105.787  0.00  0.00    +0.000 A 
ATOM     56  C7  UNL     1      62.902  77.060 106.895  0.00  0.00    +0.000 A 
ATOM     57  C8  UNL     1      64.001  76.205 107.002  0.00  0.00    +0.000 A 
ATOM     58  C9  UNL     1      64.260  75.245 106.007  0.00  0.00    +0.000 A 
ATOM     59  C10 UNL     1      63.401  75.170 104.896  0.00  0.00    +0.000 A 
ATOM     60  C11 UNL     1      62.303  76.029 104.790  0.00  0.00    +0.000 A 
BRANCH  55  61
ATOM     61  O1  UNL     1      60.913  77.799 105.643  0.00  0.00    +0.000 OA
BRANCH  61  62
ATOM     62  C5  UNL     1      59.576  77.319 105.525  0.00  0.00    +0.000 C 
BRANCH  62  63
ATOM     63  C4  UNL     1      59.280  76.351 106.672  0.00  0.00    +0.000 C 
BRANCH  63  64
ATOM     64  C3  UNL     1      58.839  74.952 106.190  0.00  0.00    +0.000 C 
BRANCH  64  66
ATOM     65  C1  UNL     1      60.756  74.110 107.680  0.00  0.00    +0.000 C 
ATOM     66  C2  UNL     1      59.857  73.830 106.475  0.00  0.00    +0.000 C 
ENDBRANCH  64  66
ENDBRANCH  63  64
ENDBRANCH  62  63
ENDBRANCH  61  62
ENDBRANCH  55  61
ENDBRANCH  49  58
ENDBRANCH  43  52
ENDBRANCH  39  46
ENDBRANCH   1  41
BRANCH   3  67
ATOM     67  O3  UNL     1      72.970  65.330 107.926  0.00  0.00    +0.000 OA
ATOM     68  H29 UNL     1      72.694  64.588 108.528  0.00  0.00    +0.000 HD
ENDBRANCH   3  67
BRANCH   4  69
ATOM     69  O4  UNL     1      71.255  63.467 106.462  0.00  0.00    +0.000 OA
ATOM     70  H31 UNL     1      71.071  63.685 105.512  0.00  0.00    +0.000 HD
ENDBRANCH   4  69
BRANCH   9  71
ATOM     71  O6  UNL     1      72.028  59.908 102.408  0.00  0.00    +0.000 OA
ATOM     72  H35 UNL     1      71.327  60.429 101.933  0.00  0.00    +0.000 HD
ENDBRANCH   9  71
BRANCH  26  73
ATOM     73  O10 UNL     1      77.583  64.068 108.281  0.00  0.00    +0.000 OA
ATOM     74  H50 UNL     1      76.616  64.113 108.493  0.00  0.00    +0.000 HD
ENDBRANCH  26  73
BRANCH  31  75
ATOM     75  C47 UNL     1      76.851  65.301 102.259  0.00  0.00    +0.000 C 
ATOM     76  C48 UNL     1      76.578  65.747 100.812  0.00  0.00    +0.000 C 
BRANCH  75  77
ATOM     77  O13 UNL     1      78.132  64.742 102.384  0.00  0.00    +0.000 OA
ATOM     78  H59 UNL     1      78.588  64.827 101.510  0.00  0.00    +0.000 HD
ENDBRANCH  75  77
ENDBRANCH  31  75
BRANCH  16  79
ATOM     79  C57 UNL     1      77.590  58.624 104.060  0.00  0.00    +0.000 C 
ATOM     80  C58 UNL     1      76.345  57.718 104.054  0.00  0.00    +0.000 C 
BRANCH  79  81
ATOM     81  O17 UNL     1      78.685  57.890 104.551  0.00  0.00    +0.000 OA
ATOM     82  H73 UNL     1      78.672  56.995 104.118  0.00  0.00    +0.000 HD
ENDBRANCH  79  81
ENDBRANCH  16  79
BRANCH  20  83
ATOM     83  C49 UNL     1      81.699  61.738 104.888  0.00  0.00    +0.000 C 
BRANCH  83  84
ATOM     84  O14 UNL     1      82.365  60.822 104.053  0.00  0.00    +0.000 OA
ATOM     85  H61 UNL     1      82.970  61.351 103.469  0.00  0.00    +0.000 HD
ENDBRANCH  83  84
BRANCH  83  86
ATOM     86  C50 UNL     1      81.437  61.074 106.263  0.00  0.00    +0.000 C 
BRANCH  86  87
ATOM     87  C51 UNL     1      82.549  60.102 106.603  0.00  0.00    +0.000 A 
ATOM     88  C52 UNL     1      83.666  60.532 107.338  0.00  0.00    +0.000 A 
ATOM     89  C53 UNL     1      84.677  59.627 107.682  0.00  0.00    +0.000 A 
ATOM     90  C54 UNL     1      84.578  58.282 107.300  0.00  0.00    +0.000 A 
ATOM     91  C55 UNL     1      83.465  57.847 106.573  0.00  0.00    +0.000 A 
ATOM     92  C56 UNL     1      82.455  58.749 106.229  0.00  0.00    +0.000 A 
BRANCH  90  93
ATOM     93  O16 UNL     1      85.576  57.372 107.641  0.00  0.00    +0.000 OA
ATOM     94  H66 UNL     1      86.106  56.877 106.934  0.00  0.00    +0.000 HD
ENDBRANCH  90  93
ENDBRANCH  86  87
BRANCH  86  95
ATOM     95  O15 UNL     1      81.353  62.054 107.267  0.00  0.00    +0.000 OA
ATOM     96  H63 UNL     1      80.416  62.381 107.271  0.00  0.00    +0.000 HD
ENDBRANCH  86  95
ENDBRANCH  83  86
ENDBRANCH  20  83
TORSDOF 23
ENDMDL
MODEL 7
REMARK VINA RESULT:      -7.1      8.882     15.975
REMARK  Name = ./S4286.pdb
REMARK  27 active torsions:
REMARK  status: ('A' for Active; 'I' for Inactive)
REMARK    1  A    between atoms: C1_1  and  C2_2
REMARK    2  A    between atoms: C2_2  and  C3_3
REMARK    3  A    between atoms: C3_3  and  C4_4
REMARK    4  A    between atoms: C4_4  and  C5_5
REMARK    5  A    between atoms: C5_5  and  O1_6
REMARK    6  A    between atoms: O1_6  and  C6_7
REMARK    7  A    between atoms: C9_10  and  C12_13
REMARK    8  A    between atoms: C15_16  and  C18_19
REMARK    9  A    between atoms: C21_22  and  C24_25
REMARK   10  A    between atoms: N1_27  and  C25_28
REMARK   11  A    between atoms: C27_30  and  O3_31
REMARK   12  A    between atoms: C28_32  and  O4_33
REMARK   13  A    between atoms: C31_38  and  O6_39
REMARK   14  A    between atoms: C32_40  and  C33_41
REMARK   15  A    between atoms: C36_46  and  C57_80
REMARK   16  A    between atoms: C38_50  and  C49_69
REMARK   17  A    between atoms: C42_56  and  O10_57
REMARK   18  A    between atoms: C45_62  and  C47_66
REMARK   19  A    between atoms: C47_66  and  C48_67
REMARK   20  A    between atoms: C47_66  and  O13_68
REMARK   21  A    between atoms: C49_69  and  O14_70
REMARK   22  A    between atoms: C49_69  and  C50_71
REMARK   23  A    between atoms: C50_71  and  O15_72
REMARK   24  A    between atoms: C50_71  and  C51_73
REMARK   25  A    between atoms: C54_76  and  O16_77
REMARK   26  A    between atoms: C57_80  and  C58_81
REMARK   27  A    between atoms: C57_80  and  O17_82
REMARK                            x       y       z     vdW  Elec       q    Type
REMARK                         _______ _______ _______ _____ _____    ______ ____
ROOT
ATOM      1  C25 UNL     1      74.605  70.970 105.583  0.00  0.00    +0.000 C 
ATOM      2  C26 UNL     1      76.027  70.999 104.952  0.00  0.00    +0.000 C 
ATOM      3  C27 UNL     1      76.648  72.415 104.973  0.00  0.00    +0.000 C 
ATOM      4  C28 UNL     1      78.022  72.480 104.268  0.00  0.00    +0.000 C 
ATOM      5  N2  UNL     1      77.883  72.381 102.812  0.00  0.00    +0.000 N 
ATOM      6  C29 UNL     1      78.967  72.702 101.925  0.00  0.00    +0.000 C 
ATOM      7  O5  UNL     1      80.078  73.077 102.390  0.00  0.00    +0.000 OA
ATOM      8  C30 UNL     1      78.793  72.601 100.432  0.00  0.00    +0.000 C 
ATOM      9  C31 UNL     1      78.545  71.144 100.001  0.00  0.00    +0.000 C 
ATOM     10  C32 UNL     1      77.420  71.220  98.961  0.00  0.00    +0.000 C 
ATOM     11  C33 UNL     1      76.488  70.002  99.006  0.00  0.00    +0.000 C 
ATOM     12  C34 UNL     1      76.683  72.525  99.253  0.00  0.00    +0.000 C 
ATOM     13  N3  UNL     1      77.630  73.360  99.978  0.00  0.00    +0.000 N 
ATOM     14  C35 UNL     1      77.499  74.789 100.161  0.00  0.00    +0.000 C 
ATOM     15  O7  UNL     1      78.155  75.354 101.077  0.00  0.00    +0.000 OA
ATOM     16  C36 UNL     1      76.656  75.665  99.245  0.00  0.00    +0.000 C 
ATOM     17  N4  UNL     1      75.247  75.235  99.291  0.00  0.00    +0.000 N 
ATOM     18  C37 UNL     1      74.196  75.839  98.514  0.00  0.00    +0.000 C 
ATOM     19  O8  UNL     1      74.340  75.965  97.268  0.00  0.00    +0.000 OA
ATOM     20  C38 UNL     1      72.866  76.252  99.126  0.00  0.00    +0.000 C 
ATOM     21  N5  UNL     1      72.797  75.986 100.569  0.00  0.00    +0.000 N 
ATOM     22  C39 UNL     1      71.548  75.764 101.248  0.00  0.00    +0.000 C 
ATOM     23  O9  UNL     1      70.464  75.787 100.607  0.00  0.00    +0.000 OA
ATOM     24  C40 UNL     1      71.521  75.468 102.725  0.00  0.00    +0.000 C 
ATOM     25  C41 UNL     1      72.247  76.547 103.543  0.00  0.00    +0.000 C 
ATOM     26  C42 UNL     1      73.388  75.834 104.280  0.00  0.00    +0.000 C 
ATOM     27  C43 UNL     1      73.428  74.396 103.757  0.00  0.00    +0.000 C 
ATOM     28  N6  UNL     1      72.209  74.208 102.989  0.00  0.00    +0.000 N 
ATOM     29  C44 UNL     1      71.565  72.927 102.785  0.00  0.00    +0.000 C 
ATOM     30  O11 UNL     1      70.306  72.871 102.809  0.00  0.00    +0.000 OA
ATOM     31  C45 UNL     1      72.321  71.646 102.462  0.00  0.00    +0.000 C 
ATOM     32  N7  UNL     1      73.517  71.487 103.297  0.00  0.00    +0.000 N 
ATOM     33  C46 UNL     1      73.469  70.843 104.584  0.00  0.00    +0.000 C 
ATOM     34  O12 UNL     1      72.415  70.246 104.940  0.00  0.00    +0.000 OA
ATOM     35  H32 UNL     1      76.957  72.134 102.393  0.00  0.00    +0.000 HD
ATOM     36  H43 UNL     1      74.960  74.624 100.086  0.00  0.00    +0.000 HD
ATOM     37  H45 UNL     1      73.660  76.076 101.148  0.00  0.00    +0.000 HD
ATOM     38  H54 UNL     1      74.410  71.914 102.968  0.00  0.00    +0.000 HD
ENDROOT
BRANCH   1  41
ATOM     39  C24 UNL     1      74.975  70.057 107.950  0.00  0.00    +0.000 C 
ATOM     40  O2  UNL     1      75.314  71.199 108.369  0.00  0.00    +0.000 OA
ATOM     41  N1  UNL     1      74.522  69.903 106.590  0.00  0.00    +0.000 N 
ATOM     42  H24 UNL     1      74.083  69.002 106.297  0.00  0.00    +0.000 HD
BRANCH  39  46
ATOM     43  C18 UNL     1      75.152  66.698 110.644  0.00  0.00    +0.000 A 
ATOM     44  C19 UNL     1      75.257  66.504 109.256  0.00  0.00    +0.000 A 
ATOM     45  C20 UNL     1      75.204  67.591 108.379  0.00  0.00    +0.000 A 
ATOM     46  C21 UNL     1      75.035  68.897 108.870  0.00  0.00    +0.000 A 
ATOM     47  C22 UNL     1      74.947  69.094 110.258  0.00  0.00    +0.000 A 
ATOM     48  C23 UNL     1      75.002  68.006 111.136  0.00  0.00    +0.000 A 
BRANCH  43  52
ATOM     49  C12 UNL     1      75.264  63.335 113.340  0.00  0.00    +0.000 A 
ATOM     50  C13 UNL     1      75.167  64.647 113.836  0.00  0.00    +0.000 A 
ATOM     51  C14 UNL     1      75.138  65.737 112.960  0.00  0.00    +0.000 A 
ATOM     52  C15 UNL     1      75.207  65.540 111.571  0.00  0.00    +0.000 A 
ATOM     53  C16 UNL     1      75.312  64.230 111.075  0.00  0.00    +0.000 A 
ATOM     54  C17 UNL     1      75.340  63.139 111.950  0.00  0.00    +0.000 A 
BRANCH  49  58
ATOM     55  C6  UNL     1      75.321  59.964 116.022  0.00  0.00    +0.000 A 
ATOM     56  C7  UNL     1      75.861  61.202 116.420  0.00  0.00    +0.000 A 
ATOM     57  C8  UNL     1      75.832  62.296 115.553  0.00  0.00    +0.000 A 
ATOM     58  C9  UNL     1      75.266  62.178 114.271  0.00  0.00    +0.000 A 
ATOM     59  C10 UNL     1      74.717  60.943 113.882  0.00  0.00    +0.000 A 
ATOM     60  C11 UNL     1      74.744  59.850 114.753  0.00  0.00    +0.000 A 
BRANCH  55  61
ATOM     61  O1  UNL     1      75.340  58.832 116.851  0.00  0.00    +0.000 OA
BRANCH  61  62
ATOM     62  C5  UNL     1      75.977  57.602 116.513  0.00  0.00    +0.000 C 
BRANCH  62  63
ATOM     63  C4  UNL     1      77.491  57.808 116.467  0.00  0.00    +0.000 C 
BRANCH  63  64
ATOM     64  C3  UNL     1      78.030  58.061 115.042  0.00  0.00    +0.000 C 
BRANCH  64  66
ATOM     65  C1  UNL     1      78.402  60.197 113.663  0.00  0.00    +0.000 C 
ATOM     66  C2  UNL     1      78.818  59.376 114.884  0.00  0.00    +0.000 C 
ENDBRANCH  64  66
ENDBRANCH  63  64
ENDBRANCH  62  63
ENDBRANCH  61  62
ENDBRANCH  55  61
ENDBRANCH  49  58
ENDBRANCH  43  52
ENDBRANCH  39  46
ENDBRANCH   1  41
BRANCH   3  67
ATOM     67  O3  UNL     1      76.800  72.823 106.309  0.00  0.00    +0.000 OA
ATOM     68  H29 UNL     1      76.121  73.529 106.477  0.00  0.00    +0.000 HD
ENDBRANCH   3  67
BRANCH   4  69
ATOM     69  O4  UNL     1      78.855  71.451 104.743  0.00  0.00    +0.000 OA
ATOM     70  H31 UNL     1      79.619  71.882 105.205  0.00  0.00    +0.000 HD
ENDBRANCH   4  69
BRANCH   9  71
ATOM     71  O6  UNL     1      79.696  70.583  99.429  0.00  0.00    +0.000 OA
ATOM     72  H35 UNL     1      80.402  70.616 100.129  0.00  0.00    +0.000 HD
ENDBRANCH   9  71
BRANCH  26  73
ATOM     73  O10 UNL     1      74.621  76.491 104.119  0.00  0.00    +0.000 OA
ATOM     74  H50 UNL     1      74.611  77.306 104.685  0.00  0.00    +0.000 HD
ENDBRANCH  26  73
BRANCH  31  75
ATOM     75  C47 UNL     1      72.686  71.530 100.963  0.00  0.00    +0.000 C 
ATOM     76  C48 UNL     1      71.492  71.096 100.096  0.00  0.00    +0.000 C 
BRANCH  75  77
ATOM     77  O13 UNL     1      73.252  72.722 100.487  0.00  0.00    +0.000 OA
ATOM     78  H59 UNL     1      73.994  72.484  99.877  0.00  0.00    +0.000 HD
ENDBRANCH  75  77
ENDBRANCH  31  75
BRANCH  16  79
ATOM     79  C57 UNL     1      77.227  75.734  97.788  0.00  0.00    +0.000 C 
ATOM     80  C58 UNL     1      78.699  75.296  97.668  0.00  0.00    +0.000 C 
BRANCH  79  81
ATOM     81  O17 UNL     1      77.097  77.037  97.274  0.00  0.00    +0.000 OA
ATOM     82  H73 UNL     1      77.679  77.107  96.471  0.00  0.00    +0.000 HD
ENDBRANCH  79  81
ENDBRANCH  16  79
BRANCH  20  83
ATOM     83  C49 UNL     1      72.522  77.740  98.836  0.00  0.00    +0.000 C 
BRANCH  83  84
ATOM     84  O14 UNL     1      72.589  78.484 100.028  0.00  0.00    +0.000 OA
ATOM     85  H61 UNL     1      72.151  77.939 100.734  0.00  0.00    +0.000 HD
ENDBRANCH  83  84
BRANCH  83  86
ATOM     86  C50 UNL     1      71.128  77.940  98.190  0.00  0.00    +0.000 C 
BRANCH  86  87
ATOM     87  C51 UNL     1      71.237  78.811  96.955  0.00  0.00    +0.000 A 
ATOM     88  C52 UNL     1      72.446  79.459  96.648  0.00  0.00    +0.000 A 
ATOM     89  C53 UNL     1      72.557  80.236  95.490  0.00  0.00    +0.000 A 
ATOM     90  C54 UNL     1      71.465  80.368  94.623  0.00  0.00    +0.000 A 
ATOM     91  C55 UNL     1      70.260  79.721  94.920  0.00  0.00    +0.000 A 
ATOM     92  C56 UNL     1      70.147  78.945  96.076  0.00  0.00    +0.000 A 
BRANCH  90  93
ATOM     93  O16 UNL     1      71.566  81.136  93.465  0.00  0.00    +0.000 OA
ATOM     94  H66 UNL     1      70.812  81.177  92.789  0.00  0.00    +0.000 HD
ENDBRANCH  90  93
ENDBRANCH  86  87
BRANCH  86  95
ATOM     95  O15 UNL     1      70.575  76.697  97.836  0.00  0.00    +0.000 OA
ATOM     96  H63 UNL     1      70.989  76.019  98.430  0.00  0.00    +0.000 HD
ENDBRANCH  86  95
ENDBRANCH  83  86
ENDBRANCH  20  83
TORSDOF 23
ENDMDL
MODEL 8
REMARK VINA RESULT:      -7.0      9.175     16.355
REMARK  Name = ./S4286.pdb
REMARK  27 active torsions:
REMARK  status: ('A' for Active; 'I' for Inactive)
REMARK    1  A    between atoms: C1_1  and  C2_2
REMARK    2  A    between atoms: C2_2  and  C3_3
REMARK    3  A    between atoms: C3_3  and  C4_4
REMARK    4  A    between atoms: C4_4  and  C5_5
REMARK    5  A    between atoms: C5_5  and  O1_6
REMARK    6  A    between atoms: O1_6  and  C6_7
REMARK    7  A    between atoms: C9_10  and  C12_13
REMARK    8  A    between atoms: C15_16  and  C18_19
REMARK    9  A    between atoms: C21_22  and  C24_25
REMARK   10  A    between atoms: N1_27  and  C25_28
REMARK   11  A    between atoms: C27_30  and  O3_31
REMARK   12  A    between atoms: C28_32  and  O4_33
REMARK   13  A    between atoms: C31_38  and  O6_39
REMARK   14  A    between atoms: C32_40  and  C33_41
REMARK   15  A    between atoms: C36_46  and  C57_80
REMARK   16  A    between atoms: C38_50  and  C49_69
REMARK   17  A    between atoms: C42_56  and  O10_57
REMARK   18  A    between atoms: C45_62  and  C47_66
REMARK   19  A    between atoms: C47_66  and  C48_67
REMARK   20  A    between atoms: C47_66  and  O13_68
REMARK   21  A    between atoms: C49_69  and  O14_70
REMARK   22  A    between atoms: C49_69  and  C50_71
REMARK   23  A    between atoms: C50_71  and  O15_72
REMARK   24  A    between atoms: C50_71  and  C51_73
REMARK   25  A    between atoms: C54_76  and  O16_77
REMARK   26  A    between atoms: C57_80  and  C58_81
REMARK   27  A    between atoms: C57_80  and  O17_82
REMARK                            x       y       z     vdW  Elec       q    Type
REMARK                         _______ _______ _______ _____ _____    ______ ____
ROOT
ATOM      1  C25 UNL     1      83.645  60.846 104.464  0.00  0.00    +0.000 C 
ATOM      2  C26 UNL     1      83.790  59.386 104.982  0.00  0.00    +0.000 C 
ATOM      3  C27 UNL     1      84.036  59.326 106.507  0.00  0.00    +0.000 C 
ATOM      4  C28 UNL     1      84.274  57.889 107.023  0.00  0.00    +0.000 C 
ATOM      5  N2  UNL     1      85.592  57.387 106.622  0.00  0.00    +0.000 N 
ATOM      6  C29 UNL     1      86.163  56.207 107.212  0.00  0.00    +0.000 C 
ATOM      7  O5  UNL     1      85.530  55.568 108.096  0.00  0.00    +0.000 OA
ATOM      8  C30 UNL     1      87.525  55.720 106.788  0.00  0.00    +0.000 C 
ATOM      9  C31 UNL     1      87.521  55.281 105.313  0.00  0.00    +0.000 C 
ATOM     10  C32 UNL     1      88.819  55.847 104.724  0.00  0.00    +0.000 C 
ATOM     11  C33 UNL     1      88.672  56.263 103.255  0.00  0.00    +0.000 C 
ATOM     12  C34 UNL     1      89.197  57.021 105.625  0.00  0.00    +0.000 C 
ATOM     13  N3  UNL     1      88.527  56.778 106.893  0.00  0.00    +0.000 N 
ATOM     14  C35 UNL     1      88.858  57.431 108.141  0.00  0.00    +0.000 C 
ATOM     15  O7  UNL     1      88.018  57.425 109.080  0.00  0.00    +0.000 OA
ATOM     16  C36 UNL     1      90.215  58.067 108.404  0.00  0.00    +0.000 C 
ATOM     17  N4  UNL     1      90.464  59.148 107.434  0.00  0.00    +0.000 N 
ATOM     18  C37 UNL     1      91.672  59.930 107.393  0.00  0.00    +0.000 C 
ATOM     19  O8  UNL     1      92.787  59.344 107.348  0.00  0.00    +0.000 OA
ATOM     20  C38 UNL     1      91.657  61.448 107.304  0.00  0.00    +0.000 C 
ATOM     21  N5  UNL     1      90.297  62.004 107.289  0.00  0.00    +0.000 N 
ATOM     22  C39 UNL     1      89.994  63.273 106.682  0.00  0.00    +0.000 C 
ATOM     23  O9  UNL     1      90.905  63.947 106.133  0.00  0.00    +0.000 OA
ATOM     24  C40 UNL     1      88.581  63.796 106.664  0.00  0.00    +0.000 C 
ATOM     25  C41 UNL     1      87.972  63.859 108.073  0.00  0.00    +0.000 C 
ATOM     26  C42 UNL     1      86.737  62.949 108.049  0.00  0.00    +0.000 C 
ATOM     27  C43 UNL     1      86.736  62.233 106.697  0.00  0.00    +0.000 C 
ATOM     28  N6  UNL     1      87.734  62.903 105.880  0.00  0.00    +0.000 N 
ATOM     29  C44 UNL     1      87.702  62.952 104.434  0.00  0.00    +0.000 C 
ATOM     30  O11 UNL     1      88.044  64.019 103.856  0.00  0.00    +0.000 OA
ATOM     31  C45 UNL     1      87.355  61.757 103.557  0.00  0.00    +0.000 C 
ATOM     32  N7  UNL     1      86.192  61.021 104.067  0.00  0.00    +0.000 N 
ATOM     33  C46 UNL     1      84.845  61.371 103.697  0.00  0.00    +0.000 C 
ATOM     34  O12 UNL     1      84.654  62.220 102.783  0.00  0.00    +0.000 OA
ATOM     35  H32 UNL     1      86.170  57.928 105.939  0.00  0.00    +0.000 HD
ATOM     36  H43 UNL     1      89.641  59.516 106.908  0.00  0.00    +0.000 HD
ATOM     37  H45 UNL     1      89.545  61.530 107.834  0.00  0.00    +0.000 HD
ATOM     38  H54 UNL     1      86.354  60.264 104.767  0.00  0.00    +0.000 HD
ENDROOT
BRANCH   1  41
ATOM     39  C24 UNL     1      81.103  61.076 104.223  0.00  0.00    +0.000 C 
ATOM     40  O2  UNL     1      80.968  61.226 105.469  0.00  0.00    +0.000 OA
ATOM     41  N1  UNL     1      82.425  60.975 103.656  0.00  0.00    +0.000 N 
ATOM     42  H24 UNL     1      82.541  61.024 102.620  0.00  0.00    +0.000 HD
BRANCH  39  46
ATOM     43  C18 UNL     1      77.602  60.940 101.713  0.00  0.00    +0.000 A 
ATOM     44  C19 UNL     1      77.821  59.947 102.685  0.00  0.00    +0.000 A 
ATOM     45  C20 UNL     1      78.954  59.990 103.502  0.00  0.00    +0.000 A 
ATOM     46  C21 UNL     1      79.898  61.021 103.362  0.00  0.00    +0.000 A 
ATOM     47  C22 UNL     1      79.670  62.023 102.404  0.00  0.00    +0.000 A 
ATOM     48  C23 UNL     1      78.537  61.981 101.586  0.00  0.00    +0.000 A 
BRANCH  43  52
ATOM     49  C12 UNL     1      74.128  60.820  99.162  0.00  0.00    +0.000 A 
ATOM     50  C13 UNL     1      74.320  61.884 100.061  0.00  0.00    +0.000 A 
ATOM     51  C14 UNL     1      75.443  61.917 100.892  0.00  0.00    +0.000 A 
ATOM     52  C15 UNL     1      76.399  60.889 100.845  0.00  0.00    +0.000 A 
ATOM     53  C16 UNL     1      76.204  59.821  99.953  0.00  0.00    +0.000 A 
ATOM     54  C17 UNL     1      75.081  59.787  99.119  0.00  0.00    +0.000 A 
BRANCH  49  58
ATOM     55  C6  UNL     1      70.673  60.770  96.589  0.00  0.00    +0.000 A 
ATOM     56  C7  UNL     1      71.232  61.991  97.009  0.00  0.00    +0.000 A 
ATOM     57  C8  UNL     1      72.358  62.006  97.834  0.00  0.00    +0.000 A 
ATOM     58  C9  UNL     1      72.949  60.802  98.259  0.00  0.00    +0.000 A 
ATOM     59  C10 UNL     1      72.394  59.584  97.827  0.00  0.00    +0.000 A 
ATOM     60  C11 UNL     1      71.268  59.572  96.999  0.00  0.00    +0.000 A 
BRANCH  55  61
ATOM     61  O1  UNL     1      69.533  60.704  95.774  0.00  0.00    +0.000 OA
BRANCH  61  62
ATOM     62  C5  UNL     1      68.249  60.278  96.224  0.00  0.00    +0.000 C 
BRANCH  62  63
ATOM     63  C4  UNL     1      67.978  60.858  97.612  0.00  0.00    +0.000 C 
BRANCH  63  64
ATOM     64  C3  UNL     1      67.745  59.777  98.690  0.00  0.00    +0.000 C 
BRANCH  64  66
ATOM     65  C1  UNL     1      69.388  61.127 100.132  0.00  0.00    +0.000 C 
ATOM     66  C2  UNL     1      68.809  59.750  99.805  0.00  0.00    +0.000 C 
ENDBRANCH  64  66
ENDBRANCH  63  64
ENDBRANCH  62  63
ENDBRANCH  61  62
ENDBRANCH  55  61
ENDBRANCH  49  58
ENDBRANCH  43  52
ENDBRANCH  39  46
ENDBRANCH   1  41
BRANCH   3  67
ATOM     67  O3  UNL     1      82.921  59.870 107.167  0.00  0.00    +0.000 OA
ATOM     68  H29 UNL     1      82.322  60.244 106.467  0.00  0.00    +0.000 HD
ENDBRANCH   3  67
BRANCH   4  69
ATOM     69  O4  UNL     1      83.267  57.033 106.543  0.00  0.00    +0.000 OA
ATOM     70  H31 UNL     1      82.910  56.534 107.321  0.00  0.00    +0.000 HD
ENDBRANCH   4  69
BRANCH   9  71
ATOM     71  O6  UNL     1      87.507  53.883 105.201  0.00  0.00    +0.000 OA
ATOM     72  H35 UNL     1      87.788  53.528 106.086  0.00  0.00    +0.000 HD
ENDBRANCH   9  71
BRANCH  26  73
ATOM     73  O10 UNL     1      86.718  62.045 109.127  0.00  0.00    +0.000 OA
ATOM     74  H50 UNL     1      87.360  62.370 109.811  0.00  0.00    +0.000 HD
ENDBRANCH  26  73
BRANCH  31  75
ATOM     75  C47 UNL     1      88.553  60.801 103.348  0.00  0.00    +0.000 C 
ATOM     76  C48 UNL     1      89.539  61.315 102.285  0.00  0.00    +0.000 C 
BRANCH  75  77
ATOM     77  O13 UNL     1      89.207  60.536 104.560  0.00  0.00    +0.000 OA
ATOM     78  H59 UNL     1      89.327  61.396 105.035  0.00  0.00    +0.000 HD
ENDBRANCH  75  77
ENDBRANCH  31  75
BRANCH  16  79
ATOM     79  C57 UNL     1      91.373  57.013 108.454  0.00  0.00    +0.000 C 
ATOM     80  C58 UNL     1      90.900  55.572 108.722  0.00  0.00    +0.000 C 
BRANCH  79  81
ATOM     81  O17 UNL     1      92.318  57.370 109.432  0.00  0.00    +0.000 OA
ATOM     82  H73 UNL     1      92.979  56.631 109.502  0.00  0.00    +0.000 HD
ENDBRANCH  79  81
ENDBRANCH  16  79
BRANCH  20  83
ATOM     83  C49 UNL     1      92.497  62.112 108.431  0.00  0.00    +0.000 C 
BRANCH  83  84
ATOM     84  O14 UNL     1      93.747  61.475 108.528  0.00  0.00    +0.000 OA
ATOM     85  H61 UNL     1      94.350  61.922 107.877  0.00  0.00    +0.000 HD
ENDBRANCH  83  84
BRANCH  83  86
ATOM     86  C50 UNL     1      91.805  62.087 109.817  0.00  0.00    +0.000 C 
BRANCH  86  87
ATOM     87  C51 UNL     1      91.230  63.449 110.147  0.00  0.00    +0.000 A 
ATOM     88  C52 UNL     1      90.144  63.566 111.031  0.00  0.00    +0.000 A 
ATOM     89  C53 UNL     1      89.635  64.826 111.362  0.00  0.00    +0.000 A 
ATOM     90  C54 UNL     1      90.209  65.983 110.820  0.00  0.00    +0.000 A 
ATOM     91  C55 UNL     1      91.295  65.874 109.945  0.00  0.00    +0.000 A 
ATOM     92  C56 UNL     1      91.805  64.616 109.612  0.00  0.00    +0.000 A 
BRANCH  90  93
ATOM     93  O16 UNL     1      89.713  67.243 111.147  0.00  0.00    +0.000 OA
ATOM     94  H66 UNL     1      90.233  67.880 111.739  0.00  0.00    +0.000 HD
ENDBRANCH  90  93
ENDBRANCH  86  87
BRANCH  86  95
ATOM     95  O15 UNL     1      90.774  61.131 109.828  0.00  0.00    +0.000 OA
ATOM     96  H63 UNL     1      90.686  60.793 108.899  0.00  0.00    +0.000 HD
ENDBRANCH  86  95
ENDBRANCH  83  86
ENDBRANCH  20  83
TORSDOF 23
ENDMDL
MODEL 9
REMARK VINA RESULT:      -7.0      3.520      4.628
REMARK  Name = ./S4286.pdb
REMARK  27 active torsions:
REMARK  status: ('A' for Active; 'I' for Inactive)
REMARK    1  A    between atoms: C1_1  and  C2_2
REMARK    2  A    between atoms: C2_2  and  C3_3
REMARK    3  A    between atoms: C3_3  and  C4_4
REMARK    4  A    between atoms: C4_4  and  C5_5
REMARK    5  A    between atoms: C5_5  and  O1_6
REMARK    6  A    between atoms: O1_6  and  C6_7
REMARK    7  A    between atoms: C9_10  and  C12_13
REMARK    8  A    between atoms: C15_16  and  C18_19
REMARK    9  A    between atoms: C21_22  and  C24_25
REMARK   10  A    between atoms: N1_27  and  C25_28
REMARK   11  A    between atoms: C27_30  and  O3_31
REMARK   12  A    between atoms: C28_32  and  O4_33
REMARK   13  A    between atoms: C31_38  and  O6_39
REMARK   14  A    between atoms: C32_40  and  C33_41
REMARK   15  A    between atoms: C36_46  and  C57_80
REMARK   16  A    between atoms: C38_50  and  C49_69
REMARK   17  A    between atoms: C42_56  and  O10_57
REMARK   18  A    between atoms: C45_62  and  C47_66
REMARK   19  A    between atoms: C47_66  and  C48_67
REMARK   20  A    between atoms: C47_66  and  O13_68
REMARK   21  A    between atoms: C49_69  and  O14_70
REMARK   22  A    between atoms: C49_69  and  C50_71
REMARK   23  A    between atoms: C50_71  and  O15_72
REMARK   24  A    between atoms: C50_71  and  C51_73
REMARK   25  A    between atoms: C54_76  and  O16_77
REMARK   26  A    between atoms: C57_80  and  C58_81
REMARK   27  A    between atoms: C57_80  and  O17_82
REMARK                            x       y       z     vdW  Elec       q    Type
REMARK                         _______ _______ _______ _____ _____    ______ ____
ROOT
ATOM      1  C25 UNL     1      78.584  65.814 101.802  0.00  0.00    +0.000 C 
ATOM      2  C26 UNL     1      77.888  64.519 101.293  0.00  0.00    +0.000 C 
ATOM      3  C27 UNL     1      76.346  64.632 101.321  0.00  0.00    +0.000 C 
ATOM      4  C28 UNL     1      75.638  63.323 100.905  0.00  0.00    +0.000 C 
ATOM      5  N2  UNL     1      75.749  62.300 101.950  0.00  0.00    +0.000 N 
ATOM      6  C29 UNL     1      74.941  61.111 101.932  0.00  0.00    +0.000 C 
ATOM      7  O5  UNL     1      74.112  60.920 101.001  0.00  0.00    +0.000 OA
ATOM      8  C30 UNL     1      75.067  60.081 103.024  0.00  0.00    +0.000 C 
ATOM      9  C31 UNL     1      76.463  59.431 103.013  0.00  0.00    +0.000 C 
ATOM     10  C32 UNL     1      76.881  59.355 104.486  0.00  0.00    +0.000 C 
ATOM     11  C33 UNL     1      78.391  59.538 104.684  0.00  0.00    +0.000 C 
ATOM     12  C34 UNL     1      76.067  60.434 105.197  0.00  0.00    +0.000 C 
ATOM     13  N3  UNL     1      74.913  60.683 104.346  0.00  0.00    +0.000 N 
ATOM     14  C35 UNL     1      73.709  61.365 104.767  0.00  0.00    +0.000 C 
ATOM     15  O7  UNL     1      72.933  61.838 103.894  0.00  0.00    +0.000 OA
ATOM     16  C36 UNL     1      73.291  61.476 106.227  0.00  0.00    +0.000 C 
ATOM     17  N4  UNL     1      74.320  62.201 106.994  0.00  0.00    +0.000 N 
ATOM     18  C37 UNL     1      74.241  62.448 108.410  0.00  0.00    +0.000 C 
ATOM     19  O8  UNL     1      74.028  61.487 109.196  0.00  0.00    +0.000 OA
ATOM     20  C38 UNL     1      74.502  63.821 109.012  0.00  0.00    +0.000 C 
ATOM     21  N5  UNL     1      74.812  64.837 107.998  0.00  0.00    +0.000 N 
ATOM     22  C39 UNL     1      75.601  66.003 108.297  0.00  0.00    +0.000 C 
ATOM     23  O9  UNL     1      76.059  66.178 109.458  0.00  0.00    +0.000 OA
ATOM     24  C40 UNL     1      75.919  67.010 107.222  0.00  0.00    +0.000 C 
ATOM     25  C41 UNL     1      74.652  67.538 106.534  0.00  0.00    +0.000 C 
ATOM     26  C42 UNL     1      74.784  67.172 105.050  0.00  0.00    +0.000 C 
ATOM     27  C43 UNL     1      76.027  66.290 104.916  0.00  0.00    +0.000 C 
ATOM     28  N6  UNL     1      76.731  66.383 106.184  0.00  0.00    +0.000 N 
ATOM     29  C44 UNL     1      78.158  66.192 106.338  0.00  0.00    +0.000 C 
ATOM     30  O11 UNL     1      78.785  66.935 107.140  0.00  0.00    +0.000 OA
ATOM     31  C45 UNL     1      78.940  65.086 105.644  0.00  0.00    +0.000 C 
ATOM     32  N7  UNL     1      78.557  64.943 104.235  0.00  0.00    +0.000 N 
ATOM     33  C46 UNL     1      79.189  65.708 103.190  0.00  0.00    +0.000 C 
ATOM     34  O12 UNL     1      80.212  66.396 103.459  0.00  0.00    +0.000 OA
ATOM     35  H32 UNL     1      76.380  62.457 102.769  0.00  0.00    +0.000 HD
ATOM     36  H43 UNL     1      75.016  62.755 106.452  0.00  0.00    +0.000 HD
ATOM     37  H45 UNL     1      74.353  64.783 107.063  0.00  0.00    +0.000 HD
ATOM     38  H54 UNL     1      77.759  64.313 104.000  0.00  0.00    +0.000 HD
ENDROOT
BRANCH   1  41
ATOM     39  C24 UNL     1      80.679  65.415 100.381  0.00  0.00    +0.000 C 
ATOM     40  O2  UNL     1      80.689  64.190 100.685  0.00  0.00    +0.000 OA
ATOM     41  N1  UNL     1      79.599  66.254 100.834  0.00  0.00    +0.000 N 
ATOM     42  H24 UNL     1      79.501  67.216 100.443  0.00  0.00    +0.000 HD
BRANCH  39  46
ATOM     43  C18 UNL     1      83.851  67.035  97.954  0.00  0.00    +0.000 A 
ATOM     44  C19 UNL     1      83.715  65.645  98.113  0.00  0.00    +0.000 A 
ATOM     45  C20 UNL     1      82.686  65.116  98.897  0.00  0.00    +0.000 A 
ATOM     46  C21 UNL     1      81.774  65.965  99.546  0.00  0.00    +0.000 A 
ATOM     47  C22 UNL     1      81.899  67.353  99.374  0.00  0.00    +0.000 A 
ATOM     48  C23 UNL     1      82.928  67.883  98.589  0.00  0.00    +0.000 A 
BRANCH  43  52
ATOM     49  C12 UNL     1      87.005  68.674  95.513  0.00  0.00    +0.000 A 
ATOM     50  C13 UNL     1      86.365  67.478  95.147  0.00  0.00    +0.000 A 
ATOM     51  C14 UNL     1      85.347  66.944  95.943  0.00  0.00    +0.000 A 
ATOM     52  C15 UNL     1      84.948  67.593  97.123  0.00  0.00    +0.000 A 
ATOM     53  C16 UNL     1      85.593  68.785  97.495  0.00  0.00    +0.000 A 
ATOM     54  C17 UNL     1      86.610  69.321  96.698  0.00  0.00    +0.000 A 
BRANCH  49  58
ATOM     55  C6  UNL     1      90.047  70.401  92.998  0.00  0.00    +0.000 A 
ATOM     56  C7  UNL     1      89.972  70.741  94.362  0.00  0.00    +0.000 A 
ATOM     57  C8  UNL     1      88.992  70.172  95.178  0.00  0.00    +0.000 A 
ATOM     58  C9  UNL     1      88.066  69.254  94.650  0.00  0.00    +0.000 A 
ATOM     59  C10 UNL     1      88.152  68.909  93.289  0.00  0.00    +0.000 A 
ATOM     60  C11 UNL     1      89.136  69.477  92.475  0.00  0.00    +0.000 A 
BRANCH  55  61
ATOM     61  O1  UNL     1      91.003  70.957  92.135  0.00  0.00    +0.000 OA
BRANCH  61  62
ATOM     62  C5  UNL     1      91.645  72.211  92.351  0.00  0.00    +0.000 C 
BRANCH  62  63
ATOM     63  C4  UNL     1      91.080  73.248  91.379  0.00  0.00    +0.000 C 
BRANCH  63  64
ATOM     64  C3  UNL     1      91.344  74.704  91.819  0.00  0.00    +0.000 C 
BRANCH  64  66
ATOM     65  C1  UNL     1      92.807  76.791  91.494  0.00  0.00    +0.000 C 
ATOM     66  C2  UNL     1      92.284  75.491  90.883  0.00  0.00    +0.000 C 
ENDBRANCH  64  66
ENDBRANCH  63  64
ENDBRANCH  62  63
ENDBRANCH  61  62
ENDBRANCH  55  61
ENDBRANCH  49  58
ENDBRANCH  43  52
ENDBRANCH  39  46
ENDBRANCH   1  41
BRANCH   3  67
ATOM     67  O3  UNL     1      75.952  65.661 100.448  0.00  0.00    +0.000 OA
ATOM     68  H29 UNL     1      75.051  65.963 100.741  0.00  0.00    +0.000 HD
ENDBRANCH   3  67
BRANCH   4  69
ATOM     69  O4  UNL     1      76.184  62.843  99.702  0.00  0.00    +0.000 OA
ATOM     70  H31 UNL     1      77.031  63.334  99.546  0.00  0.00    +0.000 HD
ENDBRANCH   4  69
BRANCH   9  71
ATOM     71  O6  UNL     1      76.417  58.145 102.455  0.00  0.00    +0.000 OA
ATOM     72  H35 UNL     1      75.585  57.720 102.795  0.00  0.00    +0.000 HD
ENDBRANCH   9  71
BRANCH  26  73
ATOM     73  O10 UNL     1      73.630  66.541 104.550  0.00  0.00    +0.000 OA
ATOM     74  H50 UNL     1      73.718  66.474 103.565  0.00  0.00    +0.000 HD
ENDBRANCH  26  73
BRANCH  31  75
ATOM     75  C47 UNL     1      78.833  63.728 106.376  0.00  0.00    +0.000 C 
ATOM     76  C48 UNL     1      80.124  62.898 106.275  0.00  0.00    +0.000 C 
BRANCH  75  77
ATOM     77  O13 UNL     1      78.447  63.904 107.714  0.00  0.00    +0.000 OA
ATOM     78  H59 UNL     1      79.160  63.528 108.288  0.00  0.00    +0.000 HD
ENDBRANCH  75  77
ENDBRANCH  31  75
BRANCH  16  79
ATOM     79  C57 UNL     1      72.925  60.088 106.854  0.00  0.00    +0.000 C 
ATOM     80  C58 UNL     1      72.617  58.991 105.817  0.00  0.00    +0.000 C 
BRANCH  79  81
ATOM     81  O17 UNL     1      71.824  60.217 107.720  0.00  0.00    +0.000 OA
ATOM     82  H73 UNL     1      71.792  59.408 108.296  0.00  0.00    +0.000 HD
ENDBRANCH  79  81
ENDBRANCH  16  79
BRANCH  20  83
ATOM     83  C49 UNL     1      73.330  64.299 109.913  0.00  0.00    +0.000 C 
BRANCH  83  84
ATOM     84  O14 UNL     1      73.351  63.598 111.132  0.00  0.00    +0.000 OA
ATOM     85  H61 UNL     1      72.455  63.712 111.547  0.00  0.00    +0.000 HD
ENDBRANCH  83  84
BRANCH  83  86
ATOM     86  C50 UNL     1      71.936  64.137 109.258  0.00  0.00    +0.000 C 
BRANCH  86  87
ATOM     87  C51 UNL     1      71.438  65.469 108.734  0.00  0.00    +0.000 A 
ATOM     88  C52 UNL     1      71.380  65.711 107.351  0.00  0.00    +0.000 A 
ATOM     89  C53 UNL     1      70.888  66.927 106.867  0.00  0.00    +0.000 A 
ATOM     90  C54 UNL     1      70.443  67.913 107.758  0.00  0.00    +0.000 A 
ATOM     91  C55 UNL     1      70.492  67.675 109.136  0.00  0.00    +0.000 A 
ATOM     92  C56 UNL     1      70.983  66.461 109.622  0.00  0.00    +0.000 A 
BRANCH  90  93
ATOM     93  O16 UNL     1      69.947  69.126 107.286  0.00  0.00    +0.000 OA
ATOM     94  H66 UNL     1      69.162  69.587 107.731  0.00  0.00    +0.000 HD
ENDBRANCH  90  93
ENDBRANCH  86  87
BRANCH  86  95
ATOM     95  O15 UNL     1      72.003  63.216 108.198  0.00  0.00    +0.000 OA
ATOM     96  H63 UNL     1      71.151  62.707 108.206  0.00  0.00    +0.000 HD
ENDBRANCH  86  95
ENDBRANCH  83  86
ENDBRANCH  20  83
TORSDOF 23
ENDMDL
MODEL 10
REMARK VINA RESULT:      -6.9      9.874     15.361
REMARK  Name = ./S4286.pdb
REMARK  27 active torsions:
REMARK  status: ('A' for Active; 'I' for Inactive)
REMARK    1  A    between atoms: C1_1  and  C2_2
REMARK    2  A    between atoms: C2_2  and  C3_3
REMARK    3  A    between atoms: C3_3  and  C4_4
REMARK    4  A    between atoms: C4_4  and  C5_5
REMARK    5  A    between atoms: C5_5  and  O1_6
REMARK    6  A    between atoms: O1_6  and  C6_7
REMARK    7  A    between atoms: C9_10  and  C12_13
REMARK    8  A    between atoms: C15_16  and  C18_19
REMARK    9  A    between atoms: C21_22  and  C24_25
REMARK   10  A    between atoms: N1_27  and  C25_28
REMARK   11  A    between atoms: C27_30  and  O3_31
REMARK   12  A    between atoms: C28_32  and  O4_33
REMARK   13  A    between atoms: C31_38  and  O6_39
REMARK   14  A    between atoms: C32_40  and  C33_41
REMARK   15  A    between atoms: C36_46  and  C57_80
REMARK   16  A    between atoms: C38_50  and  C49_69
REMARK   17  A    between atoms: C42_56  and  O10_57
REMARK   18  A    between atoms: C45_62  and  C47_66
REMARK   19  A    between atoms: C47_66  and  C48_67
REMARK   20  A    between atoms: C47_66  and  O13_68
REMARK   21  A    between atoms: C49_69  and  O14_70
REMARK   22  A    between atoms: C49_69  and  C50_71
REMARK   23  A    between atoms: C50_71  and  O15_72
REMARK   24  A    between atoms: C50_71  and  C51_73
REMARK   25  A    between atoms: C54_76  and  O16_77
REMARK   26  A    between atoms: C57_80  and  C58_81
REMARK   27  A    between atoms: C57_80  and  O17_82
REMARK                            x       y       z     vdW  Elec       q    Type
REMARK                         _______ _______ _______ _____ _____    ______ ____
ROOT
ATOM      1  C25 UNL     1      73.784  68.868 109.023  0.00  0.00    +0.000 C 
ATOM      2  C26 UNL     1      75.096  69.670 108.780  0.00  0.00    +0.000 C 
ATOM      3  C27 UNL     1      74.981  71.138 109.253  0.00  0.00    +0.000 C 
ATOM      4  C28 UNL     1      76.242  71.973 108.936  0.00  0.00    +0.000 C 
ATOM      5  N2  UNL     1      76.344  72.267 107.503  0.00  0.00    +0.000 N 
ATOM      6  C29 UNL     1      77.254  73.257 106.997  0.00  0.00    +0.000 C 
ATOM      7  O5  UNL     1      77.998  73.899 107.788  0.00  0.00    +0.000 OA
ATOM      8  C30 UNL     1      77.330  73.546 105.520  0.00  0.00    +0.000 C 
ATOM      9  C31 UNL     1      77.841  72.321 104.742  0.00  0.00    +0.000 C 
ATOM     10  C32 UNL     1      76.946  72.233 103.500  0.00  0.00    +0.000 C 
ATOM     11  C33 UNL     1      76.688  70.788 103.055  0.00  0.00    +0.000 C 
ATOM     12  C34 UNL     1      75.659  72.964 103.874  0.00  0.00    +0.000 C 
ATOM     13  N3  UNL     1      76.013  73.855 104.968  0.00  0.00    +0.000 N 
ATOM     14  C35 UNL     1      75.213  74.974 105.414  0.00  0.00    +0.000 C 
ATOM     15  O7  UNL     1      75.415  75.456 106.561  0.00  0.00    +0.000 OA
ATOM     16  C36 UNL     1      74.179  75.654 104.528  0.00  0.00    +0.000 C 
ATOM     17  N4  UNL     1      73.137  74.689 104.135  0.00  0.00    +0.000 N 
ATOM     18  C37 UNL     1      72.029  75.008 103.273  0.00  0.00    +0.000 C 
ATOM     19  O8  UNL     1      72.249  75.549 102.157  0.00  0.00    +0.000 OA
ATOM     20  C38 UNL     1      70.596  74.630 103.615  0.00  0.00    +0.000 C 
ATOM     21  N5  UNL     1      70.482  73.940 104.906  0.00  0.00    +0.000 N 
ATOM     22  C39 UNL     1      69.406  73.029 105.196  0.00  0.00    +0.000 C 
ATOM     23  O9  UNL     1      68.523  72.794 104.330  0.00  0.00    +0.000 OA
ATOM     24  C40 UNL     1      69.340  72.319 106.524  0.00  0.00    +0.000 C 
ATOM     25  C41 UNL     1      69.376  73.302 107.705  0.00  0.00    +0.000 C 
ATOM     26  C42 UNL     1      70.618  72.938 108.529  0.00  0.00    +0.000 C 
ATOM     27  C43 UNL     1      71.385  71.876 107.738  0.00  0.00    +0.000 C 
ATOM     28  N6  UNL     1      70.496  71.441 106.673  0.00  0.00    +0.000 N 
ATOM     29  C44 UNL     1      70.550  70.135 106.051  0.00  0.00    +0.000 C 
ATOM     30  O11 UNL     1      69.469  69.560 105.754  0.00  0.00    +0.000 OA
ATOM     31  C45 UNL     1      71.848  69.443 105.657  0.00  0.00    +0.000 C 
ATOM     32  N7  UNL     1      72.868  69.550 106.705  0.00  0.00    +0.000 N 
ATOM     33  C46 UNL     1      72.969  68.589 107.774  0.00  0.00    +0.000 C 
ATOM     34  O12 UNL     1      72.278  67.534 107.725  0.00  0.00    +0.000 OA
ATOM     35  H32 UNL     1      75.697  71.798 106.828  0.00  0.00    +0.000 HD
ATOM     36  H43 UNL     1      73.071  73.807 104.687  0.00  0.00    +0.000 HD
ATOM     37  H45 UNL     1      71.127  74.199 105.684  0.00  0.00    +0.000 HD
ATOM     38  H54 UNL     1      73.495  70.384 106.703  0.00  0.00    +0.000 HD
ENDROOT
BRANCH   1  41
ATOM     39  C24 UNL     1      74.605  67.564 111.072  0.00  0.00    +0.000 C 
ATOM     40  O2  UNL     1      74.664  68.621 111.759  0.00  0.00    +0.000 OA
ATOM     41  N1  UNL     1      74.084  67.614 109.728  0.00  0.00    +0.000 N 
ATOM     42  H24 UNL     1      73.876  66.722 109.228  0.00  0.00    +0.000 HD
BRANCH  39  46
ATOM     43  C18 UNL     1      75.925  63.833 112.780  0.00  0.00    +0.000 A 
ATOM     44  C19 UNL     1      75.274  64.791 113.577  0.00  0.00    +0.000 A 
ATOM     45  C20 UNL     1      74.841  66.000 113.026  0.00  0.00    +0.000 A 
ATOM     46  C21 UNL     1      75.058  66.284 111.666  0.00  0.00    +0.000 A 
ATOM     47  C22 UNL     1      75.693  65.320 110.866  0.00  0.00    +0.000 A 
ATOM     48  C23 UNL     1      76.125  64.110 111.417  0.00  0.00    +0.000 A 
BRANCH  43  52
ATOM     49  C12 UNL     1      77.286  60.134 114.527  0.00  0.00    +0.000 A 
ATOM     50  C13 UNL     1      78.093  60.834 113.613  0.00  0.00    +0.000 A 
ATOM     51  C14 UNL     1      77.648  62.029 113.043  0.00  0.00    +0.000 A 
ATOM     52  C15 UNL     1      76.386  62.551 113.371  0.00  0.00    +0.000 A 
ATOM     53  C16 UNL     1      75.575  61.848 114.277  0.00  0.00    +0.000 A 
ATOM     54  C17 UNL     1      76.020  60.653 114.850  0.00  0.00    +0.000 A 
BRANCH  49  58
ATOM     55  C6  UNL     1      78.654  56.467 116.329  0.00  0.00    +0.000 A 
ATOM     56  C7  UNL     1      78.903  56.730 114.969  0.00  0.00    +0.000 A 
ATOM     57  C8  UNL     1      78.468  57.924 114.389  0.00  0.00    +0.000 A 
ATOM     58  C9  UNL     1      77.775  58.879 115.154  0.00  0.00    +0.000 A 
ATOM     59  C10 UNL     1      77.538  58.617 116.515  0.00  0.00    +0.000 A 
ATOM     60  C11 UNL     1      77.978  57.423 117.094  0.00  0.00    +0.000 A 
BRANCH  55  61
ATOM     61  O1  UNL     1      79.057  55.277 116.953  0.00  0.00    +0.000 OA
BRANCH  61  62
ATOM     62  C5  UNL     1      78.568  53.984 116.604  0.00  0.00    +0.000 C 
BRANCH  62  63
ATOM     63  C4  UNL     1      77.157  53.805 117.164  0.00  0.00    +0.000 C 
BRANCH  63  64
ATOM     64  C3  UNL     1      76.052  53.964 116.098  0.00  0.00    +0.000 C 
BRANCH  64  66
ATOM     65  C1  UNL     1      75.080  56.163 115.191  0.00  0.00    +0.000 C 
ATOM     66  C2  UNL     1      75.100  55.153 116.339  0.00  0.00    +0.000 C 
ENDBRANCH  64  66
ENDBRANCH  63  64
ENDBRANCH  62  63
ENDBRANCH  61  62
ENDBRANCH  55  61
ENDBRANCH  49  58
ENDBRANCH  43  52
ENDBRANCH  39  46
ENDBRANCH   1  41
BRANCH   3  67
ATOM     67  O3  UNL     1      74.762  71.150 110.641  0.00  0.00    +0.000 OA
ATOM     68  H29 UNL     1      75.332  71.871 111.020  0.00  0.00    +0.000 HD
ENDBRANCH   3  67
BRANCH   4  69
ATOM     69  O4  UNL     1      77.392  71.289 109.369  0.00  0.00    +0.000 OA
ATOM     70  H31 UNL     1      77.097  70.598 110.015  0.00  0.00    +0.000 HD
ENDBRANCH   4  69
BRANCH   9  71
ATOM     71  O6  UNL     1      79.181  72.485 104.363  0.00  0.00    +0.000 OA
ATOM     72  H35 UNL     1      79.541  73.229 104.917  0.00  0.00    +0.000 HD
ENDBRANCH   9  71
BRANCH  26  73
ATOM     73  O10 UNL     1      71.415  74.061 108.818  0.00  0.00    +0.000 OA
ATOM     74  H50 UNL     1      72.023  74.213 108.050  0.00  0.00    +0.000 HD
ENDBRANCH  26  73
BRANCH  31  75
ATOM     75  C47 UNL     1      72.405  69.944 104.303  0.00  0.00    +0.000 C 
ATOM     76  C48 UNL     1      73.461  68.995 103.712  0.00  0.00    +0.000 C 
BRANCH  75  77
ATOM     77  O13 UNL     1      71.370  70.184 103.388  0.00  0.00    +0.000 OA
ATOM     78  H59 UNL     1      70.520  69.896 103.806  0.00  0.00    +0.000 HD
ENDBRANCH  75  77
ENDBRANCH  31  75
BRANCH  16  79
ATOM     79  C57 UNL     1      74.826  76.387 103.304  0.00  0.00    +0.000 C 
ATOM     80  C58 UNL     1      76.318  76.721 103.488  0.00  0.00    +0.000 C 
BRANCH  79  81
ATOM     81  O17 UNL     1      74.126  77.574 103.019  0.00  0.00    +0.000 OA
ATOM     82  H73 UNL     1      73.790  77.514 102.086  0.00  0.00    +0.000 HD
ENDBRANCH  79  81
ENDBRANCH  16  79
BRANCH  20  83
ATOM     83  C49 UNL     1      69.639  75.854 103.573  0.00  0.00    +0.000 C 
BRANCH  83  84
ATOM     84  O14 UNL     1      69.785  76.530 102.348  0.00  0.00    +0.000 OA
ATOM     85  H61 UNL     1      70.563  77.140 102.446  0.00  0.00    +0.000 HD
ENDBRANCH  83  84
BRANCH  83  86
ATOM     86  C50 UNL     1      69.860  76.855 104.735  0.00  0.00    +0.000 C 
BRANCH  86  87
ATOM     87  C51 UNL     1      68.775  76.700 105.781  0.00  0.00    +0.000 A 
ATOM     88  C52 UNL     1      67.513  76.194 105.425  0.00  0.00    +0.000 A 
ATOM     89  C53 UNL     1      66.522  76.019 106.396  0.00  0.00    +0.000 A 
ATOM     90  C54 UNL     1      66.782  76.341 107.735  0.00  0.00    +0.000 A 
ATOM     91  C55 UNL     1      68.038  76.840 108.097  0.00  0.00    +0.000 A 
ATOM     92  C56 UNL     1      69.030  77.015 107.128  0.00  0.00    +0.000 A 
BRANCH  90  93
ATOM     93  O16 UNL     1      65.804  76.166 108.711  0.00  0.00    +0.000 OA
ATOM     94  H66 UNL     1      65.851  76.649 109.601  0.00  0.00    +0.000 HD
ENDBRANCH  90  93
ENDBRANCH  86  87
BRANCH  86  95
ATOM     95  O15 UNL     1      71.115  76.638 105.330  0.00  0.00    +0.000 OA
ATOM     96  H63 UNL     1      71.195  77.287 106.076  0.00  0.00    +0.000 HD
ENDBRANCH  86  95
ENDBRANCH  83  86
ENDBRANCH  20  83
TORSDOF 23
ENDMDL
MODEL 11
REMARK VINA RESULT:      -6.9      7.583      9.976
REMARK  Name = ./S4286.pdb
REMARK  27 active torsions:
REMARK  status: ('A' for Active; 'I' for Inactive)
REMARK    1  A    between atoms: C1_1  and  C2_2
REMARK    2  A    between atoms: C2_2  and  C3_3
REMARK    3  A    between atoms: C3_3  and  C4_4
REMARK    4  A    between atoms: C4_4  and  C5_5
REMARK    5  A    between atoms: C5_5  and  O1_6
REMARK    6  A    between atoms: O1_6  and  C6_7
REMARK    7  A    between atoms: C9_10  and  C12_13
REMARK    8  A    between atoms: C15_16  and  C18_19
REMARK    9  A    between atoms: C21_22  and  C24_25
REMARK   10  A    between atoms: N1_27  and  C25_28
REMARK   11  A    between atoms: C27_30  and  O3_31
REMARK   12  A    between atoms: C28_32  and  O4_33
REMARK   13  A    between atoms: C31_38  and  O6_39
REMARK   14  A    between atoms: C32_40  and  C33_41
REMARK   15  A    between atoms: C36_46  and  C57_80
REMARK   16  A    between atoms: C38_50  and  C49_69
REMARK   17  A    between atoms: C42_56  and  O10_57
REMARK   18  A    between atoms: C45_62  and  C47_66
REMARK   19  A    between atoms: C47_66  and  C48_67
REMARK   20  A    between atoms: C47_66  and  O13_68
REMARK   21  A    between atoms: C49_69  and  O14_70
REMARK   22  A    between atoms: C49_69  and  C50_71
REMARK   23  A    between atoms: C50_71  and  O15_72
REMARK   24  A    between atoms: C50_71  and  C51_73
REMARK   25  A    between atoms: C54_76  and  O16_77
REMARK   26  A    between atoms: C57_80  and  C58_81
REMARK   27  A    between atoms: C57_80  and  O17_82
REMARK                            x       y       z     vdW  Elec       q    Type
REMARK                         _______ _______ _______ _____ _____    ______ ____
ROOT
ATOM      1  C25 UNL     1      78.960  64.163 106.383  0.00  0.00    +0.000 C 
ATOM      2  C26 UNL     1      77.739  63.612 107.174  0.00  0.00    +0.000 C 
ATOM      3  C27 UNL     1      76.485  63.454 106.283  0.00  0.00    +0.000 C 
ATOM      4  C28 UNL     1      75.239  62.995 107.073  0.00  0.00    +0.000 C 
ATOM      5  N2  UNL     1      74.710  64.073 107.914  0.00  0.00    +0.000 N 
ATOM      6  C29 UNL     1      73.407  63.993 108.515  0.00  0.00    +0.000 C 
ATOM      7  O5  UNL     1      72.684  62.976 108.332  0.00  0.00    +0.000 OA
ATOM      8  C30 UNL     1      72.885  65.121 109.366  0.00  0.00    +0.000 C 
ATOM      9  C31 UNL     1      73.733  65.293 110.639  0.00  0.00    +0.000 C 
ATOM     10  C32 UNL     1      73.922  66.807 110.793  0.00  0.00    +0.000 C 
ATOM     11  C33 UNL     1      75.283  67.177 111.396  0.00  0.00    +0.000 C 
ATOM     12  C34 UNL     1      73.730  67.386 109.393  0.00  0.00    +0.000 C 
ATOM     13  N3  UNL     1      72.952  66.398 108.661  0.00  0.00    +0.000 N 
ATOM     14  C35 UNL     1      72.247  66.654 107.424  0.00  0.00    +0.000 C 
ATOM     15  O7  UNL     1      71.909  65.683 106.696  0.00  0.00    +0.000 OA
ATOM     16  C36 UNL     1      71.823  68.051 106.989  0.00  0.00    +0.000 C 
ATOM     17  N4  UNL     1      73.008  68.913 106.834  0.00  0.00    +0.000 N 
ATOM     18  C37 UNL     1      72.948  70.303 106.462  0.00  0.00    +0.000 C 
ATOM     19  O8  UNL     1      72.199  71.085 107.106  0.00  0.00    +0.000 OA
ATOM     20  C38 UNL     1      73.831  70.893 105.373  0.00  0.00    +0.000 C 
ATOM     21  N5  UNL     1      74.710  69.894 104.750  0.00  0.00    +0.000 N 
ATOM     22  C39 UNL     1      75.962  70.252 104.135  0.00  0.00    +0.000 C 
ATOM     23  O9  UNL     1      76.341  71.453 104.121  0.00  0.00    +0.000 OA
ATOM     24  C40 UNL     1      76.848  69.195 103.531  0.00  0.00    +0.000 C 
ATOM     25  C41 UNL     1      76.105  68.347 102.488  0.00  0.00    +0.000 C 
ATOM     26  C42 UNL     1      76.156  66.899 102.994  0.00  0.00    +0.000 C 
ATOM     27  C43 UNL     1      76.765  66.938 104.397  0.00  0.00    +0.000 C 
ATOM     28  N6  UNL     1      77.302  68.277 104.572  0.00  0.00    +0.000 N 
ATOM     29  C44 UNL     1      78.402  68.604 105.454  0.00  0.00    +0.000 C 
ATOM     30  O11 UNL     1      79.252  69.454 105.074  0.00  0.00    +0.000 OA
ATOM     31  C45 UNL     1      78.552  68.039 106.859  0.00  0.00    +0.000 C 
ATOM     32  N7  UNL     1      78.274  66.599 106.905  0.00  0.00    +0.000 N 
ATOM     33  C46 UNL     1      79.298  65.615 106.666  0.00  0.00    +0.000 C 
ATOM     34  O12 UNL     1      80.503  65.983 106.581  0.00  0.00    +0.000 OA
ATOM     35  H32 UNL     1      75.257  64.956 108.034  0.00  0.00    +0.000 HD
ATOM     36  H43 UNL     1      73.936  68.442 106.765  0.00  0.00    +0.000 HD
ATOM     37  H45 UNL     1      74.374  68.913 104.641  0.00  0.00    +0.000 HD
ATOM     38  H54 UNL     1      77.288  66.290 107.053  0.00  0.00    +0.000 HD
ENDROOT
BRANCH   1  41
ATOM     39  C24 UNL     1      80.483  62.195 105.767  0.00  0.00    +0.000 C 
ATOM     40  O2  UNL     1      79.862  62.015 104.682  0.00  0.00    +0.000 OA
ATOM     41  N1  UNL     1      80.135  63.310 106.611  0.00  0.00    +0.000 N 
ATOM     42  H24 UNL     1      80.756  63.556 107.413  0.00  0.00    +0.000 HD
BRANCH  39  46
ATOM     43  C18 UNL     1      83.637  59.466 106.854  0.00  0.00    +0.000 A 
ATOM     44  C19 UNL     1      83.480  60.684 107.539  0.00  0.00    +0.000 A 
ATOM     45  C20 UNL     1      82.457  61.570 107.191  0.00  0.00    +0.000 A 
ATOM     46  C21 UNL     1      81.571  61.262 106.145  0.00  0.00    +0.000 A 
ATOM     47  C22 UNL     1      81.715  60.038 105.472  0.00  0.00    +0.000 A 
ATOM     48  C23 UNL     1      82.739  59.151 105.819  0.00  0.00    +0.000 A 
BRANCH  43  52
ATOM     49  C12 UNL     1      86.785  56.742 107.973  0.00  0.00    +0.000 A 
ATOM     50  C13 UNL     1      86.853  58.100 108.330  0.00  0.00    +0.000 A 
ATOM     51  C14 UNL     1      85.835  58.983 107.961  0.00  0.00    +0.000 A 
ATOM     52  C15 UNL     1      84.727  58.530 107.225  0.00  0.00    +0.000 A 
ATOM     53  C16 UNL     1      84.663  57.174 106.859  0.00  0.00    +0.000 A 
ATOM     54  C17 UNL     1      85.680  56.289 107.230  0.00  0.00    +0.000 A 
BRANCH  49  58
ATOM     55  C6  UNL     1      89.868  54.012 109.243  0.00  0.00    +0.000 A 
ATOM     56  C7  UNL     1      88.603  53.530 108.857  0.00  0.00    +0.000 A 
ATOM     57  C8  UNL     1      87.608  54.416 108.435  0.00  0.00    +0.000 A 
ATOM     58  C9  UNL     1      87.855  55.800 108.392  0.00  0.00    +0.000 A 
ATOM     59  C10 UNL     1      89.123  56.276 108.768  0.00  0.00    +0.000 A 
ATOM     60  C11 UNL     1      90.118  55.387 109.187  0.00  0.00    +0.000 A 
BRANCH  55  61
ATOM     61  O1  UNL     1      90.893  53.165 109.689  0.00  0.00    +0.000 OA
BRANCH  61  62
ATOM     62  C5  UNL     1      91.456  53.208 110.998  0.00  0.00    +0.000 C 
BRANCH  62  63
ATOM     63  C4  UNL     1      90.397  52.799 112.022  0.00  0.00    +0.000 C 
BRANCH  63  64
ATOM     64  C3  UNL     1      89.792  53.998 112.785  0.00  0.00    +0.000 C 
BRANCH  64  66
ATOM     65  C1  UNL     1      87.847  55.573 112.206  0.00  0.00    +0.000 C 
ATOM     66  C2  UNL     1      88.269  54.160 112.611  0.00  0.00    +0.000 C 
ENDBRANCH  64  66
ENDBRANCH  63  64
ENDBRANCH  62  63
ENDBRANCH  61  62
ENDBRANCH  55  61
ENDBRANCH  49  58
ENDBRANCH  43  52
ENDBRANCH  39  46
ENDBRANCH   1  41
BRANCH   3  67
ATOM     67  O3  UNL     1      76.761  62.512 105.277  0.00  0.00    +0.000 OA
ATOM     68  H29 UNL     1      77.199  61.736 105.716  0.00  0.00    +0.000 HD
ENDBRANCH   3  67
BRANCH   4  69
ATOM     69  O4  UNL     1      75.557  61.878 107.866  0.00  0.00    +0.000 OA
ATOM     70  H31 UNL     1      74.859  61.806 108.566  0.00  0.00    +0.000 HD
ENDBRANCH   4  69
BRANCH   9  71
ATOM     71  O6  UNL     1      73.074  64.770 111.761  0.00  0.00    +0.000 OA
ATOM     72  H35 UNL     1      73.371  63.825 111.846  0.00  0.00    +0.000 HD
ENDBRANCH   9  71
BRANCH  26  73
ATOM     73  O10 UNL     1      74.890  66.285 102.982  0.00  0.00    +0.000 OA
ATOM     74  H50 UNL     1      74.214  66.979 102.771  0.00  0.00    +0.000 HD
ENDBRANCH  26  73
BRANCH  31  75
ATOM     75  C47 UNL     1      77.691  68.791 107.901  0.00  0.00    +0.000 C 
ATOM     76  C48 UNL     1      78.342  70.104 108.367  0.00  0.00    +0.000 C 
BRANCH  75  77
ATOM     77  O13 UNL     1      76.392  69.012 107.419  0.00  0.00    +0.000 OA
ATOM     78  H59 UNL     1      75.754  68.708 108.112  0.00  0.00    +0.000 HD
ENDBRANCH  75  77
ENDBRANCH  31  75
BRANCH  16  79
ATOM     79  C57 UNL     1      70.737  68.669 107.933  0.00  0.00    +0.000 C 
ATOM     80  C58 UNL     1      70.203  67.695 109.000  0.00  0.00    +0.000 C 
BRANCH  79  81
ATOM     81  O17 UNL     1      69.653  69.155 107.179  0.00  0.00    +0.000 OA
ATOM     82  H73 UNL     1      69.654  68.683 106.304  0.00  0.00    +0.000 HD
ENDBRANCH  79  81
ENDBRANCH  16  79
BRANCH  20  83
ATOM     83  C49 UNL     1      73.006  71.635 104.285  0.00  0.00    +0.000 C 
BRANCH  83  84
ATOM     84  O14 UNL     1      72.330  72.725 104.863  0.00  0.00    +0.000 OA
ATOM     85  H61 UNL     1      72.472  73.505 104.264  0.00  0.00    +0.000 HD
ENDBRANCH  83  84
BRANCH  83  86
ATOM     86  C50 UNL     1      71.982  70.730 103.556  0.00  0.00    +0.000 C 
BRANCH  86  87
ATOM     87  C51 UNL     1      72.181  70.805 102.057  0.00  0.00    +0.000 A 
ATOM     88  C52 UNL     1      71.083  70.682 101.188  0.00  0.00    +0.000 A 
ATOM     89  C53 UNL     1      71.261  70.785  99.805  0.00  0.00    +0.000 A 
ATOM     90  C54 UNL     1      72.536  71.020  99.274  0.00  0.00    +0.000 A 
ATOM     91  C55 UNL     1      73.633  71.150 100.133  0.00  0.00    +0.000 A 
ATOM     92  C56 UNL     1      73.456  71.047 101.516  0.00  0.00    +0.000 A 
BRANCH  90  93
ATOM     93  O16 UNL     1      72.725  71.129  97.898  0.00  0.00    +0.000 OA
ATOM     94  H66 UNL     1      71.945  71.260  97.265  0.00  0.00    +0.000 HD
ENDBRANCH  90  93
ENDBRANCH  86  87
BRANCH  86  95
ATOM     95  O15 UNL     1      72.125  69.397 103.979  0.00  0.00    +0.000 OA
ATOM     96  H63 UNL     1      73.065  69.292 104.283  0.00  0.00    +0.000 HD
ENDBRANCH  86  95
ENDBRANCH  83  86
ENDBRANCH  20  83
TORSDOF 23
ENDMDL
MODEL 12
REMARK VINA RESULT:      -6.9     10.530     15.675
REMARK  Name = ./S4286.pdb
REMARK  27 active torsions:
REMARK  status: ('A' for Active; 'I' for Inactive)
REMARK    1  A    between atoms: C1_1  and  C2_2
REMARK    2  A    between atoms: C2_2  and  C3_3
REMARK    3  A    between atoms: C3_3  and  C4_4
REMARK    4  A    between atoms: C4_4  and  C5_5
REMARK    5  A    between atoms: C5_5  and  O1_6
REMARK    6  A    between atoms: O1_6  and  C6_7
REMARK    7  A    between atoms: C9_10  and  C12_13
REMARK    8  A    between atoms: C15_16  and  C18_19
REMARK    9  A    between atoms: C21_22  and  C24_25
REMARK   10  A    between atoms: N1_27  and  C25_28
REMARK   11  A    between atoms: C27_30  and  O3_31
REMARK   12  A    between atoms: C28_32  and  O4_33
REMARK   13  A    between atoms: C31_38  and  O6_39
REMARK   14  A    between atoms: C32_40  and  C33_41
REMARK   15  A    between atoms: C36_46  and  C57_80
REMARK   16  A    between atoms: C38_50  and  C49_69
REMARK   17  A    between atoms: C42_56  and  O10_57
REMARK   18  A    between atoms: C45_62  and  C47_66
REMARK   19  A    between atoms: C47_66  and  C48_67
REMARK   20  A    between atoms: C47_66  and  O13_68
REMARK   21  A    between atoms: C49_69  and  O14_70
REMARK   22  A    between atoms: C49_69  and  C50_71
REMARK   23  A    between atoms: C50_71  and  O15_72
REMARK   24  A    between atoms: C50_71  and  C51_73
REMARK   25  A    between atoms: C54_76  and  O16_77
REMARK   26  A    between atoms: C57_80  and  C58_81
REMARK   27  A    between atoms: C57_80  and  O17_82
REMARK                            x       y       z     vdW  Elec       q    Type
REMARK                         _______ _______ _______ _____ _____    ______ ____
ROOT
ATOM      1  C25 UNL     1      73.828  70.140 106.032  0.00  0.00    +0.000 C 
ATOM      2  C26 UNL     1      73.016  71.073 106.977  0.00  0.00    +0.000 C 
ATOM      3  C27 UNL     1      71.571  71.301 106.475  0.00  0.00    +0.000 C 
ATOM      4  C28 UNL     1      70.780  72.298 107.352  0.00  0.00    +0.000 C 
ATOM      5  N2  UNL     1      71.245  73.674 107.152  0.00  0.00    +0.000 N 
ATOM      6  C29 UNL     1      70.492  74.803 107.624  0.00  0.00    +0.000 C 
ATOM      7  O5  UNL     1      69.401  74.629 108.233  0.00  0.00    +0.000 OA
ATOM      8  C30 UNL     1      70.988  76.207 107.396  0.00  0.00    +0.000 C 
ATOM      9  C31 UNL     1      72.306  76.457 108.150  0.00  0.00    +0.000 C 
ATOM     10  C32 UNL     1      73.195  77.222 107.161  0.00  0.00    +0.000 C 
ATOM     11  C33 UNL     1      74.682  76.876 107.311  0.00  0.00    +0.000 C 
ATOM     12  C34 UNL     1      72.654  76.875 105.776  0.00  0.00    +0.000 C 
ATOM     13  N3  UNL     1      71.280  76.447 105.984  0.00  0.00    +0.000 N 
ATOM     14  C35 UNL     1      70.278  76.351 104.945  0.00  0.00    +0.000 C 
ATOM     15  O7  UNL     1      69.249  75.652 105.145  0.00  0.00    +0.000 OA
ATOM     16  C36 UNL     1      70.372  77.120 103.635  0.00  0.00    +0.000 C 
ATOM     17  N4  UNL     1      71.591  76.728 102.904  0.00  0.00    +0.000 N 
ATOM     18  C37 UNL     1      71.988  77.295 101.642  0.00  0.00    +0.000 C 
ATOM     19  O8  UNL     1      72.062  78.547 101.521  0.00  0.00    +0.000 OA
ATOM     20  C38 UNL     1      72.421  76.435 100.464  0.00  0.00    +0.000 C 
ATOM     21  N5  UNL     1      72.361  74.997 100.757  0.00  0.00    +0.000 N 
ATOM     22  C39 UNL     1      73.192  74.041 100.074  0.00  0.00    +0.000 C 
ATOM     23  O9  UNL     1      74.010  74.423  99.196  0.00  0.00    +0.000 OA
ATOM     24  C40 UNL     1      73.120  72.576 100.422  0.00  0.00    +0.000 C 
ATOM     25  C41 UNL     1      71.689  72.028 100.315  0.00  0.00    +0.000 C 
ATOM     26  C42 UNL     1      71.320  71.511 101.711  0.00  0.00    +0.000 C 
ATOM     27  C43 UNL     1      72.456  71.917 102.652  0.00  0.00    +0.000 C 
ATOM     28  N6  UNL     1      73.544  72.377 101.805  0.00  0.00    +0.000 N 
ATOM     29  C44 UNL     1      74.942  72.331 102.177  0.00  0.00    +0.000 C 
ATOM     30  O11 UNL     1      75.793  72.022 101.301  0.00  0.00    +0.000 OA
ATOM     31  C45 UNL     1      75.459  72.715 103.557  0.00  0.00    +0.000 C 
ATOM     32  N7  UNL     1      74.627  72.158 104.630  0.00  0.00    +0.000 N 
ATOM     33  C46 UNL     1      74.864  70.847 105.177  0.00  0.00    +0.000 C 
ATOM     34  O12 UNL     1      75.910  70.220 104.853  0.00  0.00    +0.000 OA
ATOM     35  H32 UNL     1      72.112  73.855 106.596  0.00  0.00    +0.000 HD
ATOM     36  H43 UNL     1      72.059  75.844 103.197  0.00  0.00    +0.000 HD
ATOM     37  H45 UNL     1      71.616  74.634 101.390  0.00  0.00    +0.000 HD
ATOM     38  H54 UNL     1      73.804  72.710 104.955  0.00  0.00    +0.000 HD
ENDROOT
BRANCH   1  41
ATOM     39  C24 UNL     1      73.725  67.933 107.331  0.00  0.00    +0.000 C 
ATOM     40  O2  UNL     1      72.524  67.752 106.989  0.00  0.00    +0.000 OA
ATOM     41  N1  UNL     1      74.455  69.060 106.807  0.00  0.00    +0.000 N 
ATOM     42  H24 UNL     1      75.487  69.112 106.951  0.00  0.00    +0.000 HD
BRANCH  39  46
ATOM     43  C18 UNL     1      75.619  65.132 110.005  0.00  0.00    +0.000 A 
ATOM     44  C19 UNL     1      74.271  65.488 110.183  0.00  0.00    +0.000 A 
ATOM     45  C20 UNL     1      73.652  66.393 109.317  0.00  0.00    +0.000 A 
ATOM     46  C21 UNL     1      74.371  66.970 108.256  0.00  0.00    +0.000 A 
ATOM     47  C22 UNL     1      75.712  66.602 108.066  0.00  0.00    +0.000 A 
ATOM     48  C23 UNL     1      76.332  65.696 108.932  0.00  0.00    +0.000 A 
BRANCH  43  52
ATOM     49  C12 UNL     1      77.481  62.315 112.685  0.00  0.00    +0.000 A 
ATOM     50  C13 UNL     1      76.486  63.194 113.148  0.00  0.00    +0.000 A 
ATOM     51  C14 UNL     1      75.889  64.111 112.279  0.00  0.00    +0.000 A 
ATOM     52  C15 UNL     1      76.272  64.172 110.929  0.00  0.00    +0.000 A 
ATOM     53  C16 UNL     1      77.273  63.300 110.468  0.00  0.00    +0.000 A 
ATOM     54  C17 UNL     1      77.870  62.380 111.336  0.00  0.00    +0.000 A 
BRANCH  49  58
ATOM     55  C6  UNL     1      79.310  59.456 115.339  0.00  0.00    +0.000 A 
ATOM     56  C7  UNL     1      78.924  60.724 115.813  0.00  0.00    +0.000 A 
ATOM     57  C8  UNL     1      78.322  61.646 114.954  0.00  0.00    +0.000 A 
ATOM     58  C9  UNL     1      78.094  61.322 113.604  0.00  0.00    +0.000 A 
ATOM     59  C10 UNL     1      78.470  60.049 113.138  0.00  0.00    +0.000 A 
ATOM     60  C11 UNL     1      79.070  59.127 114.001  0.00  0.00    +0.000 A 
BRANCH  55  61
ATOM     61  O1  UNL     1      79.932  58.502 116.159  0.00  0.00    +0.000 OA
BRANCH  61  62
ATOM     62  C5  UNL     1      80.636  57.363 115.672  0.00  0.00    +0.000 C 
BRANCH  62  63
ATOM     63  C4  UNL     1      80.004  56.092 116.241  0.00  0.00    +0.000 C 
BRANCH  63  64
ATOM     64  C3  UNL     1      78.647  55.743 115.592  0.00  0.00    +0.000 C 
BRANCH  64  66
ATOM     65  C1  UNL     1      76.423  57.029 115.609  0.00  0.00    +0.000 C 
ATOM     66  C2  UNL     1      77.417  56.187 116.409  0.00  0.00    +0.000 C 
ENDBRANCH  64  66
ENDBRANCH  63  64
ENDBRANCH  62  63
ENDBRANCH  61  62
ENDBRANCH  55  61
ENDBRANCH  49  58
ENDBRANCH  43  52
ENDBRANCH  39  46
ENDBRANCH   1  41
BRANCH   3  67
ATOM     67  O3  UNL     1      70.896  70.069 106.461  0.00  0.00    +0.000 OA
ATOM     68  H29 UNL     1      71.567  69.372 106.230  0.00  0.00    +0.000 HD
ENDBRANCH   3  67
BRANCH   4  69
ATOM     69  O4  UNL     1      70.896  71.943 108.707  0.00  0.00    +0.000 OA
ATOM     70  H31 UNL     1      71.631  72.486 109.092  0.00  0.00    +0.000 HD
ENDBRANCH   4  69
BRANCH   9  71
ATOM     71  O6  UNL     1      72.091  77.226 109.303  0.00  0.00    +0.000 OA
ATOM     72  H35 UNL     1      71.148  77.539 109.260  0.00  0.00    +0.000 HD
ENDBRANCH   9  71
BRANCH  26  73
ATOM     73  O10 UNL     1      70.073  71.994 102.147  0.00  0.00    +0.000 OA
ATOM     74  H50 UNL     1      69.444  71.228 102.188  0.00  0.00    +0.000 HD
ENDBRANCH  26  73
BRANCH  31  75
ATOM     75  C47 UNL     1      75.618  74.243 103.731  0.00  0.00    +0.000 C 
ATOM     76  C48 UNL     1      76.734  74.611 104.724  0.00  0.00    +0.000 C 
BRANCH  75  77
ATOM     77  O13 UNL     1      75.810  74.876 102.494  0.00  0.00    +0.000 OA
ATOM     78  H59 UNL     1      74.919  75.067 102.108  0.00  0.00    +0.000 HD
ENDBRANCH  75  77
ENDBRANCH  31  75
BRANCH  16  79
ATOM     79  C57 UNL     1      70.253  78.669 103.838  0.00  0.00    +0.000 C 
ATOM     80  C58 UNL     1      69.590  79.079 105.167  0.00  0.00    +0.000 C 
BRANCH  79  81
ATOM     81  O17 UNL     1      69.539  79.249 102.775  0.00  0.00    +0.000 OA
ATOM     82  H73 UNL     1      70.028  79.048 101.933  0.00  0.00    +0.000 HD
ENDBRANCH  79  81
ENDBRANCH  16  79
BRANCH  20  83
ATOM     83  C49 UNL     1      71.613  76.755  99.175  0.00  0.00    +0.000 C 
BRANCH  83  84
ATOM     84  O14 UNL     1      70.630  75.769  98.973  0.00  0.00    +0.000 OA
ATOM     85  H61 UNL     1      70.930  74.958  99.462  0.00  0.00    +0.000 HD
ENDBRANCH  83  84
BRANCH  83  86
ATOM     86  C50 UNL     1      72.491  76.866  97.903  0.00  0.00    +0.000 C 
BRANCH  86  87
ATOM     87  C51 UNL     1      72.108  78.091  97.100  0.00  0.00    +0.000 A 
ATOM     88  C52 UNL     1      73.099  78.969  96.628  0.00  0.00    +0.000 A 
ATOM     89  C53 UNL     1      72.749  80.082  95.857  0.00  0.00    +0.000 A 
ATOM     90  C54 UNL     1      71.406  80.327  95.543  0.00  0.00    +0.000 A 
ATOM     91  C55 UNL     1      70.415  79.454  96.003  0.00  0.00    +0.000 A 
ATOM     92  C56 UNL     1      70.763  78.342  96.774  0.00  0.00    +0.000 A 
BRANCH  90  93
ATOM     93  O16 UNL     1      71.047  81.430  94.771  0.00  0.00    +0.000 OA
ATOM     94  H66 UNL     1      71.483  81.617  93.877  0.00  0.00    +0.000 HD
ENDBRANCH  90  93
ENDBRANCH  86  87
BRANCH  86  95
ATOM     95  O15 UNL     1      73.849  76.946  98.257  0.00  0.00    +0.000 OA
ATOM     96  H63 UNL     1      74.348  76.380  97.612  0.00  0.00    +0.000 HD
ENDBRANCH  86  95
ENDBRANCH  83  86
ENDBRANCH  20  83
TORSDOF 23
ENDMDL
MODEL 13
REMARK VINA RESULT:      -6.9     10.010     15.106
REMARK  Name = ./S4286.pdb
REMARK  27 active torsions:
REMARK  status: ('A' for Active; 'I' for Inactive)
REMARK    1  A    between atoms: C1_1  and  C2_2
REMARK    2  A    between atoms: C2_2  and  C3_3
REMARK    3  A    between atoms: C3_3  and  C4_4
REMARK    4  A    between atoms: C4_4  and  C5_5
REMARK    5  A    between atoms: C5_5  and  O1_6
REMARK    6  A    between atoms: O1_6  and  C6_7
REMARK    7  A    between atoms: C9_10  and  C12_13
REMARK    8  A    between atoms: C15_16  and  C18_19
REMARK    9  A    between atoms: C21_22  and  C24_25
REMARK   10  A    between atoms: N1_27  and  C25_28
REMARK   11  A    between atoms: C27_30  and  O3_31
REMARK   12  A    between atoms: C28_32  and  O4_33
REMARK   13  A    between atoms: C31_38  and  O6_39
REMARK   14  A    between atoms: C32_40  and  C33_41
REMARK   15  A    between atoms: C36_46  and  C57_80
REMARK   16  A    between atoms: C38_50  and  C49_69
REMARK   17  A    between atoms: C42_56  and  O10_57
REMARK   18  A    between atoms: C45_62  and  C47_66
REMARK   19  A    between atoms: C47_66  and  C48_67
REMARK   20  A    between atoms: C47_66  and  O13_68
REMARK   21  A    between atoms: C49_69  and  O14_70
REMARK   22  A    between atoms: C49_69  and  C50_71
REMARK   23  A    between atoms: C50_71  and  O15_72
REMARK   24  A    between atoms: C50_71  and  C51_73
REMARK   25  A    between atoms: C54_76  and  O16_77
REMARK   26  A    between atoms: C57_80  and  C58_81
REMARK   27  A    between atoms: C57_80  and  O17_82
REMARK                            x       y       z     vdW  Elec       q    Type
REMARK                         _______ _______ _______ _____ _____    ______ ____
ROOT
ATOM      1  C25 UNL     1      73.904  68.905 108.783  0.00  0.00    +0.000 C 
ATOM      2  C26 UNL     1      75.168  69.788 108.573  0.00  0.00    +0.000 C 
ATOM      3  C27 UNL     1      74.988  71.215 109.140  0.00  0.00    +0.000 C 
ATOM      4  C28 UNL     1      76.199  72.133 108.858  0.00  0.00    +0.000 C 
ATOM      5  N2  UNL     1      76.259  72.521 107.446  0.00  0.00    +0.000 N 
ATOM      6  C29 UNL     1      77.109  73.587 106.991  0.00  0.00    +0.000 C 
ATOM      7  O5  UNL     1      77.834  74.216 107.810  0.00  0.00    +0.000 OA
ATOM      8  C30 UNL     1      77.143  73.973 105.534  0.00  0.00    +0.000 C 
ATOM      9  C31 UNL     1      77.702  72.827 104.672  0.00  0.00    +0.000 C 
ATOM     10  C32 UNL     1      76.790  72.772 103.440  0.00  0.00    +0.000 C 
ATOM     11  C33 UNL     1      76.598  71.346 102.908  0.00  0.00    +0.000 C 
ATOM     12  C34 UNL     1      75.474  73.410 103.879  0.00  0.00    +0.000 C 
ATOM     13  N3  UNL     1      75.803  74.246 105.023  0.00  0.00    +0.000 N 
ATOM     14  C35 UNL     1      74.955  75.293 105.551  0.00  0.00    +0.000 C 
ATOM     15  O7  UNL     1      75.152  75.712 106.723  0.00  0.00    +0.000 OA
ATOM     16  C36 UNL     1      73.871  75.973 104.726  0.00  0.00    +0.000 C 
ATOM     17  N4  UNL     1      72.873  74.981 104.288  0.00  0.00    +0.000 N 
ATOM     18  C37 UNL     1      71.735  75.296 103.464  0.00  0.00    +0.000 C 
ATOM     19  O8  UNL     1      71.907  75.917 102.381  0.00  0.00    +0.000 OA
ATOM     20  C38 UNL     1      70.329  74.823 103.802  0.00  0.00    +0.000 C 
ATOM     21  N5  UNL     1      70.274  74.048 105.048  0.00  0.00    +0.000 N 
ATOM     22  C39 UNL     1      69.252  73.066 105.295  0.00  0.00    +0.000 C 
ATOM     23  O9  UNL     1      68.366  72.840 104.429  0.00  0.00    +0.000 OA
ATOM     24  C40 UNL     1      69.245  72.272 106.576  0.00  0.00    +0.000 C 
ATOM     25  C41 UNL     1      69.253  73.178 107.816  0.00  0.00    +0.000 C 
ATOM     26  C42 UNL     1      70.527  72.829 108.597  0.00  0.00    +0.000 C 
ATOM     27  C43 UNL     1      71.332  71.860 107.728  0.00  0.00    +0.000 C 
ATOM     28  N6  UNL     1      70.448  71.447 106.651  0.00  0.00    +0.000 N 
ATOM     29  C44 UNL     1      70.557  70.188 105.946  0.00  0.00    +0.000 C 
ATOM     30  O11 UNL     1      69.501  69.577 105.629  0.00  0.00    +0.000 OA
ATOM     31  C45 UNL     1      71.880  69.590 105.489  0.00  0.00    +0.000 C 
ATOM     32  N7  UNL     1      72.913  69.683 106.527  0.00  0.00    +0.000 N 
ATOM     33  C46 UNL     1      73.081  68.664 107.531  0.00  0.00    +0.000 C 
ATOM     34  O12 UNL     1      72.444  67.579 107.426  0.00  0.00    +0.000 OA
ATOM     35  H32 UNL     1      75.625  72.064 106.751  0.00  0.00    +0.000 HD
ATOM     36  H43 UNL     1      72.862  74.064 104.783  0.00  0.00    +0.000 HD
ATOM     37  H45 UNL     1      70.919  74.291 105.831  0.00  0.00    +0.000 HD
ATOM     38  H54 UNL     1      73.496  70.548 106.569  0.00  0.00    +0.000 HD
ENDROOT
BRANCH   1  41
ATOM     39  C24 UNL     1      74.674  67.499 110.783  0.00  0.00    +0.000 C 
ATOM     40  O2  UNL     1      74.545  68.482 111.564  0.00  0.00    +0.000 OA
ATOM     41  N1  UNL     1      74.280  67.627 109.403  0.00  0.00    +0.000 N 
ATOM     42  H24 UNL     1      74.225  66.772 108.806  0.00  0.00    +0.000 HD
BRANCH  39  46
ATOM     43  C18 UNL     1      76.249  63.778 112.284  0.00  0.00    +0.000 A 
ATOM     44  C19 UNL     1      75.618  64.686 113.152  0.00  0.00    +0.000 A 
ATOM     45  C20 UNL     1      75.103  65.892 112.668  0.00  0.00    +0.000 A 
ATOM     46  C21 UNL     1      75.215  66.222 111.307  0.00  0.00    +0.000 A 
ATOM     47  C22 UNL     1      75.829  65.307 110.436  0.00  0.00    +0.000 A 
ATOM     48  C23 UNL     1      76.344  64.100 110.919  0.00  0.00    +0.000 A 
BRANCH  43  52
ATOM     49  C12 UNL     1      77.877  60.087 113.807  0.00  0.00    +0.000 A 
ATOM     50  C13 UNL     1      78.297  60.597 112.566  0.00  0.00    +0.000 A 
ATOM     51  C14 UNL     1      77.763  61.790 112.071  0.00  0.00    +0.000 A 
ATOM     52  C15 UNL     1      76.796  62.499 112.803  0.00  0.00    +0.000 A 
ATOM     53  C16 UNL     1      76.370  61.986 114.039  0.00  0.00    +0.000 A 
ATOM     54  C17 UNL     1      76.904  60.794 114.537  0.00  0.00    +0.000 A 
BRANCH  49  58
ATOM     55  C6  UNL     1      79.585  56.430 115.312  0.00  0.00    +0.000 A 
ATOM     56  C7  UNL     1      80.406  57.416 114.734  0.00  0.00    +0.000 A 
ATOM     57  C8  UNL     1      79.852  58.605 114.256  0.00  0.00    +0.000 A 
ATOM     58  C9  UNL     1      78.467  58.835 114.344  0.00  0.00    +0.000 A 
ATOM     59  C10 UNL     1      77.652  57.851 114.933  0.00  0.00    +0.000 A 
ATOM     60  C11 UNL     1      78.210  56.663 115.413  0.00  0.00    +0.000 A 
BRANCH  55  61
ATOM     61  O1  UNL     1      80.092  55.213 115.792  0.00  0.00    +0.000 OA
BRANCH  61  62
ATOM     62  C5  UNL     1      80.099  54.832 117.165  0.00  0.00    +0.000 C 
BRANCH  62  63
ATOM     63  C4  UNL     1      80.845  55.887 117.983  0.00  0.00    +0.000 C 
BRANCH  63  64
ATOM     64  C3  UNL     1      79.908  56.789 118.815  0.00  0.00    +0.000 C 
BRANCH  64  66
ATOM     65  C1  UNL     1      78.559  58.926 118.354  0.00  0.00    +0.000 C 
ATOM     66  C2  UNL     1      79.943  58.279 118.421  0.00  0.00    +0.000 C 
ENDBRANCH  64  66
ENDBRANCH  63  64
ENDBRANCH  62  63
ENDBRANCH  61  62
ENDBRANCH  55  61
ENDBRANCH  49  58
ENDBRANCH  43  52
ENDBRANCH  39  46
ENDBRANCH   1  41
BRANCH   3  67
ATOM     67  O3  UNL     1      74.793  71.129 110.529  0.00  0.00    +0.000 OA
ATOM     68  H29 UNL     1      75.637  71.427 110.961  0.00  0.00    +0.000 HD
ENDBRANCH   3  67
BRANCH   4  69
ATOM     69  O4  UNL     1      77.390  71.484 109.230  0.00  0.00    +0.000 OA
ATOM     70  H31 UNL     1      78.138  71.980 108.810  0.00  0.00    +0.000 HD
ENDBRANCH   4  69
BRANCH   9  71
ATOM     71  O6  UNL     1      79.025  73.085 104.284  0.00  0.00    +0.000 OA
ATOM     72  H35 UNL     1      79.555  73.153 105.123  0.00  0.00    +0.000 HD
ENDBRANCH   9  71
BRANCH  26  73
ATOM     73  O10 UNL     1      71.270  73.971 108.946  0.00  0.00    +0.000 OA
ATOM     74  H50 UNL     1      71.073  74.680 108.281  0.00  0.00    +0.000 HD
ENDBRANCH  26  73
BRANCH  31  75
ATOM     75  C47 UNL     1      72.387  70.203 104.163  0.00  0.00    +0.000 C 
ATOM     76  C48 UNL     1      73.470  69.344 103.490  0.00  0.00    +0.000 C 
BRANCH  75  77
ATOM     77  O13 UNL     1      71.323  70.457 103.284  0.00  0.00    +0.000 OA
ATOM     78  H59 UNL     1      71.051  71.402 103.401  0.00  0.00    +0.000 HD
ENDBRANCH  75  77
ENDBRANCH  31  75
BRANCH  16  79
ATOM     79  C57 UNL     1      74.458  76.814 103.542  0.00  0.00    +0.000 C 
ATOM     80  C58 UNL     1      75.918  77.257 103.748  0.00  0.00    +0.000 C 
BRANCH  79  81
ATOM     81  O17 UNL     1      73.665  77.953 103.311  0.00  0.00    +0.000 OA
ATOM     82  H73 UNL     1      72.752  77.645 103.067  0.00  0.00    +0.000 HD
ENDBRANCH  79  81
ENDBRANCH  16  79
BRANCH  20  83
ATOM     83  C49 UNL     1      69.311  75.996 103.853  0.00  0.00    +0.000 C 
BRANCH  83  84
ATOM     84  O14 UNL     1      69.213  76.595 102.584  0.00  0.00    +0.000 OA
ATOM     85  H61 UNL     1      69.574  77.517 102.671  0.00  0.00    +0.000 HD
ENDBRANCH  83  84
BRANCH  83  86
ATOM     86  C50 UNL     1      69.664  77.080 104.901  0.00  0.00    +0.000 C 
BRANCH  86  87
ATOM     87  C51 UNL     1      68.940  76.813 106.204  0.00  0.00    +0.000 A 
ATOM     88  C52 UNL     1      69.577  77.058 107.433  0.00  0.00    +0.000 A 
ATOM     89  C53 UNL     1      68.897  76.845 108.637  0.00  0.00    +0.000 A 
ATOM     90  C54 UNL     1      67.572  76.391 108.627  0.00  0.00    +0.000 A 
ATOM     91  C55 UNL     1      66.930  76.151 107.407  0.00  0.00    +0.000 A 
ATOM     92  C56 UNL     1      67.607  76.364 106.203  0.00  0.00    +0.000 A 
BRANCH  90  93
ATOM     93  O16 UNL     1      66.884  76.179 109.819  0.00  0.00    +0.000 OA
ATOM     94  H66 UNL     1      67.242  76.514 110.705  0.00  0.00    +0.000 HD
ENDBRANCH  90  93
ENDBRANCH  86  87
BRANCH  86  95
ATOM     95  O15 UNL     1      71.050  77.097 105.133  0.00  0.00    +0.000 OA
ATOM     96  H63 UNL     1      71.192  77.576 105.991  0.00  0.00    +0.000 HD
ENDBRANCH  86  95
ENDBRANCH  83  86
ENDBRANCH  20  83
TORSDOF 23
ENDMDL
MODEL 14
REMARK VINA RESULT:      -6.9      9.141     16.405
REMARK  Name = ./S4286.pdb
REMARK  27 active torsions:
REMARK  status: ('A' for Active; 'I' for Inactive)
REMARK    1  A    between atoms: C1_1  and  C2_2
REMARK    2  A    between atoms: C2_2  and  C3_3
REMARK    3  A    between atoms: C3_3  and  C4_4
REMARK    4  A    between atoms: C4_4  and  C5_5
REMARK    5  A    between atoms: C5_5  and  O1_6
REMARK    6  A    between atoms: O1_6  and  C6_7
REMARK    7  A    between atoms: C9_10  and  C12_13
REMARK    8  A    between atoms: C15_16  and  C18_19
REMARK    9  A    between atoms: C21_22  and  C24_25
REMARK   10  A    between atoms: N1_27  and  C25_28
REMARK   11  A    between atoms: C27_30  and  O3_31
REMARK   12  A    between atoms: C28_32  and  O4_33
REMARK   13  A    between atoms: C31_38  and  O6_39
REMARK   14  A    between atoms: C32_40  and  C33_41
REMARK   15  A    between atoms: C36_46  and  C57_80
REMARK   16  A    between atoms: C38_50  and  C49_69
REMARK   17  A    between atoms: C42_56  and  O10_57
REMARK   18  A    between atoms: C45_62  and  C47_66
REMARK   19  A    between atoms: C47_66  and  C48_67
REMARK   20  A    between atoms: C47_66  and  O13_68
REMARK   21  A    between atoms: C49_69  and  O14_70
REMARK   22  A    between atoms: C49_69  and  C50_71
REMARK   23  A    between atoms: C50_71  and  O15_72
REMARK   24  A    between atoms: C50_71  and  C51_73
REMARK   25  A    between atoms: C54_76  and  O16_77
REMARK   26  A    between atoms: C57_80  and  C58_81
REMARK   27  A    between atoms: C57_80  and  O17_82
REMARK                            x       y       z     vdW  Elec       q    Type
REMARK                         _______ _______ _______ _____ _____    ______ ____
ROOT
ATOM      1  C25 UNL     1      73.840  68.627 108.941  0.00  0.00    +0.000 C 
ATOM      2  C26 UNL     1      75.276  69.226 108.973  0.00  0.00    +0.000 C 
ATOM      3  C27 UNL     1      75.274  70.732 109.325  0.00  0.00    +0.000 C 
ATOM      4  C28 UNL     1      76.683  71.364 109.272  0.00  0.00    +0.000 C 
ATOM      5  N2  UNL     1      77.149  71.517 107.890  0.00  0.00    +0.000 N 
ATOM      6  C29 UNL     1      78.287  72.332 107.562  0.00  0.00    +0.000 C 
ATOM      7  O5  UNL     1      78.918  72.937 108.470  0.00  0.00    +0.000 OA
ATOM      8  C30 UNL     1      78.738  72.480 106.132  0.00  0.00    +0.000 C 
ATOM      9  C31 UNL     1      79.226  71.135 105.564  0.00  0.00    +0.000 C 
ATOM     10  C32 UNL     1      78.633  71.058 104.151  0.00  0.00    +0.000 C 
ATOM     11  C33 UNL     1      78.273  69.626 103.737  0.00  0.00    +0.000 C 
ATOM     12  C34 UNL     1      77.416  71.981 104.170  0.00  0.00    +0.000 C 
ATOM     13  N3  UNL     1      77.640  72.909 105.268  0.00  0.00    +0.000 N 
ATOM     14  C35 UNL     1      76.934  74.158 105.451  0.00  0.00    +0.000 C 
ATOM     15  O7  UNL     1      76.939  74.707 106.585  0.00  0.00    +0.000 OA
ATOM     16  C36 UNL     1      76.239  74.888 104.310  0.00  0.00    +0.000 C 
ATOM     17  N4  UNL     1      75.183  74.037 103.733  0.00  0.00    +0.000 N 
ATOM     18  C37 UNL     1      74.359  74.422 102.617  0.00  0.00    +0.000 C 
ATOM     19  O8  UNL     1      74.905  74.831 101.557  0.00  0.00    +0.000 OA
ATOM     20  C38 UNL     1      72.847  74.265 102.630  0.00  0.00    +0.000 C 
ATOM     21  N5  UNL     1      72.343  73.710 103.893  0.00  0.00    +0.000 N 
ATOM     22  C39 UNL     1      71.107  72.976 103.968  0.00  0.00    +0.000 C 
ATOM     23  O9  UNL     1      70.418  72.784 102.931  0.00  0.00    +0.000 OA
ATOM     24  C40 UNL     1      70.637  72.399 105.279  0.00  0.00    +0.000 C 
ATOM     25  C41 UNL     1      70.549  73.467 106.380  0.00  0.00    +0.000 C 
ATOM     26  C42 UNL     1      71.504  73.017 107.493  0.00  0.00    +0.000 C 
ATOM     27  C43 UNL     1      72.265  71.800 106.964  0.00  0.00    +0.000 C 
ATOM     28  N6  UNL     1      71.587  71.394 105.744  0.00  0.00    +0.000 N 
ATOM     29  C44 UNL     1      71.588  70.043 105.223  0.00  0.00    +0.000 C 
ATOM     30  O11 UNL     1      70.529  69.590 104.710  0.00  0.00    +0.000 OA
ATOM     31  C45 UNL     1      72.824  69.156 105.186  0.00  0.00    +0.000 C 
ATOM     32  N7  UNL     1      73.584  69.219 106.439  0.00  0.00    +0.000 N 
ATOM     33  C46 UNL     1      73.297  68.350 107.551  0.00  0.00    +0.000 C 
ATOM     34  O12 UNL     1      72.488  67.394 107.397  0.00  0.00    +0.000 OA
ATOM     35  H32 UNL     1      76.611  71.080 107.107  0.00  0.00    +0.000 HD
ATOM     36  H43 UNL     1      74.865  73.222 104.301  0.00  0.00    +0.000 HD
ATOM     37  H45 UNL     1      72.825  73.950 104.786  0.00  0.00    +0.000 HD
ATOM     38  H54 UNL     1      74.311  69.961 106.540  0.00  0.00    +0.000 HD
ENDROOT
BRANCH   1  41
ATOM     39  C24 UNL     1      74.253  67.350 111.125  0.00  0.00    +0.000 C 
ATOM     40  O2  UNL     1      74.583  68.414 111.720  0.00  0.00    +0.000 OA
ATOM     41  N1  UNL     1      73.784  67.410 109.764  0.00  0.00    +0.000 N 
ATOM     42  H24 UNL     1      73.352  66.562 109.335  0.00  0.00    +0.000 HD
BRANCH  39  46
ATOM     43  C18 UNL     1      74.486  63.599 113.235  0.00  0.00    +0.000 A 
ATOM     44  C19 UNL     1      75.541  64.016 112.404  0.00  0.00    +0.000 A 
ATOM     45  C20 UNL     1      75.470  65.233 111.721  0.00  0.00    +0.000 A 
ATOM     46  C21 UNL     1      74.339  66.058 111.846  0.00  0.00    +0.000 A 
ATOM     47  C22 UNL     1      73.293  65.650 112.689  0.00  0.00    +0.000 A 
ATOM     48  C23 UNL     1      73.363  64.432 113.374  0.00  0.00    +0.000 A 
BRANCH  43  52
ATOM     49  C12 UNL     1      74.696  59.815 115.292  0.00  0.00    +0.000 A 
ATOM     50  C13 UNL     1      73.491  60.538 115.242  0.00  0.00    +0.000 A 
ATOM     51  C14 UNL     1      73.427  61.767 114.581  0.00  0.00    +0.000 A 
ATOM     52  C15 UNL     1      74.564  62.303 113.956  0.00  0.00    +0.000 A 
ATOM     53  C16 UNL     1      75.771  61.587 114.012  0.00  0.00    +0.000 A 
ATOM     54  C17 UNL     1      75.837  60.355 114.672  0.00  0.00    +0.000 A 
BRANCH  49  58
ATOM     55  C6  UNL     1      74.921  55.994 117.270  0.00  0.00    +0.000 A 
ATOM     56  C7  UNL     1      74.667  57.166 118.008  0.00  0.00    +0.000 A 
ATOM     57  C8  UNL     1      74.584  58.402 117.364  0.00  0.00    +0.000 A 
ATOM     58  C9  UNL     1      74.754  58.495 115.970  0.00  0.00    +0.000 A 
ATOM     59  C10 UNL     1      74.996  57.321 115.236  0.00  0.00    +0.000 A 
ATOM     60  C11 UNL     1      75.075  56.084 115.883  0.00  0.00    +0.000 A 
BRANCH  55  61
ATOM     61  O1  UNL     1      75.029  54.732 117.873  0.00  0.00    +0.000 OA
BRANCH  61  62
ATOM     62  C5  UNL     1      74.064  54.187 118.770  0.00  0.00    +0.000 C 
BRANCH  62  63
ATOM     63  C4  UNL     1      73.608  52.820 118.258  0.00  0.00    +0.000 C 
BRANCH  63  64
ATOM     64  C3  UNL     1      73.229  52.825 116.761  0.00  0.00    +0.000 C 
BRANCH  64  66
ATOM     65  C1  UNL     1      71.559  51.202 115.677  0.00  0.00    +0.000 C 
ATOM     66  C2  UNL     1      72.992  51.425 116.160  0.00  0.00    +0.000 C 
ENDBRANCH  64  66
ENDBRANCH  63  64
ENDBRANCH  62  63
ENDBRANCH  61  62
ENDBRANCH  55  61
ENDBRANCH  49  58
ENDBRANCH  43  52
ENDBRANCH  39  46
ENDBRANCH   1  41
BRANCH   3  67
ATOM     67  O3  UNL     1      74.750  70.893 110.619  0.00  0.00    +0.000 OA
ATOM     68  H29 UNL     1      74.120  71.661 110.585  0.00  0.00    +0.000 HD
ENDBRANCH   3  67
BRANCH   4  69
ATOM     69  O4  UNL     1      77.591  70.576 110.002  0.00  0.00    +0.000 OA
ATOM     70  H31 UNL     1      77.154  70.343 110.860  0.00  0.00    +0.000 HD
ENDBRANCH   4  69
BRANCH   9  71
ATOM     71  O6  UNL     1      80.626  71.090 105.504  0.00  0.00    +0.000 OA
ATOM     72  H35 UNL     1      80.858  70.723 104.610  0.00  0.00    +0.000 HD
ENDBRANCH   9  71
BRANCH  26  73
ATOM     73  O10 UNL     1      72.370  74.048 107.902  0.00  0.00    +0.000 OA
ATOM     74  H50 UNL     1      72.950  74.284 107.133  0.00  0.00    +0.000 HD
ENDBRANCH  26  73
BRANCH  31  75
ATOM     75  C47 UNL     1      73.742  69.460 103.978  0.00  0.00    +0.000 C 
ATOM     76  C48 UNL     1      74.852  68.411 103.800  0.00  0.00    +0.000 C 
BRANCH  75  77
ATOM     77  O13 UNL     1      72.994  69.613 102.801  0.00  0.00    +0.000 OA
ATOM     78  H59 UNL     1      72.336  70.336 102.950  0.00  0.00    +0.000 HD
ENDBRANCH  75  77
ENDBRANCH  31  75
BRANCH  16  79
ATOM     79  C57 UNL     1      77.248  75.421 103.236  0.00  0.00    +0.000 C 
ATOM     80  C58 UNL     1      78.696  75.553 103.744  0.00  0.00    +0.000 C 
BRANCH  79  81
ATOM     81  O17 UNL     1      76.823  76.668 102.743  0.00  0.00    +0.000 OA
ATOM     82  H73 UNL     1      77.632  77.189 102.493  0.00  0.00    +0.000 HD
ENDBRANCH  79  81
ENDBRANCH  16  79
BRANCH  20  83
ATOM     83  C49 UNL     1      72.115  75.595 102.297  0.00  0.00    +0.000 C 
BRANCH  83  84
ATOM     84  O14 UNL     1      71.250  75.939 103.352  0.00  0.00    +0.000 OA
ATOM     85  H61 UNL     1      70.407  76.267 102.940  0.00  0.00    +0.000 HD
ENDBRANCH  83  84
BRANCH  83  86
ATOM     86  C50 UNL     1      71.309  75.547 100.975  0.00  0.00    +0.000 C 
BRANCH  86  87
ATOM     87  C51 UNL     1      71.960  76.424  99.925  0.00  0.00    +0.000 A 
ATOM     88  C52 UNL     1      71.663  77.797  99.864  0.00  0.00    +0.000 A 
ATOM     89  C53 UNL     1      72.290  78.614  98.917  0.00  0.00    +0.000 A 
ATOM     90  C54 UNL     1      73.225  78.071  98.026  0.00  0.00    +0.000 A 
ATOM     91  C55 UNL     1      73.531  76.707  98.087  0.00  0.00    +0.000 A 
ATOM     92  C56 UNL     1      72.905  75.889  99.031  0.00  0.00    +0.000 A 
BRANCH  90  93
ATOM     93  O16 UNL     1      73.859  78.876  97.083  0.00  0.00    +0.000 OA
ATOM     94  H66 UNL     1      74.848  78.783  96.885  0.00  0.00    +0.000 HD
ENDBRANCH  90  93
ENDBRANCH  86  87
BRANCH  86  95
ATOM     95  O15 UNL     1      71.237  74.226 100.499  0.00  0.00    +0.000 OA
ATOM     96  H63 UNL     1      70.293  74.066 100.237  0.00  0.00    +0.000 HD
ENDBRANCH  86  95
ENDBRANCH  83  86
ENDBRANCH  20  83
TORSDOF 23
ENDMDL
MODEL 15
REMARK VINA RESULT:      -6.8      8.959     16.846
REMARK  Name = ./S4286.pdb
REMARK  27 active torsions:
REMARK  status: ('A' for Active; 'I' for Inactive)
REMARK    1  A    between atoms: C1_1  and  C2_2
REMARK    2  A    between atoms: C2_2  and  C3_3
REMARK    3  A    between atoms: C3_3  and  C4_4
REMARK    4  A    between atoms: C4_4  and  C5_5
REMARK    5  A    between atoms: C5_5  and  O1_6
REMARK    6  A    between atoms: O1_6  and  C6_7
REMARK    7  A    between atoms: C9_10  and  C12_13
REMARK    8  A    between atoms: C15_16  and  C18_19
REMARK    9  A    between atoms: C21_22  and  C24_25
REMARK   10  A    between atoms: N1_27  and  C25_28
REMARK   11  A    between atoms: C27_30  and  O3_31
REMARK   12  A    between atoms: C28_32  and  O4_33
REMARK   13  A    between atoms: C31_38  and  O6_39
REMARK   14  A    between atoms: C32_40  and  C33_41
REMARK   15  A    between atoms: C36_46  and  C57_80
REMARK   16  A    between atoms: C38_50  and  C49_69
REMARK   17  A    between atoms: C42_56  and  O10_57
REMARK   18  A    between atoms: C45_62  and  C47_66
REMARK   19  A    between atoms: C47_66  and  C48_67
REMARK   20  A    between atoms: C47_66  and  O13_68
REMARK   21  A    between atoms: C49_69  and  O14_70
REMARK   22  A    between atoms: C49_69  and  C50_71
REMARK   23  A    between atoms: C50_71  and  O15_72
REMARK   24  A    between atoms: C50_71  and  C51_73
REMARK   25  A    between atoms: C54_76  and  O16_77
REMARK   26  A    between atoms: C57_80  and  C58_81
REMARK   27  A    between atoms: C57_80  and  O17_82
REMARK                            x       y       z     vdW  Elec       q    Type
REMARK                         _______ _______ _______ _____ _____    ______ ____
ROOT
ATOM      1  C25 UNL     1      74.502  71.057 105.575  0.00  0.00    +0.000 C 
ATOM      2  C26 UNL     1      75.924  71.049 104.943  0.00  0.00    +0.000 C 
ATOM      3  C27 UNL     1      76.573  72.452 104.942  0.00  0.00    +0.000 C 
ATOM      4  C28 UNL     1      77.947  72.480 104.236  0.00  0.00    +0.000 C 
ATOM      5  N2  UNL     1      77.804  72.362 102.781  0.00  0.00    +0.000 N 
ATOM      6  C29 UNL     1      78.894  72.648 101.889  0.00  0.00    +0.000 C 
ATOM      7  O5  UNL     1      80.013  73.007 102.347  0.00  0.00    +0.000 OA
ATOM      8  C30 UNL     1      78.716  72.529 100.397  0.00  0.00    +0.000 C 
ATOM      9  C31 UNL     1      78.439  71.071  99.989  0.00  0.00    +0.000 C 
ATOM     10  C32 UNL     1      77.314  71.154  98.949  0.00  0.00    +0.000 C 
ATOM     11  C33 UNL     1      76.359  69.955  99.012  0.00  0.00    +0.000 C 
ATOM     12  C34 UNL     1      76.605  72.478  99.221  0.00  0.00    +0.000 C 
ATOM     13  N3  UNL     1      77.568  73.303  99.933  0.00  0.00    +0.000 N 
ATOM     14  C35 UNL     1      77.466  74.737 100.096  0.00  0.00    +0.000 C 
ATOM     15  O7  UNL     1      78.134  75.303 101.002  0.00  0.00    +0.000 OA
ATOM     16  C36 UNL     1      76.639  75.616  99.167  0.00  0.00    +0.000 C 
ATOM     17  N4  UNL     1      75.222  75.215  99.220  0.00  0.00    +0.000 N 
ATOM     18  C37 UNL     1      74.183  75.829  98.435  0.00  0.00    +0.000 C 
ATOM     19  O8  UNL     1      74.329  75.933  97.188  0.00  0.00    +0.000 OA
ATOM     20  C38 UNL     1      72.862  76.277  99.042  0.00  0.00    +0.000 C 
ATOM     21  N5  UNL     1      72.789  76.034 100.489  0.00  0.00    +0.000 N 
ATOM     22  C39 UNL     1      71.536  75.847 101.172  0.00  0.00    +0.000 C 
ATOM     23  O9  UNL     1      70.453  75.882 100.531  0.00  0.00    +0.000 OA
ATOM     24  C40 UNL     1      71.505  75.573 102.653  0.00  0.00    +0.000 C 
ATOM     25  C41 UNL     1      72.253  76.649 103.454  0.00  0.00    +0.000 C 
ATOM     26  C42 UNL     1      73.380  75.925 104.201  0.00  0.00    +0.000 C 
ATOM     27  C43 UNL     1      73.392  74.479 103.699  0.00  0.00    +0.000 C 
ATOM     28  N6  UNL     1      72.168  74.304 102.935  0.00  0.00    +0.000 N 
ATOM     29  C44 UNL     1      71.499  73.033 102.751  0.00  0.00    +0.000 C 
ATOM     30  O11 UNL     1      70.239  73.003 102.776  0.00  0.00    +0.000 OA
ATOM     31  C45 UNL     1      72.229  71.732 102.446  0.00  0.00    +0.000 C 
ATOM     32  N7  UNL     1      73.422  71.563 103.283  0.00  0.00    +0.000 N 
ATOM     33  C46 UNL     1      73.363  70.938 104.579  0.00  0.00    +0.000 C 
ATOM     34  O12 UNL     1      72.297  70.367 104.944  0.00  0.00    +0.000 OA
ATOM     35  H32 UNL     1      76.873  72.128 102.366  0.00  0.00    +0.000 HD
ATOM     36  H43 UNL     1      74.924  74.622 100.024  0.00  0.00    +0.000 HD
ATOM     37  H45 UNL     1      73.654  76.115 101.065  0.00  0.00    +0.000 HD
ATOM     38  H54 UNL     1      74.323  71.967 102.946  0.00  0.00    +0.000 HD
ENDROOT
BRANCH   1  41
ATOM     39  C24 UNL     1      73.970  70.256 107.951  0.00  0.00    +0.000 C 
ATOM     40  O2  UNL     1      73.500  71.386 108.260  0.00  0.00    +0.000 OA
ATOM     41  N1  UNL     1      74.399  70.007 106.598  0.00  0.00    +0.000 N 
ATOM     42  H24 UNL     1      74.623  69.031 106.305  0.00  0.00    +0.000 HD
BRANCH  39  46
ATOM     43  C18 UNL     1      74.204  67.170 110.951  0.00  0.00    +0.000 A 
ATOM     44  C19 UNL     1      75.000  68.325 111.053  0.00  0.00    +0.000 A 
ATOM     45  C20 UNL     1      74.924  69.329 110.084  0.00  0.00    +0.000 A 
ATOM     46  C21 UNL     1      74.057  69.198 108.985  0.00  0.00    +0.000 A 
ATOM     47  C22 UNL     1      73.250  68.053 108.892  0.00  0.00    +0.000 A 
ATOM     48  C23 UNL     1      73.324  67.048 109.862  0.00  0.00    +0.000 A 
BRANCH  43  52
ATOM     49  C12 UNL     1      74.424  64.051 113.919  0.00  0.00    +0.000 A 
ATOM     50  C13 UNL     1      73.370  64.981 113.934  0.00  0.00    +0.000 A 
ATOM     51  C14 UNL     1      73.304  65.995 112.976  0.00  0.00    +0.000 A 
ATOM     52  C15 UNL     1      74.290  66.105 111.982  0.00  0.00    +0.000 A 
ATOM     53  C16 UNL     1      75.349  65.181 111.970  0.00  0.00    +0.000 A 
ATOM     54  C17 UNL     1      75.415  64.164 112.928  0.00  0.00    +0.000 A 
BRANCH  49  58
ATOM     55  C6  UNL     1      74.516  60.876 116.830  0.00  0.00    +0.000 A 
ATOM     56  C7  UNL     1      74.399  60.583 115.458  0.00  0.00    +0.000 A 
ATOM     57  C8  UNL     1      74.380  61.613 114.515  0.00  0.00    +0.000 A 
ATOM     58  C9  UNL     1      74.476  62.956 114.922  0.00  0.00    +0.000 A 
ATOM     59  C10 UNL     1      74.604  63.243 116.293  0.00  0.00    +0.000 A 
ATOM     60  C11 UNL     1      74.626  62.210 117.234  0.00  0.00    +0.000 A 
BRANCH  55  61
ATOM     61  O1  UNL     1      74.523  59.877 117.816  0.00  0.00    +0.000 OA
BRANCH  61  62
ATOM     62  C5  UNL     1      73.379  59.115 118.193  0.00  0.00    +0.000 C 
BRANCH  62  63
ATOM     63  C4  UNL     1      72.161  60.035 118.284  0.00  0.00    +0.000 C 
BRANCH  63  64
ATOM     64  C3  UNL     1      71.116  59.774 117.178  0.00  0.00    +0.000 C 
BRANCH  64  66
ATOM     65  C1  UNL     1      70.957  62.329 116.952  0.00  0.00    +0.000 C 
ATOM     66  C2  UNL     1      70.863  60.976 116.246  0.00  0.00    +0.000 C 
ENDBRANCH  64  66
ENDBRANCH  63  64
ENDBRANCH  62  63
ENDBRANCH  61  62
ENDBRANCH  55  61
ENDBRANCH  49  58
ENDBRANCH  43  52
ENDBRANCH  39  46
ENDBRANCH   1  41
BRANCH   3  67
ATOM     67  O3  UNL     1      76.734  72.877 106.272  0.00  0.00    +0.000 OA
ATOM     68  H29 UNL     1      76.042  73.570 106.443  0.00  0.00    +0.000 HD
ENDBRANCH   3  67
BRANCH   4  69
ATOM     69  O4  UNL     1      78.760  71.442 104.725  0.00  0.00    +0.000 OA
ATOM     70  H31 UNL     1      79.697  71.667 104.493  0.00  0.00    +0.000 HD
ENDBRANCH   4  69
BRANCH   9  71
ATOM     71  O6  UNL     1      79.578  70.479  99.424  0.00  0.00    +0.000 OA
ATOM     72  H35 UNL     1      79.268  69.983  98.620  0.00  0.00    +0.000 HD
ENDBRANCH   9  71
BRANCH  26  73
ATOM     73  O10 UNL     1      74.626  76.555 104.030  0.00  0.00    +0.000 OA
ATOM     74  H50 UNL     1      75.079  76.135 103.254  0.00  0.00    +0.000 HD
ENDBRANCH  26  73
BRANCH  31  75
ATOM     75  C47 UNL     1      72.590  71.587 100.949  0.00  0.00    +0.000 C 
ATOM     76  C48 UNL     1      71.387  71.163 100.089  0.00  0.00    +0.000 C 
BRANCH  75  77
ATOM     77  O13 UNL     1      73.178  72.761 100.454  0.00  0.00    +0.000 OA
ATOM     78  H59 UNL     1      73.958  72.975 101.025  0.00  0.00    +0.000 HD
ENDBRANCH  75  77
ENDBRANCH  31  75
BRANCH  16  79
ATOM     79  C57 UNL     1      77.211  75.653  97.709  0.00  0.00    +0.000 C 
ATOM     80  C58 UNL     1      78.667  75.166  97.592  0.00  0.00    +0.000 C 
BRANCH  79  81
ATOM     81  O17 UNL     1      77.123  76.954  97.182  0.00  0.00    +0.000 OA
ATOM     82  H73 UNL     1      76.719  77.539  97.877  0.00  0.00    +0.000 HD
ENDBRANCH  79  81
ENDBRANCH  16  79
BRANCH  20  83
ATOM     83  C49 UNL     1      72.547  77.767  98.730  0.00  0.00    +0.000 C 
BRANCH  83  84
ATOM     84  O14 UNL     1      72.648  78.530  99.908  0.00  0.00    +0.000 OA
ATOM     85  H61 UNL     1      71.834  79.099  99.954  0.00  0.00    +0.000 HD
ENDBRANCH  83  84
BRANCH  83  86
ATOM     86  C50 UNL     1      71.149  77.987  98.100  0.00  0.00    +0.000 C 
BRANCH  86  87
ATOM     87  C51 UNL     1      71.263  78.810  96.833  0.00  0.00    +0.000 A 
ATOM     88  C52 UNL     1      70.149  78.973  95.991  0.00  0.00    +0.000 A 
ATOM     89  C53 UNL     1      70.244  79.760  94.839  0.00  0.00    +0.000 A 
ATOM     90  C54 UNL     1      71.450  80.398  94.518  0.00  0.00    +0.000 A 
ATOM     91  C55 UNL     1      72.560  80.245  95.356  0.00  0.00    +0.000 A 
ATOM     92  C56 UNL     1      72.467  79.458  96.507  0.00  0.00    +0.000 A 
BRANCH  90  93
ATOM     93  O16 UNL     1      71.554  81.189  93.376  0.00  0.00    +0.000 OA
ATOM     94  H66 UNL     1      72.298  81.051  92.702  0.00  0.00    +0.000 HD
ENDBRANCH  90  93
ENDBRANCH  86  87
BRANCH  86  95
ATOM     95  O15 UNL     1      70.552  76.751  97.801  0.00  0.00    +0.000 OA
ATOM     96  H63 UNL     1      70.332  76.764  96.833  0.00  0.00    +0.000 HD
ENDBRANCH  86  95
ENDBRANCH  83  86
ENDBRANCH  20  83
TORSDOF 23
ENDMDL
MODEL 16
REMARK VINA RESULT:      -6.8      8.022     16.618
REMARK  Name = ./S4286.pdb
REMARK  27 active torsions:
REMARK  status: ('A' for Active; 'I' for Inactive)
REMARK    1  A    between atoms: C1_1  and  C2_2
REMARK    2  A    between atoms: C2_2  and  C3_3
REMARK    3  A    between atoms: C3_3  and  C4_4
REMARK    4  A    between atoms: C4_4  and  C5_5
REMARK    5  A    between atoms: C5_5  and  O1_6
REMARK    6  A    between atoms: O1_6  and  C6_7
REMARK    7  A    between atoms: C9_10  and  C12_13
REMARK    8  A    between atoms: C15_16  and  C18_19
REMARK    9  A    between atoms: C21_22  and  C24_25
REMARK   10  A    between atoms: N1_27  and  C25_28
REMARK   11  A    between atoms: C27_30  and  O3_31
REMARK   12  A    between atoms: C28_32  and  O4_33
REMARK   13  A    between atoms: C31_38  and  O6_39
REMARK   14  A    between atoms: C32_40  and  C33_41
REMARK   15  A    between atoms: C36_46  and  C57_80
REMARK   16  A    between atoms: C38_50  and  C49_69
REMARK   17  A    between atoms: C42_56  and  O10_57
REMARK   18  A    between atoms: C45_62  and  C47_66
REMARK   19  A    between atoms: C47_66  and  C48_67
REMARK   20  A    between atoms: C47_66  and  O13_68
REMARK   21  A    between atoms: C49_69  and  O14_70
REMARK   22  A    between atoms: C49_69  and  C50_71
REMARK   23  A    between atoms: C50_71  and  O15_72
REMARK   24  A    between atoms: C50_71  and  C51_73
REMARK   25  A    between atoms: C54_76  and  O16_77
REMARK   26  A    between atoms: C57_80  and  C58_81
REMARK   27  A    between atoms: C57_80  and  O17_82
REMARK                            x       y       z     vdW  Elec       q    Type
REMARK                         _______ _______ _______ _____ _____    ______ ____
ROOT
ATOM      1  C25 UNL     1      72.900  63.237 103.619  0.00  0.00    +0.000 C 
ATOM      2  C26 UNL     1      71.600  63.067 102.779  0.00  0.00    +0.000 C 
ATOM      3  C27 UNL     1      70.848  61.760 103.122  0.00  0.00    +0.000 C 
ATOM      4  C28 UNL     1      69.605  61.530 102.234  0.00  0.00    +0.000 C 
ATOM      5  N2  UNL     1      69.985  61.150 100.870  0.00  0.00    +0.000 N 
ATOM      6  C29 UNL     1      69.030  60.607  99.943  0.00  0.00    +0.000 C 
ATOM      7  O5  UNL     1      67.828  60.448 100.289  0.00  0.00    +0.000 OA
ATOM      8  C30 UNL     1      69.450  60.215  98.550  0.00  0.00    +0.000 C 
ATOM      9  C31 UNL     1      69.905  61.444  97.743  0.00  0.00    +0.000 C 
ATOM     10  C32 UNL     1      71.169  60.991  97.002  0.00  0.00    +0.000 C 
ATOM     11  C33 UNL     1      72.196  62.119  96.837  0.00  0.00    +0.000 C 
ATOM     12  C34 UNL     1      71.718  59.819  97.811  0.00  0.00    +0.000 C 
ATOM     13  N3  UNL     1      70.591  59.303  98.573  0.00  0.00    +0.000 N 
ATOM     14  C35 UNL     1      70.549  58.004  99.209  0.00  0.00    +0.000 C 
ATOM     15  O7  UNL     1      69.704  57.791 100.119  0.00  0.00    +0.000 OA
ATOM     16  C36 UNL     1      71.439  56.846  98.779  0.00  0.00    +0.000 C 
ATOM     17  N4  UNL     1      72.857  57.208  98.946  0.00  0.00    +0.000 N 
ATOM     18  C37 UNL     1      73.954  56.342  98.600  0.00  0.00    +0.000 C 
ATOM     19  O8  UNL     1      74.000  55.829  97.450  0.00  0.00    +0.000 OA
ATOM     20  C38 UNL     1      75.122  56.093  99.541  0.00  0.00    +0.000 C 
ATOM     21  N5  UNL     1      74.986  56.805 100.819  0.00  0.00    +0.000 N 
ATOM     22  C39 UNL     1      76.126  57.181 101.612  0.00  0.00    +0.000 C 
ATOM     23  O9  UNL     1      77.291  56.907 101.219  0.00  0.00    +0.000 OA
ATOM     24  C40 UNL     1      75.946  57.935 102.905  0.00  0.00    +0.000 C 
ATOM     25  C41 UNL     1      74.996  57.207 103.868  0.00  0.00    +0.000 C 
ATOM     26  C42 UNL     1      73.827  58.167 104.128  0.00  0.00    +0.000 C 
ATOM     27  C43 UNL     1      74.012  59.360 103.188  0.00  0.00    +0.000 C 
ATOM     28  N6  UNL     1      75.351  59.240 102.635  0.00  0.00    +0.000 N 
ATOM     29  C44 UNL     1      76.141  60.359 102.167  0.00  0.00    +0.000 C 
ATOM     30  O11 UNL     1      77.380  60.367 102.402  0.00  0.00    +0.000 OA
ATOM     31  C45 UNL     1      75.576  61.499 101.332  0.00  0.00    +0.000 C 
ATOM     32  N7  UNL     1      74.283  61.968 101.844  0.00  0.00    +0.000 N 
ATOM     33  C46 UNL     1      74.187  62.989 102.855  0.00  0.00    +0.000 C 
ATOM     34  O12 UNL     1      75.224  63.624 103.195  0.00  0.00    +0.000 OA
ATOM     35  H32 UNL     1      70.985  61.209 100.571  0.00  0.00    +0.000 HD
ATOM     36  H43 UNL     1      73.072  58.029  99.552  0.00  0.00    +0.000 HD
ATOM     37  H45 UNL     1      74.037  56.942 101.229  0.00  0.00    +0.000 HD
ATOM     38  H54 UNL     1      73.416  61.496 101.505  0.00  0.00    +0.000 HD
ENDROOT
BRANCH   1  41
ATOM     39  C24 UNL     1      72.301  64.861 105.510  0.00  0.00    +0.000 C 
ATOM     40  O2  UNL     1      71.845  63.918 106.215  0.00  0.00    +0.000 OA
ATOM     41  N1  UNL     1      72.924  64.567 104.244  0.00  0.00    +0.000 N 
ATOM     42  H24 UNL     1      73.450  65.320 103.747  0.00  0.00    +0.000 HD
BRANCH  39  46
ATOM     43  C18 UNL     1      72.030  68.916 106.945  0.00  0.00    +0.000 A 
ATOM     44  C19 UNL     1      71.097  67.950 107.360  0.00  0.00    +0.000 A 
ATOM     45  C20 UNL     1      71.184  66.633 106.899  0.00  0.00    +0.000 A 
ATOM     46  C21 UNL     1      72.200  66.254 106.006  0.00  0.00    +0.000 A 
ATOM     47  C22 UNL     1      73.143  67.214 105.605  0.00  0.00    +0.000 A 
ATOM     48  C23 UNL     1      73.058  68.532 106.066  0.00  0.00    +0.000 A 
BRANCH  43  52
ATOM     49  C12 UNL     1      71.734  72.961 108.408  0.00  0.00    +0.000 A 
ATOM     50  C13 UNL     1      70.591  72.275 107.964  0.00  0.00    +0.000 A 
ATOM     51  C14 UNL     1      70.690  70.966 107.483  0.00  0.00    +0.000 A 
ATOM     52  C15 UNL     1      71.933  70.314 107.434  0.00  0.00    +0.000 A 
ATOM     53  C16 UNL     1      73.078  71.002 107.870  0.00  0.00    +0.000 A 
ATOM     54  C17 UNL     1      72.980  72.311 108.352  0.00  0.00    +0.000 A 
BRANCH  49  58
ATOM     55  C6  UNL     1      71.430  76.946 110.016  0.00  0.00    +0.000 A 
ATOM     56  C7  UNL     1      72.609  76.525 109.371  0.00  0.00    +0.000 A 
ATOM     57  C8  UNL     1      72.702  75.236 108.841  0.00  0.00    +0.000 A 
ATOM     58  C9  UNL     1      71.622  74.341 108.945  0.00  0.00    +0.000 A 
ATOM     59  C10 UNL     1      70.442  74.770 109.579  0.00  0.00    +0.000 A 
ATOM     60  C11 UNL     1      70.351  76.062 110.106  0.00  0.00    +0.000 A 
BRANCH  55  61
ATOM     61  O1  UNL     1      71.295  78.225 110.578  0.00  0.00    +0.000 OA
BRANCH  61  62
ATOM     62  C5  UNL     1      72.130  78.738 111.613  0.00  0.00    +0.000 C 
BRANCH  62  63
ATOM     63  C4  UNL     1      71.836  77.998 112.918  0.00  0.00    +0.000 C 
BRANCH  63  64
ATOM     64  C3  UNL     1      72.831  76.854 113.208  0.00  0.00    +0.000 C 
BRANCH  64  66
ATOM     65  C1  UNL     1      72.694  74.384 112.512  0.00  0.00    +0.000 C 
ATOM     66  C2  UNL     1      72.171  75.480 113.442  0.00  0.00    +0.000 C 
ENDBRANCH  64  66
ENDBRANCH  63  64
ENDBRANCH  62  63
ENDBRANCH  61  62
ENDBRANCH  55  61
ENDBRANCH  49  58
ENDBRANCH  43  52
ENDBRANCH  39  46
ENDBRANCH   1  41
BRANCH   3  67
ATOM     67  O3  UNL     1      70.446  61.809 104.468  0.00  0.00    +0.000 OA
ATOM     68  H29 UNL     1      70.061  60.920 104.690  0.00  0.00    +0.000 HD
ENDBRANCH   3  67
BRANCH   4  69
ATOM     69  O4  UNL     1      68.812  62.691 102.207  0.00  0.00    +0.000 OA
ATOM     70  H31 UNL     1      69.000  63.194 103.040  0.00  0.00    +0.000 HD
ENDBRANCH   4  69
BRANCH   9  71
ATOM     71  O6  UNL     1      68.920  61.840  96.826  0.00  0.00    +0.000 OA
ATOM     72  H35 UNL     1      69.333  61.773  95.924  0.00  0.00    +0.000 HD
ENDBRANCH   9  71
BRANCH  26  73
ATOM     73  O10 UNL     1      72.577  57.544 103.955  0.00  0.00    +0.000 OA
ATOM     74  H50 UNL     1      71.916  58.244 103.718  0.00  0.00    +0.000 HD
ENDBRANCH  26  73
BRANCH  31  75
ATOM     75  C47 UNL     1      75.468  61.143  99.830  0.00  0.00    +0.000 C 
ATOM     76  C48 UNL     1      76.478  60.063  99.406  0.00  0.00    +0.000 C 
BRANCH  75  77
ATOM     77  O13 UNL     1      74.158  60.773  99.491  0.00  0.00    +0.000 OA
ATOM     78  H59 UNL     1      73.949  59.927  99.960  0.00  0.00    +0.000 HD
ENDBRANCH  75  77
ENDBRANCH  31  75
BRANCH  16  79
ATOM     79  C57 UNL     1      71.103  56.336  97.336  0.00  0.00    +0.000 C 
ATOM     80  C58 UNL     1      69.706  56.745  96.833  0.00  0.00    +0.000 C 
BRANCH  79  81
ATOM     81  O17 UNL     1      71.217  54.935  97.274  0.00  0.00    +0.000 OA
ATOM     82  H73 UNL     1      70.979  54.569  98.167  0.00  0.00    +0.000 HD
ENDBRANCH  79  81
ENDBRANCH  16  79
BRANCH  20  83
ATOM     83  C49 UNL     1      75.361  54.578  99.793  0.00  0.00    +0.000 C 
BRANCH  83  84
ATOM     84  O14 UNL     1      75.338  54.316 101.175  0.00  0.00    +0.000 OA
ATOM     85  H61 UNL     1      76.064  54.857 101.584  0.00  0.00    +0.000 HD
ENDBRANCH  83  84
BRANCH  83  86
ATOM     86  C50 UNL     1      76.692  54.052  99.199  0.00  0.00    +0.000 C 
BRANCH  86  87
ATOM     87  C51 UNL     1      76.433  53.272  97.927  0.00  0.00    +0.000 A 
ATOM     88  C52 UNL     1      75.231  52.561  97.763  0.00  0.00    +0.000 A 
ATOM     89  C53 UNL     1      74.977  51.869  96.574  0.00  0.00    +0.000 A 
ATOM     90  C54 UNL     1      75.916  51.885  95.534  0.00  0.00    +0.000 A 
ATOM     91  C55 UNL     1      77.111  52.596  95.689  0.00  0.00    +0.000 A 
ATOM     92  C56 UNL     1      77.367  53.288  96.876  0.00  0.00    +0.000 A 
BRANCH  90  93
ATOM     93  O16 UNL     1      75.670  51.203  94.344  0.00  0.00    +0.000 OA
ATOM     94  H66 UNL     1      76.369  51.144  93.614  0.00  0.00    +0.000 HD
ENDBRANCH  90  93
ENDBRANCH  86  87
BRANCH  86  95
ATOM     95  O15 UNL     1      77.556  55.125  98.921  0.00  0.00    +0.000 OA
ATOM     96  H63 UNL     1      77.061  55.745  98.324  0.00  0.00    +0.000 HD
ENDBRANCH  86  95
ENDBRANCH  83  86
ENDBRANCH  20  83
TORSDOF 23
ENDMDL
MODEL 17
REMARK VINA RESULT:      -6.8      8.032     16.255
REMARK  Name = ./S4286.pdb
REMARK  27 active torsions:
REMARK  status: ('A' for Active; 'I' for Inactive)
REMARK    1  A    between atoms: C1_1  and  C2_2
REMARK    2  A    between atoms: C2_2  and  C3_3
REMARK    3  A    between atoms: C3_3  and  C4_4
REMARK    4  A    between atoms: C4_4  and  C5_5
REMARK    5  A    between atoms: C5_5  and  O1_6
REMARK    6  A    between atoms: O1_6  and  C6_7
REMARK    7  A    between atoms: C9_10  and  C12_13
REMARK    8  A    between atoms: C15_16  and  C18_19
REMARK    9  A    between atoms: C21_22  and  C24_25
REMARK   10  A    between atoms: N1_27  and  C25_28
REMARK   11  A    between atoms: C27_30  and  O3_31
REMARK   12  A    between atoms: C28_32  and  O4_33
REMARK   13  A    between atoms: C31_38  and  O6_39
REMARK   14  A    between atoms: C32_40  and  C33_41
REMARK   15  A    between atoms: C36_46  and  C57_80
REMARK   16  A    between atoms: C38_50  and  C49_69
REMARK   17  A    between atoms: C42_56  and  O10_57
REMARK   18  A    between atoms: C45_62  and  C47_66
REMARK   19  A    between atoms: C47_66  and  C48_67
REMARK   20  A    between atoms: C47_66  and  O13_68
REMARK   21  A    between atoms: C49_69  and  O14_70
REMARK   22  A    between atoms: C49_69  and  C50_71
REMARK   23  A    between atoms: C50_71  and  O15_72
REMARK   24  A    between atoms: C50_71  and  C51_73
REMARK   25  A    between atoms: C54_76  and  O16_77
REMARK   26  A    between atoms: C57_80  and  C58_81
REMARK   27  A    between atoms: C57_80  and  O17_82
REMARK                            x       y       z     vdW  Elec       q    Type
REMARK                         _______ _______ _______ _____ _____    ______ ____
ROOT
ATOM      1  C25 UNL     1      72.896  63.249 103.662  0.00  0.00    +0.000 C 
ATOM      2  C26 UNL     1      71.600  63.080 102.818  0.00  0.00    +0.000 C 
ATOM      3  C27 UNL     1      70.843  61.776 103.161  0.00  0.00    +0.000 C 
ATOM      4  C28 UNL     1      69.602  61.547 102.268  0.00  0.00    +0.000 C 
ATOM      5  N2  UNL     1      69.986  61.163 100.906  0.00  0.00    +0.000 N 
ATOM      6  C29 UNL     1      69.034  60.620  99.977  0.00  0.00    +0.000 C 
ATOM      7  O5  UNL     1      67.830  60.466 100.319  0.00  0.00    +0.000 OA
ATOM      8  C30 UNL     1      69.459  60.224  98.586  0.00  0.00    +0.000 C 
ATOM      9  C31 UNL     1      69.920  61.450  97.779  0.00  0.00    +0.000 C 
ATOM     10  C32 UNL     1      71.186  60.991  97.044  0.00  0.00    +0.000 C 
ATOM     11  C33 UNL     1      72.217  62.116  96.881  0.00  0.00    +0.000 C 
ATOM     12  C34 UNL     1      71.728  59.820  97.858  0.00  0.00    +0.000 C 
ATOM     13  N3  UNL     1      70.597  59.308  98.617  0.00  0.00    +0.000 N 
ATOM     14  C35 UNL     1      70.549  58.011  99.256  0.00  0.00    +0.000 C 
ATOM     15  O7  UNL     1      69.699  57.803 100.162  0.00  0.00    +0.000 OA
ATOM     16  C36 UNL     1      71.437  56.849  98.833  0.00  0.00    +0.000 C 
ATOM     17  N4  UNL     1      72.856  57.208  99.004  0.00  0.00    +0.000 N 
ATOM     18  C37 UNL     1      73.952  56.339  98.665  0.00  0.00    +0.000 C 
ATOM     19  O8  UNL     1      74.001  55.823  97.516  0.00  0.00    +0.000 OA
ATOM     20  C38 UNL     1      75.116  56.089  99.612  0.00  0.00    +0.000 C 
ATOM     21  N5  UNL     1      74.976  56.804 100.887  0.00  0.00    +0.000 N 
ATOM     22  C39 UNL     1      76.114  57.179 101.684  0.00  0.00    +0.000 C 
ATOM     23  O9  UNL     1      77.280  56.901 101.296  0.00  0.00    +0.000 OA
ATOM     24  C40 UNL     1      75.930  57.936 102.974  0.00  0.00    +0.000 C 
ATOM     25  C41 UNL     1      74.975  57.214 103.935  0.00  0.00    +0.000 C 
ATOM     26  C42 UNL     1      73.807  58.177 104.188  0.00  0.00    +0.000 C 
ATOM     27  C43 UNL     1      73.999  59.367 103.245  0.00  0.00    +0.000 C 
ATOM     28  N6  UNL     1      75.340  59.243 102.699  0.00  0.00    +0.000 N 
ATOM     29  C44 UNL     1      76.135  60.358 102.231  0.00  0.00    +0.000 C 
ATOM     30  O11 UNL     1      77.373  60.364 102.471  0.00  0.00    +0.000 OA
ATOM     31  C45 UNL     1      75.576  61.498 101.391  0.00  0.00    +0.000 C 
ATOM     32  N7  UNL     1      74.283  61.971 101.896  0.00  0.00    +0.000 N 
ATOM     33  C46 UNL     1      74.186  62.996 102.904  0.00  0.00    +0.000 C 
ATOM     34  O12 UNL     1      75.223  63.628 103.247  0.00  0.00    +0.000 OA
ATOM     35  H32 UNL     1      70.988  61.219 100.612  0.00  0.00    +0.000 HD
ATOM     36  H43 UNL     1      73.071  58.030  99.609  0.00  0.00    +0.000 HD
ATOM     37  H45 UNL     1      74.026  56.945 101.293  0.00  0.00    +0.000 HD
ATOM     38  H54 UNL     1      73.416  61.501 101.555  0.00  0.00    +0.000 HD
ENDROOT
BRANCH   1  41
ATOM     39  C24 UNL     1      72.273  64.885 105.535  0.00  0.00    +0.000 C 
ATOM     40  O2  UNL     1      71.790  63.950 106.233  0.00  0.00    +0.000 OA
ATOM     41  N1  UNL     1      72.921  64.580 104.284  0.00  0.00    +0.000 N 
ATOM     42  H24 UNL     1      73.467  65.325 103.798  0.00  0.00    +0.000 HD
BRANCH  39  46
ATOM     43  C18 UNL     1      72.017  68.947 106.952  0.00  0.00    +0.000 A 
ATOM     44  C19 UNL     1      71.083  67.985 107.374  0.00  0.00    +0.000 A 
ATOM     45  C20 UNL     1      71.164  66.666 106.920  0.00  0.00    +0.000 A 
ATOM     46  C21 UNL     1      72.177  66.280 106.025  0.00  0.00    +0.000 A 
ATOM     47  C22 UNL     1      73.121  67.237 105.616  0.00  0.00    +0.000 A 
ATOM     48  C23 UNL     1      73.040  68.557 106.072  0.00  0.00    +0.000 A 
BRANCH  43  52
ATOM     49  C12 UNL     1      71.734  73.000 108.397  0.00  0.00    +0.000 A 
ATOM     50  C13 UNL     1      70.588  72.316 107.955  0.00  0.00    +0.000 A 
ATOM     51  C14 UNL     1      70.683  71.005 107.480  0.00  0.00    +0.000 A 
ATOM     52  C15 UNL     1      71.924  70.348 107.435  0.00  0.00    +0.000 A 
ATOM     53  C16 UNL     1      73.071  71.033 107.869  0.00  0.00    +0.000 A 
ATOM     54  C17 UNL     1      72.978  72.345 108.346  0.00  0.00    +0.000 A 
BRANCH  49  58
ATOM     55  C6  UNL     1      71.443  76.993 109.988  0.00  0.00    +0.000 A 
ATOM     56  C7  UNL     1      72.623  76.562 109.353  0.00  0.00    +0.000 A 
ATOM     57  C8  UNL     1      72.712  75.271 108.829  0.00  0.00    +0.000 A 
ATOM     58  C9  UNL     1      71.626  74.383 108.928  0.00  0.00    +0.000 A 
ATOM     59  C10 UNL     1      70.445  74.821 109.553  0.00  0.00    +0.000 A 
ATOM     60  C11 UNL     1      70.357  76.115 110.074  0.00  0.00    +0.000 A 
BRANCH  55  61
ATOM     61  O1  UNL     1      71.311  78.274 110.544  0.00  0.00    +0.000 OA
BRANCH  61  62
ATOM     62  C5  UNL     1      72.155  78.794 111.569  0.00  0.00    +0.000 C 
BRANCH  62  63
ATOM     63  C4  UNL     1      71.876  78.057 112.880  0.00  0.00    +0.000 C 
BRANCH  63  64
ATOM     64  C3  UNL     1      72.859  76.898 113.149  0.00  0.00    +0.000 C 
BRANCH  64  66
ATOM     65  C1  UNL     1      72.687  74.420 112.493  0.00  0.00    +0.000 C 
ATOM     66  C2  UNL     1      72.183  75.537 113.407  0.00  0.00    +0.000 C 
ENDBRANCH  64  66
ENDBRANCH  63  64
ENDBRANCH  62  63
ENDBRANCH  61  62
ENDBRANCH  55  61
ENDBRANCH  49  58
ENDBRANCH  43  52
ENDBRANCH  39  46
ENDBRANCH   1  41
BRANCH   3  67
ATOM     67  O3  UNL     1      70.435  61.830 104.505  0.00  0.00    +0.000 OA
ATOM     68  H29 UNL     1      70.047  60.942 104.728  0.00  0.00    +0.000 HD
ENDBRANCH   3  67
BRANCH   4  69
ATOM     69  O4  UNL     1      68.812  62.710 102.235  0.00  0.00    +0.000 OA
ATOM     70  H31 UNL     1      68.761  63.056 103.163  0.00  0.00    +0.000 HD
ENDBRANCH   4  69
BRANCH   9  71
ATOM     71  O6  UNL     1      68.941  61.846  96.856  0.00  0.00    +0.000 OA
ATOM     72  H35 UNL     1      68.802  62.821  96.994  0.00  0.00    +0.000 HD
ENDBRANCH   9  71
BRANCH  26  73
ATOM     73  O10 UNL     1      72.556  57.558 104.012  0.00  0.00    +0.000 OA
ATOM     74  H50 UNL     1      71.898  58.259 103.769  0.00  0.00    +0.000 HD
ENDBRANCH  26  73
BRANCH  31  75
ATOM     75  C47 UNL     1      75.474  61.138  99.890  0.00  0.00    +0.000 C 
ATOM     76  C48 UNL     1      76.536  60.115  99.454  0.00  0.00    +0.000 C 
BRANCH  75  77
ATOM     77  O13 UNL     1      74.182  60.699  99.562  0.00  0.00    +0.000 OA
ATOM     78  H59 UNL     1      74.024  59.842 100.031  0.00  0.00    +0.000 HD
ENDBRANCH  75  77
ENDBRANCH  31  75
BRANCH  16  79
ATOM     79  C57 UNL     1      71.106  56.337  97.389  0.00  0.00    +0.000 C 
ATOM     80  C58 UNL     1      69.710  56.744  96.882  0.00  0.00    +0.000 C 
BRANCH  79  81
ATOM     81  O17 UNL     1      71.222  54.936  97.329  0.00  0.00    +0.000 OA
ATOM     82  H73 UNL     1      70.660  54.616  96.575  0.00  0.00    +0.000 HD
ENDBRANCH  79  81
ENDBRANCH  16  79
BRANCH  20  83
ATOM     83  C49 UNL     1      75.350  54.573  99.868  0.00  0.00    +0.000 C 
BRANCH  83  84
ATOM     84  O14 UNL     1      75.523  53.905  98.643  0.00  0.00    +0.000 OA
ATOM     85  H61 UNL     1      74.692  54.047  98.116  0.00  0.00    +0.000 HD
ENDBRANCH  83  84
BRANCH  83  86
ATOM     86  C50 UNL     1      74.204  53.893 100.660  0.00  0.00    +0.000 C 
BRANCH  86  87
ATOM     87  C51 UNL     1      74.710  53.388 101.995  0.00  0.00    +0.000 A 
ATOM     88  C52 UNL     1      76.063  53.539 102.344  0.00  0.00    +0.000 A 
ATOM     89  C53 UNL     1      76.524  53.103 103.591  0.00  0.00    +0.000 A 
ATOM     90  C54 UNL     1      75.637  52.518 104.505  0.00  0.00    +0.000 A 
ATOM     91  C55 UNL     1      74.288  52.371 104.166  0.00  0.00    +0.000 A 
ATOM     92  C56 UNL     1      73.826  52.805 102.920  0.00  0.00    +0.000 A 
BRANCH  90  93
ATOM     93  O16 UNL     1      76.084  52.085 105.751  0.00  0.00    +0.000 OA
ATOM     94  H66 UNL     1      75.473  51.594 106.392  0.00  0.00    +0.000 HD
ENDBRANCH  90  93
ENDBRANCH  86  87
BRANCH  86  95
ATOM     95  O15 UNL     1      73.155  54.805 100.873  0.00  0.00    +0.000 OA
ATOM     96  H63 UNL     1      73.098  55.373 100.061  0.00  0.00    +0.000 HD
ENDBRANCH  86  95
ENDBRANCH  83  86
ENDBRANCH  20  83
TORSDOF 23
ENDMDL
MODEL 18
REMARK VINA RESULT:      -6.7      1.434      2.625
REMARK  Name = ./S4286.pdb
REMARK  27 active torsions:
REMARK  status: ('A' for Active; 'I' for Inactive)
REMARK    1  A    between atoms: C1_1  and  C2_2
REMARK    2  A    between atoms: C2_2  and  C3_3
REMARK    3  A    between atoms: C3_3  and  C4_4
REMARK    4  A    between atoms: C4_4  and  C5_5
REMARK    5  A    between atoms: C5_5  and  O1_6
REMARK    6  A    between atoms: O1_6  and  C6_7
REMARK    7  A    between atoms: C9_10  and  C12_13
REMARK    8  A    between atoms: C15_16  and  C18_19
REMARK    9  A    between atoms: C21_22  and  C24_25
REMARK   10  A    between atoms: N1_27  and  C25_28
REMARK   11  A    between atoms: C27_30  and  O3_31
REMARK   12  A    between atoms: C28_32  and  O4_33
REMARK   13  A    between atoms: C31_38  and  O6_39
REMARK   14  A    between atoms: C32_40  and  C33_41
REMARK   15  A    between atoms: C36_46  and  C57_80
REMARK   16  A    between atoms: C38_50  and  C49_69
REMARK   17  A    between atoms: C42_56  and  O10_57
REMARK   18  A    between atoms: C45_62  and  C47_66
REMARK   19  A    between atoms: C47_66  and  C48_67
REMARK   20  A    between atoms: C47_66  and  O13_68
REMARK   21  A    between atoms: C49_69  and  O14_70
REMARK   22  A    between atoms: C49_69  and  C50_71
REMARK   23  A    between atoms: C50_71  and  O15_72
REMARK   24  A    between atoms: C50_71  and  C51_73
REMARK   25  A    between atoms: C54_76  and  O16_77
REMARK   26  A    between atoms: C57_80  and  C58_81
REMARK   27  A    between atoms: C57_80  and  O17_82
REMARK                            x       y       z     vdW  Elec       q    Type
REMARK                         _______ _______ _______ _____ _____    ______ ____
ROOT
ATOM      1  C25 UNL     1      79.225  65.208 102.246  0.00  0.00    +0.000 C 
ATOM      2  C26 UNL     1      78.258  64.170 101.606  0.00  0.00    +0.000 C 
ATOM      3  C27 UNL     1      76.906  64.802 101.202  0.00  0.00    +0.000 C 
ATOM      4  C28 UNL     1      75.899  63.768 100.650  0.00  0.00    +0.000 C 
ATOM      5  N2  UNL     1      75.371  62.912 101.716  0.00  0.00    +0.000 N 
ATOM      6  C29 UNL     1      74.220  62.075 101.513  0.00  0.00    +0.000 C 
ATOM      7  O5  UNL     1      73.636  62.058 100.396  0.00  0.00    +0.000 OA
ATOM      8  C30 UNL     1      73.691  61.213 102.631  0.00  0.00    +0.000 C 
ATOM      9  C31 UNL     1      74.714  60.134 103.027  0.00  0.00    +0.000 C 
ATOM     10  C32 UNL     1      74.698  60.111 104.561  0.00  0.00    +0.000 C 
ATOM     11  C33 UNL     1      76.073  59.795 105.163  0.00  0.00    +0.000 C 
ATOM     12  C34 UNL     1      74.180  61.484 104.983  0.00  0.00    +0.000 C 
ATOM     13  N3  UNL     1      73.443  61.997 103.838  0.00  0.00    +0.000 N 
ATOM     14  C35 UNL     1      72.502  63.095 103.886  0.00  0.00    +0.000 C 
ATOM     15  O7  UNL     1      72.191  63.686 102.818  0.00  0.00    +0.000 OA
ATOM     16  C36 UNL     1      71.806  63.529 105.169  0.00  0.00    +0.000 C 
ATOM     17  N4  UNL     1      72.803  63.954 106.167  0.00  0.00    +0.000 N 
ATOM     18  C37 UNL     1      72.472  64.394 107.497  0.00  0.00    +0.000 C 
ATOM     19  O8  UNL     1      71.738  63.671 108.224  0.00  0.00    +0.000 OA
ATOM     20  C38 UNL     1      73.053  65.662 108.103  0.00  0.00    +0.000 C 
ATOM     21  N5  UNL     1      73.949  66.374 107.183  0.00  0.00    +0.000 N 
ATOM     22  C39 UNL     1      75.005  67.232 107.652  0.00  0.00    +0.000 C 
ATOM     23  O9  UNL     1      75.193  67.390 108.887  0.00  0.00    +0.000 OA
ATOM     24  C40 UNL     1      75.921  67.924 106.675  0.00  0.00    +0.000 C 
ATOM     25  C41 UNL     1      75.142  68.756 105.646  0.00  0.00    +0.000 C 
ATOM     26  C42 UNL     1      75.495  68.180 104.268  0.00  0.00    +0.000 C 
ATOM     27  C43 UNL     1      76.328  66.919 104.513  0.00  0.00    +0.000 C 
ATOM     28  N6  UNL     1      76.681  66.930 105.922  0.00  0.00    +0.000 N 
ATOM     29  C44 UNL     1      77.857  66.290 106.472  0.00  0.00    +0.000 C 
ATOM     30  O11 UNL     1      78.491  66.873 107.392  0.00  0.00    +0.000 OA
ATOM     31  C45 UNL     1      78.333  64.904 106.058  0.00  0.00    +0.000 C 
ATOM     32  N7  UNL     1      78.285  64.719 104.603  0.00  0.00    +0.000 N 
ATOM     33  C46 UNL     1      79.387  65.083 103.750  0.00  0.00    +0.000 C 
ATOM     34  O12 UNL     1      80.490  65.412 104.269  0.00  0.00    +0.000 OA
ATOM     35  H32 UNL     1      75.792  62.950 102.672  0.00  0.00    +0.000 HD
ATOM     36  H43 UNL     1      73.764  64.165 105.822  0.00  0.00    +0.000 HD
ATOM     37  H45 UNL     1      73.748  66.358 106.159  0.00  0.00    +0.000 HD
ATOM     38  H54 UNL     1      77.398  64.372 104.177  0.00  0.00    +0.000 HD
ENDROOT
BRANCH   1  41
ATOM     39  C24 UNL     1      80.827  65.816 100.340  0.00  0.00    +0.000 C 
ATOM     40  O2  UNL     1      79.990  66.627  99.855  0.00  0.00    +0.000 OA
ATOM     41  N1  UNL     1      80.536  65.149 101.584  0.00  0.00    +0.000 N 
ATOM     42  H24 UNL     1      81.293  64.618 102.068  0.00  0.00    +0.000 HD
BRANCH  39  46
ATOM     43  C18 UNL     1      84.549  65.108  98.285  0.00  0.00    +0.000 A 
ATOM     44  C19 UNL     1      83.667  66.107  97.838  0.00  0.00    +0.000 A 
ATOM     45  C20 UNL     1      82.461  66.341  98.503  0.00  0.00    +0.000 A 
ATOM     46  C21 UNL     1      82.105  65.577  99.627  0.00  0.00    +0.000 A 
ATOM     47  C22 UNL     1      82.993  64.590 100.085  0.00  0.00    +0.000 A 
ATOM     48  C23 UNL     1      84.201  64.355  99.420  0.00  0.00    +0.000 A 
BRANCH  43  52
ATOM     49  C12 UNL     1      88.279  64.428  96.232  0.00  0.00    +0.000 A 
ATOM     50  C13 UNL     1      87.273  65.216  95.647  0.00  0.00    +0.000 A 
ATOM     51  C14 UNL     1      86.062  65.429  96.310  0.00  0.00    +0.000 A 
ATOM     52  C15 UNL     1      85.828  64.860  97.573  0.00  0.00    +0.000 A 
ATOM     53  C16 UNL     1      86.830  64.065  98.155  0.00  0.00    +0.000 A 
ATOM     54  C17 UNL     1      88.043  63.853  97.493  0.00  0.00    +0.000 A 
BRANCH  49  58
ATOM     55  C6  UNL     1      92.064  63.890  94.245  0.00  0.00    +0.000 A 
ATOM     56  C7  UNL     1      91.804  63.248  95.471  0.00  0.00    +0.000 A 
ATOM     57  C8  UNL     1      90.573  63.415  96.108  0.00  0.00    +0.000 A 
ATOM     58  C9  UNL     1      89.577  64.228  95.537  0.00  0.00    +0.000 A 
ATOM     59  C10 UNL     1      89.837  64.858  94.307  0.00  0.00    +0.000 A 
ATOM     60  C11 UNL     1      91.069  64.687  93.670  0.00  0.00    +0.000 A 
BRANCH  55  61
ATOM     61  O1  UNL     1      93.291  63.766  93.576  0.00  0.00    +0.000 OA
BRANCH  61  62
ATOM     62  C5  UNL     1      93.470  63.047  92.358  0.00  0.00    +0.000 C 
BRANCH  62  63
ATOM     63  C4  UNL     1      93.618  61.556  92.665  0.00  0.00    +0.000 C 
BRANCH  63  64
ATOM     64  C3  UNL     1      92.322  60.752  92.425  0.00  0.00    +0.000 C 
BRANCH  64  66
ATOM     65  C1  UNL     1      90.840  60.828  90.327  0.00  0.00    +0.000 C 
ATOM     66  C2  UNL     1      91.238  61.513  91.635  0.00  0.00    +0.000 C 
ENDBRANCH  64  66
ENDBRANCH  63  64
ENDBRANCH  62  63
ENDBRANCH  61  62
ENDBRANCH  55  61
ENDBRANCH  49  58
ENDBRANCH  43  52
ENDBRANCH  39  46
ENDBRANCH   1  41
BRANCH   3  67
ATOM     67  O3  UNL     1      77.139  65.782 100.222  0.00  0.00    +0.000 OA
ATOM     68  H29 UNL     1      77.831  66.397 100.584  0.00  0.00    +0.000 HD
ENDBRANCH   3  67
BRANCH   4  69
ATOM     69  O4  UNL     1      76.514  62.980  99.660  0.00  0.00    +0.000 OA
ATOM     70  H31 UNL     1      76.750  63.583  98.909  0.00  0.00    +0.000 HD
ENDBRANCH   4  69
BRANCH   9  71
ATOM     71  O6  UNL     1      74.347  58.879 102.520  0.00  0.00    +0.000 OA
ATOM     72  H35 UNL     1      73.381  58.939 102.292  0.00  0.00    +0.000 HD
ENDBRANCH   9  71
BRANCH  26  73
ATOM     73  O10 UNL     1      74.353  67.918 103.490  0.00  0.00    +0.000 OA
ATOM     74  H50 UNL     1      73.574  68.335 103.938  0.00  0.00    +0.000 HD
ENDBRANCH  26  73
BRANCH  31  75
ATOM     75  C47 UNL     1      77.565  63.770 106.775  0.00  0.00    +0.000 C 
ATOM     76  C48 UNL     1      77.968  63.626 108.253  0.00  0.00    +0.000 C 
BRANCH  75  77
ATOM     77  O13 UNL     1      76.178  63.934 106.642  0.00  0.00    +0.000 OA
ATOM     78  H59 UNL     1      75.921  64.756 107.130  0.00  0.00    +0.000 HD
ENDBRANCH  75  77
ENDBRANCH  31  75
BRANCH  16  79
ATOM     79  C57 UNL     1      70.821  62.440 105.714  0.00  0.00    +0.000 C 
ATOM     80  C58 UNL     1      70.475  61.337 104.696  0.00  0.00    +0.000 C 
BRANCH  79  81
ATOM     81  O17 UNL     1      69.628  63.038 106.159  0.00  0.00    +0.000 OA
ATOM     82  H73 UNL     1      69.820  63.499 107.019  0.00  0.00    +0.000 HD
ENDBRANCH  79  81
ENDBRANCH  16  79
BRANCH  20  83
ATOM     83  C49 UNL     1      71.949  66.622 108.629  0.00  0.00    +0.000 C 
BRANCH  83  84
ATOM     84  O14 UNL     1      72.493  67.902 108.841  0.00  0.00    +0.000 OA
ATOM     85  H61 UNL     1      71.728  68.529 108.936  0.00  0.00    +0.000 HD
ENDBRANCH  83  84
BRANCH  83  86
ATOM     86  C50 UNL     1      71.273  66.135 109.935  0.00  0.00    +0.000 C 
BRANCH  86  87
ATOM     87  C51 UNL     1      72.311  65.890 111.010  0.00  0.00    +0.000 A 
ATOM     88  C52 UNL     1      73.097  66.951 111.492  0.00  0.00    +0.000 A 
ATOM     89  C53 UNL     1      74.032  66.733 112.509  0.00  0.00    +0.000 A 
ATOM     90  C54 UNL     1      74.189  65.454 113.060  0.00  0.00    +0.000 A 
ATOM     91  C55 UNL     1      73.405  64.395 112.588  0.00  0.00    +0.000 A 
ATOM     92  C56 UNL     1      72.471  64.611 111.572  0.00  0.00    +0.000 A 
BRANCH  90  93
ATOM     93  O16 UNL     1      75.114  65.226 114.076  0.00  0.00    +0.000 OA
ATOM     94  H66 UNL     1      75.303  65.922 114.787  0.00  0.00    +0.000 HD
ENDBRANCH  90  93
ENDBRANCH  86  87
BRANCH  86  95
ATOM     95  O15 UNL     1      70.349  67.092 110.389  0.00  0.00    +0.000 OA
ATOM     96  H63 UNL     1      70.814  67.969 110.375  0.00  0.00    +0.000 HD
ENDBRANCH  86  95
ENDBRANCH  83  86
ENDBRANCH  20  83
TORSDOF 23
ENDMDL
MODEL 19
REMARK VINA RESULT:      -6.7      8.464     15.555
REMARK  Name = ./S4286.pdb
REMARK  27 active torsions:
REMARK  status: ('A' for Active; 'I' for Inactive)
REMARK    1  A    between atoms: C1_1  and  C2_2
REMARK    2  A    between atoms: C2_2  and  C3_3
REMARK    3  A    between atoms: C3_3  and  C4_4
REMARK    4  A    between atoms: C4_4  and  C5_5
REMARK    5  A    between atoms: C5_5  and  O1_6
REMARK    6  A    between atoms: O1_6  and  C6_7
REMARK    7  A    between atoms: C9_10  and  C12_13
REMARK    8  A    between atoms: C15_16  and  C18_19
REMARK    9  A    between atoms: C21_22  and  C24_25
REMARK   10  A    between atoms: N1_27  and  C25_28
REMARK   11  A    between atoms: C27_30  and  O3_31
REMARK   12  A    between atoms: C28_32  and  O4_33
REMARK   13  A    between atoms: C31_38  and  O6_39
REMARK   14  A    between atoms: C32_40  and  C33_41
REMARK   15  A    between atoms: C36_46  and  C57_80
REMARK   16  A    between atoms: C38_50  and  C49_69
REMARK   17  A    between atoms: C42_56  and  O10_57
REMARK   18  A    between atoms: C45_62  and  C47_66
REMARK   19  A    between atoms: C47_66  and  C48_67
REMARK   20  A    between atoms: C47_66  and  O13_68
REMARK   21  A    between atoms: C49_69  and  O14_70
REMARK   22  A    between atoms: C49_69  and  C50_71
REMARK   23  A    between atoms: C50_71  and  O15_72
REMARK   24  A    between atoms: C50_71  and  C51_73
REMARK   25  A    between atoms: C54_76  and  O16_77
REMARK   26  A    between atoms: C57_80  and  C58_81
REMARK   27  A    between atoms: C57_80  and  O17_82
REMARK                            x       y       z     vdW  Elec       q    Type
REMARK                         _______ _______ _______ _____ _____    ______ ____
ROOT
ATOM      1  C25 UNL     1      75.706  67.220 108.551  0.00  0.00    +0.000 C 
ATOM      2  C26 UNL     1      76.845  68.229 108.878  0.00  0.00    +0.000 C 
ATOM      3  C27 UNL     1      76.300  69.629 109.245  0.00  0.00    +0.000 C 
ATOM      4  C28 UNL     1      77.419  70.668 109.483  0.00  0.00    +0.000 C 
ATOM      5  N2  UNL     1      78.060  71.063 108.225  0.00  0.00    +0.000 N 
ATOM      6  C29 UNL     1      78.919  72.212 108.143  0.00  0.00    +0.000 C 
ATOM      7  O5  UNL     1      79.145  72.911 109.168  0.00  0.00    +0.000 OA
ATOM      8  C30 UNL     1      79.556  72.602 106.835  0.00  0.00    +0.000 C 
ATOM      9  C31 UNL     1      80.543  71.522 106.357  0.00  0.00    +0.000 C 
ATOM     10  C32 UNL     1      80.278  71.374 104.853  0.00  0.00    +0.000 C 
ATOM     11  C33 UNL     1      80.475  69.937 104.354  0.00  0.00    +0.000 C 
ATOM     12  C34 UNL     1      78.850  71.872 104.641  0.00  0.00    +0.000 C 
ATOM     13  N3  UNL     1      78.560  72.736 105.774  0.00  0.00    +0.000 N 
ATOM     14  C35 UNL     1      77.472  73.688 105.830  0.00  0.00    +0.000 C 
ATOM     15  O7  UNL     1      77.092  74.123 106.950  0.00  0.00    +0.000 OA
ATOM     16  C36 UNL     1      76.806  74.254 104.584  0.00  0.00    +0.000 C 
ATOM     17  N4  UNL     1      76.201  73.165 103.796  0.00  0.00    +0.000 N 
ATOM     18  C37 UNL     1      75.520  73.362 102.543  0.00  0.00    +0.000 C 
ATOM     19  O8  UNL     1      76.093  73.999 101.619  0.00  0.00    +0.000 OA
ATOM     20  C38 UNL     1      74.161  72.745 102.250  0.00  0.00    +0.000 C 
ATOM     21  N5  UNL     1      73.634  71.966 103.378  0.00  0.00    +0.000 N 
ATOM     22  C39 UNL     1      72.704  70.883 103.194  0.00  0.00    +0.000 C 
ATOM     23  O9  UNL     1      72.317  70.568 102.038  0.00  0.00    +0.000 OA
ATOM     24  C40 UNL     1      72.208  70.090 104.376  0.00  0.00    +0.000 C 
ATOM     25  C41 UNL     1      71.582  70.990 105.452  0.00  0.00    +0.000 C 
ATOM     26  C42 UNL     1      72.407  70.773 106.727  0.00  0.00    +0.000 C 
ATOM     27  C43 UNL     1      73.600  69.894 106.344  0.00  0.00    +0.000 C 
ATOM     28  N6  UNL     1      73.325  69.394 105.007  0.00  0.00    +0.000 N 
ATOM     29  C44 UNL     1      73.851  68.154 104.478  0.00  0.00    +0.000 C 
ATOM     30  O11 UNL     1      73.106  67.438 103.757  0.00  0.00    +0.000 OA
ATOM     31  C45 UNL     1      75.290  67.697 104.676  0.00  0.00    +0.000 C 
ATOM     32  N7  UNL     1      75.745  67.895 106.057  0.00  0.00    +0.000 N 
ATOM     33  C46 UNL     1      75.548  66.897 107.076  0.00  0.00    +0.000 C 
ATOM     34  O12 UNL     1      75.127  65.753 106.749  0.00  0.00    +0.000 OA
ATOM     35  H32 UNL     1      77.843  70.544 107.344  0.00  0.00    +0.000 HD
ATOM     36  H43 UNL     1      76.059  72.250 104.276  0.00  0.00    +0.000 HD
ATOM     37  H45 UNL     1      73.841  72.273 104.353  0.00  0.00    +0.000 HD
ATOM     38  H54 UNL     1      76.165  68.816 106.312  0.00  0.00    +0.000 HD
ENDROOT
BRANCH   1  41
ATOM     39  C24 UNL     1      75.472  65.844 110.700  0.00  0.00    +0.000 C 
ATOM     40  O2  UNL     1      74.771  66.746 111.237  0.00  0.00    +0.000 OA
ATOM     41  N1  UNL     1      75.889  65.986 109.328  0.00  0.00    +0.000 N 
ATOM     42  H24 UNL     1      76.316  65.171 108.837  0.00  0.00    +0.000 HD
BRANCH  39  46
ATOM     43  C18 UNL     1      76.539  62.366 113.012  0.00  0.00    +0.000 A 
ATOM     44  C19 UNL     1      76.986  62.505 111.686  0.00  0.00    +0.000 A 
ATOM     45  C20 UNL     1      76.645  63.633 110.935  0.00  0.00    +0.000 A 
ATOM     46  C21 UNL     1      75.841  64.644 111.489  0.00  0.00    +0.000 A 
ATOM     47  C22 UNL     1      75.408  64.514 112.818  0.00  0.00    +0.000 A 
ATOM     48  C23 UNL     1      75.750  63.386 113.571  0.00  0.00    +0.000 A 
BRANCH  43  52
ATOM     49  C12 UNL     1      77.571  58.851 115.285  0.00  0.00    +0.000 A 
ATOM     50  C13 UNL     1      76.301  59.441 115.416  0.00  0.00    +0.000 A 
ATOM     51  C14 UNL     1      75.971  60.585 114.683  0.00  0.00    +0.000 A 
ATOM     52  C15 UNL     1      76.902  61.165 113.805  0.00  0.00    +0.000 A 
ATOM     53  C16 UNL     1      78.173  60.581 113.680  0.00  0.00    +0.000 A 
ATOM     54  C17 UNL     1      78.504  59.435 114.411  0.00  0.00    +0.000 A 
BRANCH  49  58
ATOM     55  C6  UNL     1      78.603  55.298 117.493  0.00  0.00    +0.000 A 
ATOM     56  C7  UNL     1      78.078  56.423 118.156  0.00  0.00    +0.000 A 
ATOM     57  C8  UNL     1      77.733  57.570 117.438  0.00  0.00    +0.000 A 
ATOM     58  C9  UNL     1      77.908  57.618 116.043  0.00  0.00    +0.000 A 
ATOM     59  C10 UNL     1      78.423  56.488 115.383  0.00  0.00    +0.000 A 
ATOM     60  C11 UNL     1      78.764  55.340 116.104  0.00  0.00    +0.000 A 
BRANCH  55  61
ATOM     61  O1  UNL     1      78.979  54.129 118.173  0.00  0.00    +0.000 OA
BRANCH  61  62
ATOM     62  C5  UNL     1      78.066  53.263 118.842  0.00  0.00    +0.000 C 
BRANCH  62  63
ATOM     63  C4  UNL     1      77.070  52.693 117.830  0.00  0.00    +0.000 C 
BRANCH  63  64
ATOM     64  C3  UNL     1      75.687  53.377 117.885  0.00  0.00    +0.000 C 
BRANCH  64  66
ATOM     65  C1  UNL     1      74.816  55.435 116.617  0.00  0.00    +0.000 C 
ATOM     66  C2  UNL     1      75.212  53.961 116.539  0.00  0.00    +0.000 C 
ENDBRANCH  64  66
ENDBRANCH  63  64
ENDBRANCH  62  63
ENDBRANCH  61  62
ENDBRANCH  55  61
ENDBRANCH  49  58
ENDBRANCH  43  52
ENDBRANCH  39  46
ENDBRANCH   1  41
BRANCH   3  67
ATOM     67  O3  UNL     1      75.521  69.521 110.409  0.00  0.00    +0.000 OA
ATOM     68  H29 UNL     1      75.149  68.599 110.427  0.00  0.00    +0.000 HD
ENDBRANCH   3  67
BRANCH   4  69
ATOM     69  O4  UNL     1      78.378  70.145 110.369  0.00  0.00    +0.000 OA
ATOM     70  H31 UNL     1      78.997  69.585 109.834  0.00  0.00    +0.000 HD
ENDBRANCH   4  69
BRANCH   9  71
ATOM     71  O6  UNL     1      81.871  71.916 106.578  0.00  0.00    +0.000 OA
ATOM     72  H35 UNL     1      82.407  71.080 106.628  0.00  0.00    +0.000 HD
ENDBRANCH   9  71
BRANCH  26  73
ATOM     73  O10 UNL     1      72.809  71.986 107.316  0.00  0.00    +0.000 OA
ATOM     74  H50 UNL     1      73.800  72.015 107.312  0.00  0.00    +0.000 HD
ENDBRANCH  26  73
BRANCH  31  75
ATOM     75  C47 UNL     1      76.270  68.363 103.681  0.00  0.00    +0.000 C 
ATOM     76  C48 UNL     1      77.518  67.503 103.417  0.00  0.00    +0.000 C 
BRANCH  75  77
ATOM     77  O13 UNL     1      75.624  68.699 102.482  0.00  0.00    +0.000 OA
ATOM     78  H59 UNL     1      74.650  68.590 102.621  0.00  0.00    +0.000 HD
ENDBRANCH  75  77
ENDBRANCH  31  75
BRANCH  16  79
ATOM     79  C57 UNL     1      77.773  75.153 103.742  0.00  0.00    +0.000 C 
ATOM     80  C58 UNL     1      78.983  75.687 104.532  0.00  0.00    +0.000 C 
BRANCH  79  81
ATOM     81  O17 UNL     1      77.073  76.242 103.191  0.00  0.00    +0.000 OA
ATOM     82  H73 UNL     1      77.596  76.582 102.417  0.00  0.00    +0.000 HD
ENDBRANCH  79  81
ENDBRANCH  16  79
BRANCH  20  83
ATOM     83  C49 UNL     1      73.119  73.806 101.796  0.00  0.00    +0.000 C 
BRANCH  83  84
ATOM     84  O14 UNL     1      72.015  73.791 102.668  0.00  0.00    +0.000 OA
ATOM     85  H61 UNL     1      71.206  73.945 102.112  0.00  0.00    +0.000 HD
ENDBRANCH  83  84
BRANCH  83  86
ATOM     86  C50 UNL     1      72.621  73.606 100.343  0.00  0.00    +0.000 C 
BRANCH  86  87
ATOM     87  C51 UNL     1      73.024  74.783  99.478  0.00  0.00    +0.000 A 
ATOM     88  C52 UNL     1      74.177  74.714  98.678  0.00  0.00    +0.000 A 
ATOM     89  C53 UNL     1      74.531  75.787  97.854  0.00  0.00    +0.000 A 
ATOM     90  C54 UNL     1      73.733  76.938  97.814  0.00  0.00    +0.000 A 
ATOM     91  C55 UNL     1      72.580  77.011  98.603  0.00  0.00    +0.000 A 
ATOM     92  C56 UNL     1      72.225  75.939  99.428  0.00  0.00    +0.000 A 
BRANCH  90  93
ATOM     93  O16 UNL     1      74.073  78.011  96.993  0.00  0.00    +0.000 OA
ATOM     94  H66 UNL     1      73.783  78.049  96.023  0.00  0.00    +0.000 HD
ENDBRANCH  90  93
ENDBRANCH  86  87
BRANCH  86  95
ATOM     95  O15 UNL     1      73.162  72.425  99.803  0.00  0.00    +0.000 OA
ATOM     96  H63 UNL     1      73.946  72.187 100.363  0.00  0.00    +0.000 HD
ENDBRANCH  86  95
ENDBRANCH  83  86
ENDBRANCH  20  83
TORSDOF 23
ENDMDL
MODEL 20
REMARK VINA RESULT:      -6.7      7.289     12.159
REMARK  Name = ./S4286.pdb
REMARK  27 active torsions:
REMARK  status: ('A' for Active; 'I' for Inactive)
REMARK    1  A    between atoms: C1_1  and  C2_2
REMARK    2  A    between atoms: C2_2  and  C3_3
REMARK    3  A    between atoms: C3_3  and  C4_4
REMARK    4  A    between atoms: C4_4  and  C5_5
REMARK    5  A    between atoms: C5_5  and  O1_6
REMARK    6  A    between atoms: O1_6  and  C6_7
REMARK    7  A    between atoms: C9_10  and  C12_13
REMARK    8  A    between atoms: C15_16  and  C18_19
REMARK    9  A    between atoms: C21_22  and  C24_25
REMARK   10  A    between atoms: N1_27  and  C25_28
REMARK   11  A    between atoms: C27_30  and  O3_31
REMARK   12  A    between atoms: C28_32  and  O4_33
REMARK   13  A    between atoms: C31_38  and  O6_39
REMARK   14  A    between atoms: C32_40  and  C33_41
REMARK   15  A    between atoms: C36_46  and  C57_80
REMARK   16  A    between atoms: C38_50  and  C49_69
REMARK   17  A    between atoms: C42_56  and  O10_57
REMARK   18  A    between atoms: C45_62  and  C47_66
REMARK   19  A    between atoms: C47_66  and  C48_67
REMARK   20  A    between atoms: C47_66  and  O13_68
REMARK   21  A    between atoms: C49_69  and  O14_70
REMARK   22  A    between atoms: C49_69  and  C50_71
REMARK   23  A    between atoms: C50_71  and  O15_72
REMARK   24  A    between atoms: C50_71  and  C51_73
REMARK   25  A    between atoms: C54_76  and  O16_77
REMARK   26  A    between atoms: C57_80  and  C58_81
REMARK   27  A    between atoms: C57_80  and  O17_82
REMARK                            x       y       z     vdW  Elec       q    Type
REMARK                         _______ _______ _______ _____ _____    ______ ____
ROOT
ATOM      1  C25 UNL     1      73.891  70.390 105.866  0.00  0.00    +0.000 C 
ATOM      2  C26 UNL     1      74.619  71.465 105.007  0.00  0.00    +0.000 C 
ATOM      3  C27 UNL     1      74.624  72.853 105.687  0.00  0.00    +0.000 C 
ATOM      4  C28 UNL     1      75.261  73.952 104.807  0.00  0.00    +0.000 C 
ATOM      5  N2  UNL     1      74.386  74.318 103.689  0.00  0.00    +0.000 N 
ATOM      6  C29 UNL     1      74.616  75.500 102.905  0.00  0.00    +0.000 C 
ATOM      7  O5  UNL     1      75.592  76.255 103.164  0.00  0.00    +0.000 OA
ATOM      8  C30 UNL     1      73.694  75.857 101.768  0.00  0.00    +0.000 C 
ATOM      9  C31 UNL     1      73.761  74.803 100.649  0.00  0.00    +0.000 C 
ATOM     10  C32 UNL     1      72.305  74.574 100.226  0.00  0.00    +0.000 C 
ATOM     11  C33 UNL     1      72.032  73.125  99.800  0.00  0.00    +0.000 C 
ATOM     12  C34 UNL     1      71.461  74.994 101.427  0.00  0.00    +0.000 C 
ATOM     13  N3  UNL     1      72.300  75.896 102.202  0.00  0.00    +0.000 N 
ATOM     14  C35 UNL     1      71.817  76.799 103.225  0.00  0.00    +0.000 C 
ATOM     15  O7  UNL     1      72.630  77.267 104.066  0.00  0.00    +0.000 OA
ATOM     16  C36 UNL     1      70.372  77.274 103.291  0.00  0.00    +0.000 C 
ATOM     17  N4  UNL     1      69.469  76.124 103.467  0.00  0.00    +0.000 N 
ATOM     18  C37 UNL     1      68.035  76.231 103.535  0.00  0.00    +0.000 C 
ATOM     19  O8  UNL     1      67.416  76.850 102.629  0.00  0.00    +0.000 OA
ATOM     20  C38 UNL     1      67.218  75.539 104.616  0.00  0.00    +0.000 C 
ATOM     21  N5  UNL     1      68.050  74.790 105.567  0.00  0.00    +0.000 N 
ATOM     22  C39 UNL     1      67.547  73.658 106.299  0.00  0.00    +0.000 C 
ATOM     23  O9  UNL     1      66.359  73.273 106.135  0.00  0.00    +0.000 OA
ATOM     24  C40 UNL     1      68.441  72.899 107.246  0.00  0.00    +0.000 C 
ATOM     25  C41 UNL     1      69.079  73.819 108.298  0.00  0.00    +0.000 C 
ATOM     26  C42 UNL     1      70.597  73.699 108.110  0.00  0.00    +0.000 C 
ATOM     27  C43 UNL     1      70.827  72.859 106.851  0.00  0.00    +0.000 C 
ATOM     28  N6  UNL     1      69.538  72.286 106.503  0.00  0.00    +0.000 N 
ATOM     29  C44 UNL     1      69.368  71.048 105.772  0.00  0.00    +0.000 C 
ATOM     30  O11 UNL     1      68.440  70.265 106.112  0.00  0.00    +0.000 OA
ATOM     31  C45 UNL     1      70.201  70.667 104.556  0.00  0.00    +0.000 C 
ATOM     32  N7  UNL     1      71.627  70.950 104.755  0.00  0.00    +0.000 N 
ATOM     33  C46 UNL     1      72.518  69.992 105.357  0.00  0.00    +0.000 C 
ATOM     34  O12 UNL     1      72.113  68.815 105.569  0.00  0.00    +0.000 OA
ATOM     35  H32 UNL     1      73.533  73.748 103.487  0.00  0.00    +0.000 HD
ATOM     36  H43 UNL     1      69.895  75.227 103.785  0.00  0.00    +0.000 HD
ATOM     37  H45 UNL     1      68.997  75.152 105.813  0.00  0.00    +0.000 HD
ATOM     38  H54 UNL     1      71.982  71.899 104.508  0.00  0.00    +0.000 HD
ENDROOT
BRANCH   1  41
ATOM     39  C24 UNL     1      75.810  69.108 106.984  0.00  0.00    +0.000 C 
ATOM     40  O2  UNL     1      75.935  70.004 107.865  0.00  0.00    +0.000 OA
ATOM     41  N1  UNL     1      74.745  69.203 106.017  0.00  0.00    +0.000 N 
ATOM     42  H24 UNL     1      74.538  68.384 105.404  0.00  0.00    +0.000 HD
BRANCH  39  46
ATOM     43  C18 UNL     1      78.554  65.786 106.925  0.00  0.00    +0.000 A 
ATOM     44  C19 UNL     1      77.641  65.937 107.983  0.00  0.00    +0.000 A 
ATOM     45  C20 UNL     1      76.747  67.011 108.004  0.00  0.00    +0.000 A 
ATOM     46  C21 UNL     1      76.752  67.965 106.971  0.00  0.00    +0.000 A 
ATOM     47  C22 UNL     1      77.652  67.805 105.905  0.00  0.00    +0.000 A 
ATOM     48  C23 UNL     1      78.546  66.730 105.883  0.00  0.00    +0.000 A 
BRANCH  43  52
ATOM     49  C12 UNL     1      81.276  62.442 106.877  0.00  0.00    +0.000 A 
ATOM     50  C13 UNL     1      80.716  62.893 108.086  0.00  0.00    +0.000 A 
ATOM     51  C14 UNL     1      79.840  63.981 108.100  0.00  0.00    +0.000 A 
ATOM     52  C15 UNL     1      79.504  64.645 106.908  0.00  0.00    +0.000 A 
ATOM     53  C16 UNL     1      80.069  64.201 105.701  0.00  0.00    +0.000 A 
ATOM     54  C17 UNL     1      80.945  63.111 105.685  0.00  0.00    +0.000 A 
BRANCH  49  58
ATOM     55  C6  UNL     1      83.882  59.011 106.875  0.00  0.00    +0.000 A 
ATOM     56  C7  UNL     1      82.698  59.009 106.113  0.00  0.00    +0.000 A 
ATOM     57  C8  UNL     1      81.860  60.126 106.106  0.00  0.00    +0.000 A 
ATOM     58  C9  UNL     1      82.185  61.267 106.862  0.00  0.00    +0.000 A 
ATOM     59  C10 UNL     1      83.374  61.269 107.613  0.00  0.00    +0.000 A 
ATOM     60  C11 UNL     1      84.212  60.151 107.615  0.00  0.00    +0.000 A 
BRANCH  55  61
ATOM     61  O1  UNL     1      84.747  57.908 106.927  0.00  0.00    +0.000 OA
BRANCH  61  62
ATOM     62  C5  UNL     1      86.152  57.980 106.701  0.00  0.00    +0.000 C 
BRANCH  62  63
ATOM     63  C4  UNL     1      86.422  58.085 105.199  0.00  0.00    +0.000 C 
BRANCH  63  64
ATOM     64  C3  UNL     1      86.600  59.539 104.712  0.00  0.00    +0.000 C 
BRANCH  64  66
ATOM     65  C1  UNL     1      84.931  61.421 104.184  0.00  0.00    +0.000 C 
ATOM     66  C2  UNL     1      85.471  60.045 103.792  0.00  0.00    +0.000 C 
ENDBRANCH  64  66
ENDBRANCH  63  64
ENDBRANCH  62  63
ENDBRANCH  61  62
ENDBRANCH  55  61
ENDBRANCH  49  58
ENDBRANCH  43  52
ENDBRANCH  39  46
ENDBRANCH   1  41
BRANCH   3  67
ATOM     67  O3  UNL     1      75.337  72.764 106.895  0.00  0.00    +0.000 OA
ATOM     68  H29 UNL     1      75.974  72.006 106.801  0.00  0.00    +0.000 HD
ENDBRANCH   3  67
BRANCH   4  69
ATOM     69  O4  UNL     1      76.507  73.516 104.321  0.00  0.00    +0.000 OA
ATOM     70  H31 UNL     1      76.732  74.083 103.540  0.00  0.00    +0.000 HD
ENDBRANCH   4  69
BRANCH   9  71
ATOM     71  O6  UNL     1      74.514  75.267  99.561  0.00  0.00    +0.000 OA
ATOM     72  H35 UNL     1      73.864  75.483  98.840  0.00  0.00    +0.000 HD
ENDBRANCH   9  71
BRANCH  26  73
ATOM     73  O10 UNL     1      71.226  74.955 108.031  0.00  0.00    +0.000 OA
ATOM     74  H50 UNL     1      70.600  75.635 108.389  0.00  0.00    +0.000 HD
ENDBRANCH  26  73
BRANCH  31  75
ATOM     75  C47 UNL     1      69.693  71.330 103.254  0.00  0.00    +0.000 C 
ATOM     76  C48 UNL     1      70.246  70.648 101.990  0.00  0.00    +0.000 C 
BRANCH  75  77
ATOM     77  O13 UNL     1      68.292  71.386 103.228  0.00  0.00    +0.000 OA
ATOM     78  H59 UNL     1      68.000  71.275 102.289  0.00  0.00    +0.000 HD
ENDBRANCH  75  77
ENDBRANCH  31  75
BRANCH  16  79
ATOM     79  C57 UNL     1      69.982  78.178 102.072  0.00  0.00    +0.000 C 
ATOM     80  C58 UNL     1      71.186  78.794 101.334  0.00  0.00    +0.000 C 
BRANCH  79  81
ATOM     81  O17 UNL     1      69.123  79.212 102.485  0.00  0.00    +0.000 OA
ATOM     82  H73 UNL     1      68.273  78.799 102.792  0.00  0.00    +0.000 HD
ENDBRANCH  79  81
ENDBRANCH  16  79
BRANCH  20  83
ATOM     83  C49 UNL     1      66.291  76.529 105.376  0.00  0.00    +0.000 C 
BRANCH  83  84
ATOM     84  O14 UNL     1      66.541  76.447 106.758  0.00  0.00    +0.000 OA
ATOM     85  H61 UNL     1      66.416  77.360 107.130  0.00  0.00    +0.000 HD
ENDBRANCH  83  84
BRANCH  83  86
ATOM     86  C50 UNL     1      64.783  76.291 105.117  0.00  0.00    +0.000 C 
BRANCH  86  87
ATOM     87  C51 UNL     1      64.356  76.955 103.825  0.00  0.00    +0.000 A 
ATOM     88  C52 UNL     1      64.473  78.347 103.670  0.00  0.00    +0.000 A 
ATOM     89  C53 UNL     1      64.111  78.957 102.465  0.00  0.00    +0.000 A 
ATOM     90  C54 UNL     1      63.634  78.184 101.398  0.00  0.00    +0.000 A 
ATOM     91  C55 UNL     1      63.522  76.797 101.544  0.00  0.00    +0.000 A 
ATOM     92  C56 UNL     1      63.882  76.185 102.747  0.00  0.00    +0.000 A 
BRANCH  90  93
ATOM     93  O16 UNL     1      63.276  78.780 100.192  0.00  0.00    +0.000 OA
ATOM     94  H66 UNL     1      62.478  79.401 100.124  0.00  0.00    +0.000 HD
ENDBRANCH  90  93
ENDBRANCH  86  87
BRANCH  86  95
ATOM     95  O15 UNL     1      64.515  74.913 105.044  0.00  0.00    +0.000 OA
ATOM     96  H63 UNL     1      63.752  74.802 104.418  0.00  0.00    +0.000 HD
ENDBRANCH  86  95
ENDBRANCH  83  86
ENDBRANCH  20  83
TORSDOF 23
ENDMDL
